INSANE! Membrane UpperLeaflet>loPI:POPI:DPPI:PYPI:ERGO=80.0:5.0:3.0:2.0:10.0 LowerLeaflet>PSPI:POPI:POPS:YOPS:POPE:YOPE:POPC:YOPC:ERGO=6.0:14.0:21.0:9.0:9.0:21.0:12.0:48.0:60.0
49377
    1loPI    C1    1  13.318   1.542  10.805  0.1904  0.0298 -0.2472
    1loPI    C2    2  13.064   1.238  10.858  0.2796 -0.0054 -0.0118
    1loPI    C3    3  12.942   1.613  10.921  0.2033  0.0003 -0.1871
    1loPI   PO4    4  13.506   1.463  10.562 -0.1748 -0.0351 -0.2592
    1loPI   GL1    5  13.569   1.375  10.163  0.1052  0.0740  0.2364
    1loPI   GL2    6  13.351   1.516   9.941 -0.1432  0.1809 -0.2420
    1loPI   C1A    7  13.564   1.139   9.719  0.0528  0.1702 -0.0728
    1loPI   C2A    8  13.632   1.099   9.241  0.2291  0.2263 -0.2463
    1loPI   C3A    9  13.539   1.193   8.793 -0.0355  0.2061  0.1392
    1loPI   C4A   10  13.616   1.111   8.342 -0.0374 -0.1510  0.1111
    1loPI   C5A   11  13.596   0.973   7.970 -0.1030  0.0567  0.1983
    1loPI   C6A   12  13.662   1.102   7.582  0.0188 -0.0406  0.0614
    1loPI   C1B   13  13.187   1.462   9.602 -0.3839 -0.3424  0.1399
    1loPI   C2B   14  13.190   1.448   9.204  0.1450 -0.0129  0.0557
    1loPI   C3B   15  13.174   1.568   8.727  0.0429 -0.3796  0.2116
    1loPI   C4B   16  13.122   1.331   8.276  0.3148  0.3244 -0.0164
    2loPI    C1   17  15.206  13.397  10.556  0.0076  0.1232  0.0110
    2loPI    C2   18  15.052  13.031  10.601  0.3112  0.0096  0.1531
    2loPI    C3   19  15.150  13.247  10.923  0.2091  0.1847  0.0679
    2loPI   PO4   20  15.105  13.556  10.391  0.0022  0.0854 -0.1434
    2loPI   GL1   21  15.000  13.684  10.090  0.0119  0.1702 -0.0057
    2loPI   GL2   22  15.263  13.453   9.921  0.3106  0.2118 -0.0807
    2loPI   C1A   23  14.979  13.877   9.662  0.0775  0.0928 -0.0749
    2loPI   C2A   24  14.747  14.077   9.239 -0.1366  0.0293 -0.1034
    2loPI   C3A   25  14.874  13.932   8.858  0.0132 -0.1215 -0.1065
    2loPI   C4A   26  15.181  13.592   8.659  0.0407  0.0133  0.0618
    2loPI   C5A   27  15.178  13.360   8.368 -0.0792  0.0158  0.1045
    2loPI   C6A   28  14.714  13.129   8.179 -0.2154 -0.0406  0.1765
    2loPI   C1B   29  14.986  13.299   9.702 -0.2778  0.1208  0.3199
    2loPI   C2B   30  14.686  13.048   9.511 -0.0988  0.0459  0.0398
    2loPI   C3B   31  14.620  12.901   9.222 -0.0841 -0.1342  0.1054
    2loPI   C4B   32  14.801  12.556   9.001  0.0092  0.2625  0.1331
    3loPI    C1   33  17.945   5.712  10.485  0.2568 -0.0531 -0.0518
    3loPI    C2   34  18.014   5.710  10.879  0.0065  0.0676 -0.0058
    3loPI    C3   35  17.956   6.057  10.687 -0.0514 -0.0025 -0.1158
    3loPI   PO4   36  18.047   5.536  10.382  0.1974 -0.2179  0.0365
    3loPI   GL1   37  18.214   5.588   9.993 -0.0136  0.1369 -0.1399
    3loPI   GL2   38  18.450   5.803  10.067 -0.1264 -0.3534  0.2267
    3loPI   C1A   39  18.034   5.614   9.600 -0.0246  0.3386 -0.1468
    3loPI   C2A   40  17.995   5.594   9.074  0.2374  0.2504  0.0093
    3loPI   C3A   41  17.952   5.543   8.690  0.1814  0.1807  0.1185
    3loPI   C4A   42  18.037   5.298   8.300 -0.1547 -0.0505 -0.1066
    3loPI   C5A   43  17.901   5.309   7.920 -0.0635  0.2542 -0.0766
    3loPI   C6A   44  18.184   5.125   7.632 -0.1103  0.0744  0.0895
    3loPI   C1B   45  18.319   6.077   9.741 -0.0904 -0.2423 -0.2093
    3loPI   C2B   46  18.197   6.059   9.223 -0.1137  0.0047 -0.1877
    3loPI   C3B   47  17.988   6.269   8.947 -0.2370  0.1290  0.1653
    3loPI   C4B   48  17.846   6.044   8.582  0.2152 -0.0817 -0.0957
    4loPI    C1   49   4.954  13.462  10.527  0.0539 -0.0763 -0.1007
    4loPI    C2   50   4.765  13.396  10.873 -0.0609 -0.2875 -0.2010
    4loPI    C3   51   4.996  13.720  10.829 -0.1255 -0.2069  0.0381
    4loPI   PO4   52   4.776  13.447  10.225 -0.1271 -0.0718  0.0949
    4loPI   GL1   53   4.668  13.346   9.922 -0.0657  0.1297  0.2206
    4loPI   GL2   54   4.821  13.106   9.802  0.0321  0.1136 -0.2781
    4loPI   C1A   55   4.502  13.542   9.565 -0.0761  0.0310 -0.0325
    4loPI   C2A   56   4.697  13.757   9.280 -0.2031 -0.0884 -0.2076
    4loPI   C3A   57   4.884  14.011   8.914 -0.3520  0.0662  0.0115
    4loPI   C4A   58   4.924  14.112   8.559 -0.1120 -0.2860  0.0706
    4loPI   C5A   59   5.181  14.116   8.301 -0.1127  0.0570 -0.0205
    4loPI   C6A   60   5.310  13.830   7.899 -0.2990 -0.0268  0.0230
    4loPI   C1B   61   5.065  13.353   9.538  0.0810 -0.0437  0.1847
    4loPI   C2B   62   5.173  13.603   9.115  0.0786  0.1920 -0.0870
    4loPI   C3B   63   5.273  13.740   8.631 -0.0878  0.2395  0.1602
    4loPI   C4B   64   4.962  13.595   8.349 -0.0392 -0.1143 -0.2661
    5loPI    C1   65  12.569   1.657  10.519 -0.0962 -0.1144 -0.1155
    5loPI    C2   66  12.602   1.928  10.226 -0.1106 -0.0853 -0.0901
    5loPI    C3   67  12.771   1.997  10.583 -0.3422  0.0119  0.0028
    5loPI   PO4   68  12.683   1.435  10.416 -0.1600  0.0425 -0.0164
    5loPI   GL1   69  12.716   1.387  10.084 -0.0490  0.0346  0.1168
    5loPI   GL2   70  12.421   1.347   9.973  0.1556  0.0159 -0.1415
    5loPI   C1A   71  12.745   1.644   9.787 -0.1259 -0.1893 -0.3920
    5loPI   C2A   72  12.711   1.684   9.340 -0.1924 -0.2646  0.0112
    5loPI   C3A   73  12.768   1.473   8.960  0.0784 -0.0532 -0.1368
    5loPI   C4A   74  12.646   1.566   8.626  0.0380 -0.0366  0.2630
    5loPI   C5A   75  12.611   1.460   8.183 -0.2154  0.1714  0.0128
    5loPI   C6A   76  12.814   1.134   7.877  0.2352 -0.1243  0.0523
    5loPI   C1B   77  12.421   1.278   9.659  0.0401 -0.1852 -0.0488
    5loPI   C2B   78  12.435   1.244   9.236 -0.0143  0.1292  0.0252
    5loPI   C3B   79  12.533   1.095   8.747  0.1113  0.1170 -0.2298
    5loPI   C4B   80  12.652   0.951   8.348  0.0126  0.1475  0.1597
    6loPI    C1   81   0.804   0.187  11.012 -0.0914  0.0007  0.1515
    6loPI    C2   82   0.584  -0.097  10.836 -0.0492  0.1111 -0.0830
    6loPI    C3   83   0.687  -0.134  11.220  0.0590 -0.2508 -0.1431
    6loPI   PO4   84   0.752   0.396  10.841 -0.2084 -0.1900  0.0392
    6loPI   GL1   85   0.722   0.479  10.525  0.0321  0.0053 -0.0536
    6loPI   GL2   86   0.804   0.132  10.462  0.0045  0.0903 -0.0586
    6loPI   C1A   87   0.889   0.623  10.169 -0.1515 -0.0155  0.1133
    6loPI   C2A   88   0.880   0.690   9.745  0.2113 -0.0370 -0.0200
    6loPI   C3A   89   0.868   0.654   9.279  0.1841 -0.1675  0.1453
    6loPI   C4A   90   0.953   0.551   8.891  0.2252 -0.0982  0.0383
    6loPI   C5A   91   0.852   0.610   8.402  0.1583  0.1500  0.2565
    6loPI   C6A   92   0.500   0.493   8.073  0.1161 -0.1451  0.0107
    6loPI   C1B   93   0.754   0.134  10.054 -0.0407 -0.0192  0.0879
    6loPI   C2B   94   0.766   0.141   9.643 -0.0737 -0.0166 -0.3337
    6loPI   C3B   95   0.798   0.177   9.213 -0.0086  0.1318  0.1315
    6loPI   C4B   96   0.848   0.045   8.789  0.2054  0.1426 -0.3339
    7loPI    C1   97   5.855   1.135  10.662 -0.1123  0.0949 -0.0798
    7loPI    C2   98   5.807   0.970  11.023 -0.0693 -0.0056 -0.1198
    7loPI    C3   99   5.848   0.737  10.700  0.0906  0.0818 -0.1640
    7loPI   PO4  100   6.022   1.296  10.640  0.0349  0.0075 -0.1158
    7loPI   GL1  101   6.252   1.362  10.275 -0.0271  0.2366  0.3838
    7loPI   GL2  102   6.678   1.373  10.270  0.2695  0.0069 -0.0021
    7loPI   C1A  103   6.086   1.425   9.822  0.1643 -0.1329  0.1387
    7loPI   C2A  104   6.048   1.546   9.466  0.1211  0.1537  0.0411
    7loPI   C3A  105   6.114   1.515   9.113  0.1159  0.0778  0.2796
    7loPI   C4A  106   6.206   1.433   8.750 -0.0832  0.1911  0.2654
    7loPI   C5A  107   6.499   1.234   8.560 -0.1490  0.2199  0.2365
    7loPI   C6A  108   6.763   1.170   8.124  0.4427  0.1977 -0.0028
    7loPI   C1B  109   6.726   1.431   9.844  0.1179  0.1142 -0.3034
    7loPI   C2B  110   6.883   1.351   9.405  0.1070 -0.2343  0.0062
    7loPI   C3B  111   7.091   1.347   8.950  0.1630  0.1860 -0.0068
    7loPI   C4B  112   7.423   1.226   8.612 -0.1653 -0.2675 -0.0057
    8loPI    C1  113  14.027  16.509  10.643  0.0091 -0.1460  0.0379
    8loPI    C2  114  14.187  16.871  10.699  0.0151 -0.1357 -0.0438
    8loPI    C3  115  13.802  16.806  10.790  0.0085 -0.1033 -0.0484
    8loPI   PO4  116  14.193  16.292  10.665 -0.2411  0.2987 -0.2268
    8loPI   GL1  117  14.236  15.951  10.330 -0.1016  0.0849 -0.0115
    8loPI   GL2  118  14.382  15.692  10.465 -0.0792 -0.2641 -0.1369
    8loPI   C1A  119  14.438  16.093   9.949 -0.0483  0.0871  0.1718
    8loPI   C2A  120  14.420  16.145   9.443  0.0721  0.0503 -0.2332
    8loPI   C3A  121  14.401  16.195   9.029 -0.0292 -0.4673  0.2742
    8loPI   C4A  122  14.365  16.227   8.549  0.0362  0.2695 -0.0561
    8loPI   C5A  123  14.487  16.635   8.322 -0.1208 -0.0015 -0.3509
    8loPI   C6A  124  14.193  16.864   8.069  0.2527  0.3315  0.1373
    8loPI   C1B  125  14.311  15.606   9.980  0.2872 -0.1534  0.3154
    8loPI   C2B  126  14.306  15.628   9.508  0.2356 -0.1072  0.0404
    8loPI   C3B  127  14.230  15.702   9.141  0.1051  0.0610 -0.2751
    8loPI   C4B  128  14.394  15.686   8.661  0.0251  0.0261 -0.1500
    9loPI    C1  129  17.903  16.972  11.023 -0.0078 -0.0186  0.0587
    9loPI    C2  130  17.579  17.102  11.218  0.0574  0.3007 -0.0396
    9loPI    C3  131  17.909  17.002  11.421 -0.0239  0.1989  0.0436
    9loPI   PO4  132  17.908  17.120  10.870 -0.2773 -0.2812  0.1977
    9loPI   GL1  133  17.991  16.938  10.464 -0.1225 -0.1546  0.0542
    9loPI   GL2  134  18.225  17.026  10.192  0.0154  0.1548 -0.1837
    9loPI   C1A  135  17.723  16.803  10.024  0.0616  0.0189 -0.0130
    9loPI   C2A  136  17.678  16.880   9.580 -0.0192 -0.1676 -0.0169
    9loPI   C3A  137  17.691  16.886   9.050 -0.0220  0.1170  0.0908
    9loPI   C4A  138  17.805  16.786   8.616  0.1221 -0.0629  0.0709
    9loPI   C5A  139  17.879  16.467   8.213  0.0406 -0.0969 -0.3637
    9loPI   C6A  140  18.042  16.652   7.764  0.2528 -0.3728 -0.0728
    9loPI   C1B  141  18.184  16.973   9.750  0.1622  0.3567  0.2349
    9loPI   C2B  142  18.139  16.962   9.292  0.2251 -0.0954  0.1945
    9loPI   C3B  143  18.186  16.956   8.857  0.0741 -0.2199  0.3003
    9loPI   C4B  144  18.191  16.895   8.400  0.1179  0.1638 -0.1219
   10loPI    C1  145   0.956   6.535  10.540 -0.0691  0.0185 -0.0429
   10loPI    C2  146   1.329   6.493  10.679 -0.0467  0.0713 -0.0868
   10loPI    C3  147   1.086   6.176  10.658  0.0219  0.0215 -0.1324
   10loPI   PO4  148   0.982   6.738  10.347 -0.3534 -0.0227  0.0890
   10loPI   GL1  149   1.233   6.901   9.919  0.1946  0.1660  0.0834
   10loPI   GL2  150   0.908   7.008   9.886 -0.0067 -0.2335  0.1949
   10loPI   C1A  151   1.221   6.493   9.687 -0.0356  0.1574  0.0915
   10loPI   C2A  152   1.086   6.412   9.301  0.2066 -0.1300 -0.2120
   10loPI   C3A  153   1.071   6.355   8.840 -0.1681 -0.4051 -0.0312
   10loPI   C4A  154   0.834   6.362   8.461 -0.0049  0.2610 -0.1443
   10loPI   C5A  155   0.921   6.611   8.057 -0.0319 -0.0269 -0.4571
   10loPI   C6A  156   0.710   6.754   7.612 -0.2269 -0.1956  0.1056
   10loPI   C1B  157   0.862   7.164   9.502 -0.1344 -0.0230  0.0213
   10loPI   C2B  158   0.813   6.993   9.125 -0.0159  0.0090  0.3003
   10loPI   C3B  159   0.732   6.753   8.767 -0.5333  0.0086  0.0153
   10loPI   C4B  160   0.555   6.745   8.404 -0.2581  0.4390  0.1024
   11loPI    C1  161   1.473   0.830  11.243  0.1060  0.0573  0.0963
   11loPI    C2  162   1.334   1.204  11.206 -0.1127 -0.0250  0.0722
   11loPI    C3  163   1.171   0.955  11.474 -0.0716 -0.1519 -0.0196
   11loPI   PO4  164   1.553   0.727  10.929 -0.1826  0.0109  0.0958
   11loPI   GL1  165   1.536   0.882  10.557 -0.0451 -0.1609  0.0111
   11loPI   GL2  166   1.372   0.682  10.345 -0.0861 -0.1511 -0.2653
   11loPI   C1A  167   1.295   1.256  10.323  0.2317  0.1890 -0.1276
   11loPI   C2A  168   1.107   1.624  10.037 -0.0991  0.0614 -0.0230
   11loPI   C3A  169   1.098   1.744   9.585  0.1540 -0.0021 -0.2623
   11loPI   C4A  170   1.133   1.595   9.154  0.0909  0.1159 -0.0773
   11loPI   C5A  171   1.053   1.539   8.760 -0.1333 -0.1157 -0.0050
   11loPI   C6A  172   1.065   1.453   8.324  0.2954 -0.1928 -0.2188
   11loPI   C1B  173   1.378   0.836  10.026 -0.0299 -0.0840 -0.0003
   11loPI   C2B  174   1.359   0.861   9.607  0.0156  0.0654 -0.0857
   11loPI   C3B  175   1.366   0.776   9.169  0.1789 -0.2016  0.0011
   11loPI   C4B  176   1.435   0.678   8.764  0.1040  0.0264  0.1508
   12loPI    C1  177   6.025  16.886  10.742 -0.0554 -0.1298 -0.0231
   12loPI    C2  178   5.936  16.576  10.979 -0.0043 -0.1516 -0.0324
   12loPI    C3  179   6.183  16.863  11.109 -0.3809  0.1048  0.1376
   12loPI   PO4  180   6.047  16.793  10.482  0.0951 -0.1644 -0.1796
   12loPI   GL1  181   6.104  16.910  10.057  0.0804  0.0814  0.0224
   12loPI   GL2  182   6.257  17.253   9.926  0.1249  0.0469 -0.1401
   12loPI   C1A  183   6.227  16.822   9.654  0.0925  0.2721 -0.1221
   12loPI   C2A  184   6.309  16.905   9.200  0.1149  0.1294 -0.1242
   12loPI   C3A  185   5.986  16.943   8.890 -0.0240 -0.2555 -0.1437
   12loPI   C4A  186   5.894  16.952   8.432  0.2616 -0.1510  0.2377
   12loPI   C5A  187   5.996  17.091   8.100  0.0295 -0.3239  0.0342
   12loPI   C6A  188   6.339  16.958   7.753  0.0081 -0.2339  0.1334
   12loPI   C1B  189   6.254  17.350   9.508  0.0018 -0.4262  0.2773
   12loPI   C2B  190   6.278  17.364   9.124 -0.0039  0.1995  0.3896
   12loPI   C3B  191   6.241  17.381   8.699 -0.0060  0.1956  0.1871
   12loPI   C4B  192   6.431  17.382   8.262 -0.0086  0.0553 -0.1335
   13loPI    C1  193  12.074   9.219  10.689  0.0169 -0.0375 -0.0087
   13loPI    C2  194  12.232   9.069  11.025  0.0453  0.1658  0.0699
   13loPI    C3  195  11.899   9.290  11.042 -0.0009  0.1056 -0.0458
   13loPI   PO4  196  12.070   9.050  10.552  0.3818  0.1306  0.0752
   13loPI   GL1  197  12.023   8.813  10.123 -0.1347 -0.1957  0.0626
   13loPI   GL2  198  11.771   9.008  10.152  0.1018 -0.1523 -0.2026
   13loPI   C1A  199  12.274   8.696   9.744  0.0233 -0.0776  0.1520
   13loPI   C2A  200  12.454   8.615   9.352  0.3266 -0.2417  0.0961
   13loPI   C3A  201  12.560   8.579   8.939  0.2451 -0.1403 -0.2417
   13loPI   C4A  202  12.478   8.418   8.523  0.1605  0.0996 -0.2439
   13loPI   C5A  203  12.176   8.200   8.282 -0.1068 -0.1142  0.0273
   13loPI   C6A  204  11.797   8.279   8.013 -0.2176 -0.1479 -0.0690
   13loPI   C1B  205  11.879   9.012   9.644  0.2028 -0.1444  0.0894
   13loPI   C2B  206  11.967   8.838   9.140 -0.2579  0.1336 -0.1366
   13loPI   C3B  207  12.043   8.756   8.759 -0.3678  0.0489 -0.0297
   13loPI   C4B  208  11.894   8.551   8.426 -0.4717  0.3245 -0.1149
   14loPI    C1  209   1.004  10.762  10.627 -0.0554 -0.0876 -0.0876
   14loPI    C2  210   0.641  10.906  10.714  0.0164  0.0090  0.0562
   14loPI    C3  211   0.952  10.993  10.949  0.2008  0.2080 -0.2533
   14loPI   PO4  212   1.090  10.810  10.375  0.0883  0.0676 -0.3659
   14loPI   GL1  213   1.363  10.835  10.112 -0.3704 -0.1755 -0.0229
   14loPI   GL2  214   1.644  10.722  10.067 -0.0875  0.1429  0.1033
   14loPI   C1A  215   1.476  11.159   9.818  0.1130 -0.1964  0.0203
   14loPI   C2A  216   1.700  11.431   9.490  0.0307 -0.0705  0.0516
   14loPI   C3A  217   1.801  11.473   9.106  0.1335 -0.1080 -0.0895
   14loPI   C4A  218   1.624  11.463   8.708 -0.2350 -0.0428  0.0060
   14loPI   C5A  219   1.549  11.376   8.266 -0.1548 -0.3354  0.1463
   14loPI   C6A  220   1.357  11.740   7.991  0.1946 -0.2519 -0.1666
   14loPI   C1B  221   1.864  10.778   9.599  0.1289  0.0267  0.1411
   14loPI   C2B  222   2.079  10.621   9.274 -0.0482 -0.0023  0.1627
   14loPI   C3B  223   2.039  10.663   8.838  0.1694 -0.1090  0.3274
   14loPI   C4B  224   2.205  10.657   8.378 -0.0510 -0.3510 -0.2210
   15loPI    C1  225  13.838  15.433  10.798  0.1716 -0.0353 -0.0761
   15loPI    C2  226  13.902  15.497  11.188  0.1224  0.3764 -0.1308
   15loPI    C3  227  13.543  15.372  11.062  0.1528  0.1951 -0.0419
   15loPI   PO4  228  13.936  15.803  10.665 -0.0642 -0.3191  0.1091
   15loPI   GL1  229  13.763  16.006  10.358  0.0708 -0.2706  0.1786
   15loPI   GL2  230  13.492  16.104  10.276  0.0082 -0.0121  0.0419
   15loPI   C1A  231  13.923  15.936   9.938  0.1206  0.3522 -0.1025
   15loPI   C2A  232  13.991  16.242   9.680 -0.3714  0.0603 -0.0227
   15loPI   C3A  233  14.049  16.512   9.366 -0.1901 -0.0462  0.0691
   15loPI   C4A  234  14.006  16.564   8.887  0.1357  0.0818  0.2261
   15loPI   C5A  235  13.971  16.556   8.433 -0.0880  0.0353 -0.0324
   15loPI   C6A  236  13.691  16.374   8.086  0.1397 -0.0883 -0.0270
   15loPI   C1B  237  13.457  16.332   9.919 -0.2114 -0.1672  0.0584
   15loPI   C2B  238  13.532  16.317   9.495  0.3605 -0.0532  0.2491
   15loPI   C3B  239  13.563  16.380   9.054  0.1019  0.2149  0.0768
   15loPI   C4B  240  13.565  16.208   8.560  0.0611 -0.0450  0.0173
   16loPI    C1  241  13.889  17.766  11.206 -0.2297  0.1680  0.0340
   16loPI    C2  242  13.742  17.437  11.380  0.1442  0.0830  0.1993
   16loPI    C3  243  13.760  17.780  11.584 -0.1071  0.1718  0.0762
   16loPI   PO4  244  13.754  17.699  10.929  0.0985 -0.0193 -0.1767
   16loPI   GL1  245  13.890  17.550  10.528  0.1050  0.0580  0.1578
   16loPI   GL2  246  13.945  17.888  10.458 -0.0708 -0.1424 -0.1715
   16loPI   C1A  247  14.085  17.591  10.082 -0.0583  0.0192 -0.1732
   16loPI   C2A  248  14.189  17.520   9.599  0.2895  0.0643  0.2340
   16loPI   C3A  249  14.188  17.500   9.139  0.0840 -0.0970 -0.0230
   16loPI   C4A  250  14.281  17.447   8.695  0.0340 -0.0906 -0.1492
   16loPI   C5A  251  14.689  17.201   8.444 -0.4862  0.0352 -0.0842
   16loPI   C6A  252  15.050  17.007   8.230 -0.2729 -0.2435 -0.1319
   16loPI   C1B  253  13.686  17.889  10.151 -0.0827  0.1661  0.0445
   16loPI   C2B  254  13.793  17.894   9.731  0.3854 -0.0951 -0.1378
   16loPI   C3B  255  13.820  17.842   9.313 -0.0871 -0.0796 -0.0842
   16loPI   C4B  256  13.873  17.819   8.861 -0.3296 -0.0327 -0.1290
   17loPI    C1  257   1.012   9.786  10.779 -0.0034 -0.2524  0.0208
   17loPI    C2  258   0.733   9.895  11.045  0.1581 -0.0537  0.1120
   17loPI    C3  259   1.107   9.821  11.166  0.2280  0.0184 -0.0572
   17loPI   PO4  260   0.823   9.568  10.645  0.0739  0.0525 -0.2424
   17loPI   GL1  261   0.794   9.659  10.184  0.0067  0.0328 -0.0454
   17loPI   GL2  262   1.000   9.911  10.236 -0.1512 -0.0422  0.2241
   17loPI   C1A  263   0.774   9.741   9.705 -0.2106  0.0461  0.0512
   17loPI   C2A  264   0.822   9.962   9.343 -0.0501 -0.1235 -0.1304
   17loPI   C3A  265   0.622  10.293   9.302 -0.0662 -0.1803  0.1140
   17loPI   C4A  266   0.490  10.560   9.007  0.1402 -0.0725 -0.2968
   17loPI   C5A  267   0.682  10.468   8.654 -0.0637  0.1978  0.1101
   17loPI   C6A  268   0.944  10.509   8.416  0.1851 -0.1963  0.1758
   17loPI   C1B  269   1.206   9.942   9.790  0.0059 -0.1030  0.0448
   17loPI   C2B  270   1.320   9.998   9.231 -0.0371  0.4044  0.0325
   17loPI   C3B  271   1.409  10.101   8.781 -0.0422 -0.1183 -0.2569
   17loPI   C4B  272   1.235  10.073   8.416  0.1205 -0.1158 -0.0728
   18loPI    C1  273   7.938  14.955  10.394 -0.1772 -0.1978 -0.1989
   18loPI    C2  274   7.981  14.911  10.790  0.2382  0.2494 -0.1853
   18loPI    C3  275   7.620  14.987  10.636  0.0797  0.1105  0.1095
   18loPI   PO4  276   8.117  14.815  10.308 -0.2787 -0.0700  0.2162
   18loPI   GL1  277   8.071  14.507  10.027 -0.3480  0.0224 -0.0648
   18loPI   GL2  278   8.274  14.315   9.885 -0.3143  0.0485  0.0125
   18loPI   C1A  279   8.178  14.747   9.592 -0.2314  0.4108  0.0821
   18loPI   C2A  280   8.172  14.896   9.076  0.0623  0.3472  0.0708
   18loPI   C3A  281   8.198  14.811   8.592  0.0256  0.2236  0.0959
   18loPI   C4A  282   8.378  14.667   8.220  0.3433  0.1660 -0.0337
   18loPI   C5A  283   8.630  14.941   7.924 -0.3002 -0.1931 -0.0701
   18loPI   C6A  284   8.902  15.291   8.131 -0.0251 -0.2320  0.3557
   18loPI   C1B  285   8.028  14.146   9.529 -0.2700  0.1084 -0.1872
   18loPI   C2B  286   7.900  14.107   9.023  0.1090  0.2308 -0.1512
   18loPI   C3B  287   7.727  14.089   8.614 -0.1114 -0.0310 -0.0294
   18loPI   C4B  288   7.426  14.340   8.319  0.1456  0.0151  0.1574
   19loPI    C1  289  14.306   7.330  10.561  0.0493 -0.0457  0.1103
   19loPI    C2  290  14.573   7.094  10.743  0.2230 -0.0784 -0.1785
   19loPI    C3  291  14.632   7.489  10.731 -0.0611 -0.0129  0.2935
   19loPI   PO4  292  14.205   7.089  10.415 -0.1380 -0.0411  0.2611
   19loPI   GL1  293  13.977   6.946  10.030 -0.0837 -0.1036  0.0862
   19loPI   GL2  294  13.747   7.074  10.058  0.0227 -0.2572 -0.2774
   19loPI   C1A  295  14.097   6.969   9.602  0.1556  0.0013 -0.0900
   19loPI   C2A  296  14.051   6.954   9.209 -0.0657 -0.0106  0.1394
   19loPI   C3A  297  14.039   7.038   8.806 -0.0792  0.0050  0.2299
   19loPI   C4A  298  14.203   7.110   8.333  0.2197  0.1519 -0.0376
   19loPI   C5A  299  13.975   7.114   7.897 -0.2369  0.0370 -0.1559
   19loPI   C6A  300  13.589   7.365   7.696 -0.0350  0.0663 -0.2556
   19loPI   C1B  301  13.634   7.181   9.699 -0.2309  0.3786 -0.0851
   19loPI   C2B  302  13.607   7.152   9.216 -0.0741 -0.0762 -0.0634
   19loPI   C3B  303  13.548   7.114   8.787 -0.1013 -0.2465 -0.0877
   19loPI   C4B  304  13.583   7.213   8.409 -0.2587  0.0750  0.1761
   20loPI    C1  305   9.696   4.733  10.782 -0.2989  0.0134 -0.0814
   20loPI    C2  306   9.493   4.985  10.546 -0.2486  0.0782 -0.0561
   20loPI    C3  307   9.364   4.910  10.918 -0.1433  0.2377  0.0134
   20loPI   PO4  308   9.769   4.564  10.681  0.1737  0.0898 -0.2957
   20loPI   GL1  309   9.828   4.672  10.234 -0.2623 -0.0509 -0.0958
   20loPI   GL2  310  10.035   4.384  10.215 -0.0592  0.0064 -0.0661
   20loPI   C1A  311   9.847   4.869   9.835 -0.1107 -0.0350  0.1434
   20loPI   C2A  312   9.905   4.858   9.418  0.0406  0.2020 -0.0380
   20loPI   C3A  313   9.753   4.704   9.070  0.0372  0.0351  0.1522
   20loPI   C4A  314   9.773   4.693   8.704  0.3038  0.1301 -0.1229
   20loPI   C5A  315   9.803   4.635   8.297 -0.1807  0.1414 -0.0650
   20loPI   C6A  316   9.707   4.539   7.911  0.1980 -0.0700 -0.0562
   20loPI   C1B  317   9.961   4.358   9.753 -0.2465  0.1144  0.0351
   20loPI   C2B  318   9.933   4.335   9.349 -0.1458  0.3457 -0.0301
   20loPI   C3B  319   9.846   4.121   9.014 -0.0142 -0.2699  0.0242
   20loPI   C4B  320   9.755   4.165   8.542  0.3607  0.1109  0.0434
   21loPI    C1  321  15.726   8.064  10.794 -0.0446 -0.0215 -0.0858
   21loPI    C2  322  15.356   8.201  10.857  0.0053  0.0160  0.1326
   21loPI    C3  323  15.421   7.808  10.828 -0.0391  0.0048  0.1832
   21loPI   PO4  324  15.789   8.206  10.589  0.0655 -0.1321 -0.0105
   21loPI   GL1  325  15.643   8.361  10.255  0.0871 -0.0367 -0.0990
   21loPI   GL2  326  15.604   8.564  10.077  0.1708  0.2559 -0.1945
   21loPI   C1A  327  15.790   8.261   9.748 -0.1822 -0.0591  0.0128
   21loPI   C2A  328  15.669   8.293   9.295  0.5105 -0.2686  0.1450
   21loPI   C3A  329  15.627   8.319   8.844 -0.0055  0.1557  0.3316
   21loPI   C4A  330  15.764   8.266   8.354  0.3372 -0.0370 -0.1698
   21loPI   C5A  331  15.972   7.872   8.175  0.2334 -0.2629  0.2339
   21loPI   C6A  332  16.370   7.840   8.099 -0.1350 -0.1586  0.1177
   21loPI   C1B  333  15.554   8.721   9.687 -0.1101  0.2063 -0.1788
   21loPI   C2B  334  15.496   8.760   9.220  0.0006 -0.0800  0.0635
   21loPI   C3B  335  15.550   8.879   8.787 -0.2496  0.1998 -0.1279
   21loPI   C4B  336  15.557   8.725   8.427 -0.3846  0.1314 -0.0822
   22loPI    C1  337   1.479   9.975  10.778 -0.0428 -0.0627 -0.0135
   22loPI    C2  338   1.683  10.312  10.846 -0.0041 -0.0939  0.0263
   22loPI    C3  339   1.602  10.064  11.148  0.1725 -0.2361 -0.0413
   22loPI   PO4  340   1.443   9.944  10.573 -0.2048  0.0696 -0.0984
   22loPI   GL1  341   1.534   9.904  10.207  0.2364 -0.1622 -0.1142
   22loPI   GL2  342   1.636  10.170  10.036 -0.0656  0.1288 -0.0085
   22loPI   C1A  343   1.711   9.825   9.691  0.2724 -0.0984  0.1541
   22loPI   C2A  344   1.703   9.658   9.318 -0.1843 -0.4209 -0.1415
   22loPI   C3A  345   1.468   9.653   8.940 -0.1229 -0.1481 -0.5107
   22loPI   C4A  346   1.179   9.601   8.612 -0.2609  0.0243  0.1205
   22loPI   C5A  347   0.831   9.679   8.371  0.0451 -0.0846  0.0728
   22loPI   C6A  348   0.575  10.066   8.256  0.1165  0.1633  0.2859
   22loPI   C1B  349   1.572  10.263   9.572  0.3503  0.2728 -0.1820
   22loPI   C2B  350   1.530  10.565   9.144  0.0516  0.4064 -0.1283
   22loPI   C3B  351   1.523  10.581   8.695  0.0208 -0.3597 -0.2411
   22loPI   C4B  352   1.532  10.442   8.253  0.0453 -0.1215  0.0553
   23loPI    C1  353  17.652  15.890  10.785 -0.0367  0.1190  0.1065
   23loPI    C2  354  17.309  15.913  10.989 -0.1770 -0.0055 -0.1126
   23loPI    C3  355  17.605  15.680  11.122 -0.1824  0.0891  0.0682
   23loPI   PO4  356  17.634  16.197  10.754  0.0954 -0.1662  0.0595
   23loPI   GL1  357  17.685  16.409  10.310  0.1324  0.0102  0.3408
   23loPI   GL2  358  17.372  16.437  10.413  0.0547 -0.0998  0.0036
   23loPI   C1A  359  17.569  16.283   9.949 -0.2736 -0.0671 -0.0958
   23loPI   C2A  360  17.636  16.291   9.578  0.4179  0.2567  0.3828
   23loPI   C3A  361  17.610  16.353   9.066  0.0726  0.1683 -0.0960
   23loPI   C4A  362  17.640  16.293   8.647 -0.0253 -0.0931  0.1165
   23loPI   C5A  363  17.584  15.963   8.405 -0.1284 -0.2352  0.1163
   23loPI   C6A  364  17.553  15.624   8.429  0.2114  0.1433  0.0859
   23loPI   C1B  365  17.181  16.649  10.047  0.1194  0.0816 -0.0242
   23loPI   C2B  366  17.196  16.614   9.660 -0.0777 -0.2109  0.0630
   23loPI   C3B  367  17.292  16.690   9.259  0.3670  0.0310 -0.0525
   23loPI   C4B  368  17.221  16.618   8.869  0.0305 -0.0636  0.0961
   24loPI    C1  369   0.853   4.701  10.372 -0.1428  0.0131 -0.1844
   24loPI    C2  370   0.818   5.070  10.520  0.1496  0.0098 -0.1016
   24loPI    C3  371   0.966   4.777  10.748  0.3764 -0.0490 -0.3203
   24loPI   PO4  372   0.935   4.775  10.103  0.1174  0.3452  0.0307
   24loPI   GL1  373   0.777   4.924   9.701 -0.2113 -0.0126 -0.0868
   24loPI   GL2  374   1.056   5.052   9.608 -0.1185  0.1183 -0.1677
   24loPI   C1A  375   0.661   4.938   9.289  0.4829  0.3298  0.1102
   24loPI   C2A  376   0.708   4.671   8.935 -0.1256  0.1616  0.0859
   24loPI   C3A  377   0.961   4.545   8.523  0.1427  0.2010  0.2407
   24loPI   C4A  378   1.350   4.516   8.249  0.2537  0.0252  0.1926
   24loPI   C5A  379   1.700   4.622   7.935  0.0740 -0.1720  0.1153
   24loPI   C6A  380   2.020   4.428   7.698  0.1746 -0.1038  0.2627
   24loPI   C1B  381   1.206   5.243   9.221  0.1259 -0.2362  0.0426
   24loPI   C2B  382   1.186   5.448   8.821  0.5655 -0.0633  0.0820
   24loPI   C3B  383   0.819   5.704   8.644 -0.0657  0.1263  0.1488
   24loPI   C4B  384   0.626   5.885   8.234 -0.0737 -0.0539 -0.1107
   25loPI    C1  385  14.394   9.540  10.878  0.1609  0.1121 -0.1304
   25loPI    C2  386  14.417   9.380  11.244 -0.0149  0.0029 -0.1656
   25loPI    C3  387  14.146   9.664  11.167  0.1559  0.1692 -0.1592
   25loPI   PO4  388  14.412   9.357  10.619 -0.2023 -0.0620 -0.0737
   25loPI   GL1  389  14.534   9.350  10.169 -0.1713  0.3026 -0.0283
   25loPI   GL2  390  14.673   9.625  10.106 -0.0688  0.2909 -0.1582
   25loPI   C1A  391  14.596   9.192   9.643 -0.2949 -0.0781  0.0802
   25loPI   C2A  392  14.545   9.241   9.199  0.1600 -0.2348 -0.1801
   25loPI   C3A  393  14.670   9.216   8.736  0.3301 -0.1369  0.2618
   25loPI   C4A  394  14.438   9.159   8.402  0.1751  0.0517  0.1807
   25loPI   C5A  395  14.228   9.277   8.016  0.2001 -0.1056  0.0600
   25loPI   C6A  396  13.905   9.329   7.740  0.0440 -0.3551  0.1772
   25loPI   C1B  397  14.520   9.662   9.658  0.2729 -0.0469 -0.3082
   25loPI   C2B  398  14.365   9.733   9.263 -0.1233 -0.0963 -0.1745
   25loPI   C3B  399  14.488   9.753   8.845 -0.2483  0.2568 -0.0799
   25loPI   C4B  400  14.434   9.711   8.445 -0.0851 -0.2412 -0.1840
   26loPI    C1  401   7.799   2.017  10.636 -0.0049 -0.1789  0.0711
   26loPI    C2  402   7.743   2.092  11.025  0.2317 -0.3249  0.1353
   26loPI    C3  403   7.892   2.376  10.786 -0.3775 -0.0666  0.0438
   26loPI   PO4  404   7.824   1.782  10.634  0.0261  0.1976  0.0319
   26loPI   GL1  405   7.974   1.586  10.218 -0.1963 -0.0583  0.1065
   26loPI   GL2  406   7.948   1.882  10.116  0.0301  0.0444 -0.0181
   26loPI   C1A  407   7.603   1.529   9.960 -0.2294 -0.1159 -0.0264
   26loPI   C2A  408   7.607   1.573   9.430  0.1251  0.2932  0.0761
   26loPI   C3A  409   7.814   1.675   9.014 -0.3760 -0.2152  0.1702
   26loPI   C4A  410   7.804   1.578   8.628 -0.0881 -0.1933  0.1507
   26loPI   C5A  411   7.853   1.405   8.263 -0.0887  0.0280  0.2156
   26loPI   C6A  412   7.792   1.198   7.801  0.3989  0.1361  0.1706
   26loPI   C1B  413   7.990   1.838   9.670 -0.0467 -0.1394  0.0991
   26loPI   C2B  414   8.085   1.945   9.242 -0.1355  0.0928  0.1903
   26loPI   C3B  415   8.302   1.878   8.735 -0.1092  0.0216 -0.1083
   26loPI   C4B  416   8.344   2.059   8.354  0.0370  0.0408  0.2776
   27loPI    C1  417   9.024  17.998  10.733  0.2540 -0.0910 -0.0088
   27loPI    C2  418   9.179  17.640  10.821 -0.0456 -0.2143  0.0306
   27loPI    C3  419   8.901  17.802  11.059 -0.1132 -0.0819 -0.1364
   27loPI   PO4  420   9.029  18.069  10.486  0.1088 -0.0696  0.2083
   27loPI   GL1  421   8.994  18.181  10.091 -0.0365 -0.2959 -0.1696
   27loPI   GL2  422   8.946  17.929   9.965 -0.1954  0.0494  0.0882
   27loPI   C1A  423   8.906  18.236   9.604 -0.0606 -0.2073 -0.2141
   27loPI   C2A  424   8.791  18.341   9.272  0.0804 -0.2195 -0.0280
   27loPI   C3A  425   8.792  18.213   8.852 -0.0289  0.1794 -0.1288
   27loPI   C4A  426   8.862  18.253   8.433 -0.1115  0.1332 -0.0632
   27loPI   C5A  427   8.608  18.259   8.115 -0.2994 -0.1066 -0.1666
   27loPI   C6A  428   8.518  18.497   7.780  0.2533 -0.1533  0.1847
   27loPI   C1B  429   8.854  17.745   9.537 -0.1103  0.0219 -0.1744
   27loPI   C2B  430   8.851  17.688   9.136 -0.0871 -0.1145 -0.0283
   27loPI   C3B  431   8.856  17.626   8.688 -0.3489 -0.1850 -0.0531
   27loPI   C4B  432   8.750  17.768   8.284  0.0264  0.1378 -0.1793
   28loPI    C1  433   9.034  12.637  10.854 -0.3632 -0.0264  0.0267
   28loPI    C2  434   9.081  12.295  11.055  0.1683  0.0122 -0.0155
   28loPI    C3  435   8.886  12.601  11.224 -0.0459 -0.2058  0.1404
   28loPI   PO4  436   9.066  12.594  10.556  0.1079  0.2050 -0.1796
   28loPI   GL1  437   9.293  12.344  10.326 -0.4095 -0.1959 -0.3268
   28loPI   GL2  438   9.027  12.089  10.453  0.1052 -0.0708  0.0061
   28loPI   C1A  439   9.167  12.249   9.911 -0.0103 -0.1249  0.4063
   28loPI   C2A  440   9.070  12.370   9.473 -0.0534  0.1354  0.0775
   28loPI   C3A  441   8.924  12.446   9.144  0.1938 -0.0137  0.4017
   28loPI   C4A  442   9.016  12.572   8.776  0.2039  0.4060  0.3612
   28loPI   C5A  443   9.222  12.285   8.410 -0.0838 -0.1970 -0.1616
   28loPI   C6A  444   9.384  11.889   8.246  0.0558 -0.0458 -0.1944
   28loPI   C1B  445   8.824  11.882  10.079  0.0244 -0.2697 -0.3103
   28loPI   C2B  446   8.421  11.897   9.967  0.2227  0.4158  0.0837
   28loPI   C3B  447   8.216  11.838   9.605 -0.1662  0.3289 -0.1812
   28loPI   C4B  448   8.260  11.780   9.240  0.0424  0.1049  0.1858
   29loPI    C1  449   4.230   9.145  10.435 -0.1567 -0.0341  0.0866
   29loPI    C2  450   4.323   8.978  10.786 -0.2815 -0.1082  0.0849
   29loPI    C3  451   4.375   9.371  10.731  0.1283 -0.1630  0.0488
   29loPI   PO4  452   4.022   9.117  10.407 -0.2514  0.0098 -0.2153
   29loPI   GL1  453   3.820   9.145   9.996  0.1616  0.2414  0.0100
   29loPI   GL2  454   4.030   9.394   9.935  0.2588  0.2306  0.0778
   29loPI   C1A  455   3.818   9.193   9.548 -0.2670  0.0672 -0.0954
   29loPI   C2A  456   3.850   9.153   9.131  0.2641 -0.2150  0.1627
   29loPI   C3A  457   3.692   8.926   8.789  0.1176  0.0492  0.0184
   29loPI   C4A  458   3.424   8.869   8.375 -0.2835  0.0707  0.0042
   29loPI   C5A  459   3.067   9.026   8.113 -0.1674  0.0759  0.1642
   29loPI   C6A  460   2.792   9.165   7.862 -0.2047  0.0088 -0.0749
   29loPI   C1B  461   4.169   9.552   9.523  0.0368  0.3122  0.1306
   29loPI   C2B  462   4.049   9.627   9.172  0.1139 -0.1878 -0.0591
   29loPI   C3B  463   4.202   9.685   8.706  0.2262 -0.2027  0.1924
   29loPI   C4B  464   4.433  10.077   8.692  0.0212 -0.1244  0.2392
   30loPI    C1  465  11.855   5.713  10.988 -0.0367  0.1334 -0.1323
   30loPI    C2  466  11.873   5.397  10.743  0.0316  0.0031  0.0386
   30loPI    C3  467  11.758   5.349  11.123  0.0889  0.1769  0.0788
   30loPI   PO4  468  11.710   5.894  10.820 -0.2878 -0.5269  0.1163
   30loPI   GL1  469  11.635   6.019  10.425 -0.2692 -0.1470  0.1832
   30loPI   GL2  470  11.533   6.255  10.185 -0.2364 -0.0014  0.0707
   30loPI   C1A  471  11.247   5.860  10.174  0.0831 -0.1629  0.3103
   30loPI   C2A  472  11.111   5.833   9.725 -0.0832  0.4431  0.0344
   30loPI   C3A  473  11.003   5.831   9.318  0.0356 -0.0206  0.2521
   30loPI   C4A  474  10.988   5.800   8.855  0.3666 -0.0577  0.2731
   30loPI   C5A  475  10.907   5.781   8.500  0.0144  0.2057 -0.1271
   30loPI   C6A  476  10.766   5.562   8.202  0.0972 -0.0430 -0.2326
   30loPI   C1B  477  11.554   6.146   9.742  0.4044 -0.6273  0.1478
   30loPI   C2B  478  11.419   6.200   9.312 -0.1581  0.4503  0.0084
   30loPI   C3B  479  11.410   6.071   8.909 -0.1559 -0.2205  0.1022
   30loPI   C4B  480  11.420   6.116   8.496 -0.1500 -0.0224 -0.0906
   31loPI    C1  481  14.303  15.247  10.908  0.4804 -0.0647 -0.1007
   31loPI    C2  482  14.311  15.642  10.973  0.0924 -0.0938  0.1599
   31loPI    C3  483  14.469  15.392  11.242  0.0339 -0.1321  0.1589
   31loPI   PO4  484  14.296  15.238  10.659  0.0455  0.1838  0.1128
   31loPI   GL1  485  14.488  15.223  10.259 -0.1443  0.4423  0.0477
   31loPI   GL2  486  14.510  14.983  10.123  0.1584  0.2782  0.0653
   31loPI   C1A  487  14.662  15.331   9.810 -0.1718 -0.1279  0.3203
   31loPI   C2A  488  14.710  15.320   9.406  0.0986 -0.3556  0.2082
   31loPI   C3A  489  14.585  15.374   9.028 -0.0304 -0.3549 -0.0179
   31loPI   C4A  490  14.738  15.326   8.643  0.0378 -0.0839  0.1372
   31loPI   C5A  491  14.664  15.537   8.298  0.0104  0.2737 -0.0843
   31loPI   C6A  492  14.502  15.886   8.165 -0.0570  0.2381  0.0646
   31loPI   C1B  493  14.441  14.752   9.700 -0.2649  0.0942 -0.2478
   31loPI   C2B  494  14.454  14.872   9.301 -0.0144 -0.0142 -0.3694
   31loPI   C3B  495  14.216  14.824   8.951  0.2745 -0.2239  0.0848
   31loPI   C4B  496  14.172  15.250   8.780  0.3492  0.1640  0.3198
   32loPI    C1  497  13.201   3.057  10.136 -0.0848  0.1223 -0.0120
   32loPI    C2  498  13.079   3.146  10.506 -0.2446  0.0939 -0.0571
   32loPI    C3  499  13.268   2.801  10.436  0.0911  0.2498  0.0595
   32loPI   PO4  500  13.047   3.201   9.965 -0.0725 -0.1919 -0.3768
   32loPI   GL1  501  13.077   3.040   9.608  0.3000  0.0365  0.2759
   32loPI   GL2  502  13.114   3.403   9.521 -0.2291 -0.2105 -0.0829
   32loPI   C1A  503  12.924   3.013   9.205  0.4230 -0.0893 -0.3322
   32loPI   C2A  504  12.853   3.177   8.793  0.0248 -0.3175 -0.1007
   32loPI   C3A  505  12.928   3.036   8.415 -0.0071 -0.2796 -0.3838
   32loPI   C4A  506  12.950   3.043   8.007  0.1606  0.2830 -0.0212
   32loPI   C5A  507  13.085   2.708   7.734 -0.0489  0.1078 -0.2700
   32loPI   C6A  508  13.340   2.258   7.746  0.0088 -0.2772  0.3589
   32loPI   C1B  509  12.793   3.520   9.287 -0.0079 -0.2001 -0.0039
   32loPI   C2B  510  12.731   3.687   8.830  0.0498  0.0696 -0.4691
   32loPI   C3B  511  12.573   3.656   8.520 -0.0959 -0.0368  0.0385
   32loPI   C4B  512  12.667   3.392   8.143 -0.2546 -0.0113 -0.2288
   33loPI    C1  513   3.597  16.962  10.833 -0.0970  0.0057  0.1619
   33loPI    C2  514   3.830  16.672  10.980  0.0129  0.0401  0.0577
   33loPI    C3  515   3.722  16.979  11.212  0.2140  0.1121  0.0579
   33loPI   PO4  516   3.520  16.905  10.643 -0.1389  0.2310  0.2332
   33loPI   GL1  517   3.100  16.854  10.374  0.1546  0.0092  0.0123
   33loPI   GL2  518   3.221  17.096  10.249  0.2166  0.0767  0.1083
   33loPI   C1A  519   2.788  16.792  10.140 -0.0399 -0.0182  0.1904
   33loPI   C2A  520   2.855  16.616   9.736 -0.0053 -0.1042 -0.0459
   33loPI   C3A  521   2.731  16.534   9.253 -0.0005  0.3902  0.3335
   33loPI   C4A  522   2.773  16.563   8.819 -0.1922 -0.0904  0.3020
   33loPI   C5A  523   2.763  16.411   8.509 -0.0308  0.2687 -0.2155
   33loPI   C6A  524   2.851  16.589   8.124  0.4612  0.3097 -0.2926
   33loPI   C1B  525   3.107  17.090   9.802  0.0927 -0.0301 -0.0790
   33loPI   C2B  526   2.952  17.055   9.402 -0.1833 -0.1919 -0.0360
   33loPI   C3B  527   2.856  17.025   8.984  0.0961  0.1559 -0.1001
   33loPI   C4B  528   2.941  16.923   8.544  0.0260  0.0395  0.2333
   34loPI    C1  529   9.179   3.343  10.257 -0.0173 -0.0045 -0.0448
   34loPI    C2  530   9.211   3.734  10.337 -0.0020 -0.0467  0.1601
   34loPI    C3  531   9.335   3.464  10.605 -0.0706 -0.1928  0.0458
   34loPI   PO4  532   9.376   3.282  10.044 -0.0743  0.2467  0.1850
   34loPI   GL1  533   9.336   3.086   9.707 -0.2772 -0.0853  0.1051
   34loPI   GL2  534   9.592   2.868   9.742 -0.0927 -0.1225 -0.1591
   34loPI   C1A  535   9.489   3.323   9.273 -0.1515  0.0222 -0.1286
   34loPI   C2A  536   9.538   3.300   8.897  0.0149  0.0748 -0.2130
   34loPI   C3A  537   9.824   3.392   8.564 -0.2167 -0.1018  0.3587
   34loPI   C4A  538  10.193   3.288   8.069  0.0009  0.3400  0.1607
   34loPI   C5A  539  10.602   3.102   7.865  0.1979 -0.0438 -0.0640
   34loPI   C6A  540  11.089   3.011   7.818 -0.3308  0.0921 -0.0320
   34loPI   C1B  541   9.789   2.938   9.379 -0.0769  0.0875  0.1983
   34loPI   C2B  542   9.939   2.974   8.969  0.0339  0.1090  0.0486
   34loPI   C3B  543  10.152   2.928   8.465  0.0066 -0.1044  0.2321
   34loPI   C4B  544  10.271   2.845   8.074 -0.1516  0.1749  0.1637
   35loPI    C1  545  13.454   8.217  10.994 -0.1715  0.1386  0.2570
   35loPI    C2  546  13.235   7.905  11.115 -0.0195 -0.0939 -0.0507
   35loPI    C3  547  13.595   7.970  11.275  0.0074 -0.1587 -0.0846
   35loPI   PO4  548  13.430   8.171  10.717 -0.2869 -0.2575 -0.1426
   35loPI   GL1  549  13.737   8.003  10.477  0.0516  0.0586  0.0718
   35loPI   GL2  550  13.571   7.727  10.284 -0.0972 -0.1897 -0.0480
   35loPI   C1A  551  13.879   8.046  10.063 -0.1372 -0.0744  0.0624
   35loPI   C2A  552  13.951   7.928   9.675 -0.0325  0.4552  0.0871
   35loPI   C3A  553  13.971   7.993   9.278  0.2423 -0.0173 -0.1804
   35loPI   C4A  554  13.967   8.022   8.751 -0.3594  0.2034  0.1970
   35loPI   C5A  555  13.714   7.975   8.290 -0.0888  0.0132  0.0575
   35loPI   C6A  556  13.525   7.661   8.124 -0.1041 -0.1795 -0.3710
   35loPI   C1B  557  13.516   7.625   9.824  0.0087 -0.0627 -0.2046
   35loPI   C2B  558  13.447   7.690   9.415 -0.0159  0.1727  0.0786
   35loPI   C3B  559  13.435   7.655   9.072  0.0827 -0.2907 -0.1314
   35loPI   C4B  560  13.524   7.639   8.658  0.2871  0.0290  0.1596
   36loPI    C1  561   5.551   2.292  10.792  0.2795 -0.1323  0.1343
   36loPI    C2  562   5.936   2.240  10.697  0.3131 -0.0357  0.2163
   36loPI    C3  563   5.806   2.145  11.063  0.2394 -0.1555  0.1595
   36loPI   PO4  564   5.511   2.316  10.449  0.2423 -0.1160  0.2827
   36loPI   GL1  565   5.571   2.306  10.023 -0.0693 -0.0834  0.4302
   36loPI   GL2  566   5.199   2.123  10.095  0.1466 -0.0492  0.0512
   36loPI   C1A  567   5.806   2.493   9.732 -0.2231  0.0739  0.2656
   36loPI   C2A  568   5.789   2.437   9.426 -0.2785 -0.3099 -0.1227
   36loPI   C3A  569   5.651   2.601   8.967 -0.1334  0.0088  0.1036
   36loPI   C4A  570   5.841   2.846   8.642 -0.1555  0.1788 -0.1330
   36loPI   C5A  571   5.558   3.120   8.421  0.2156  0.1604 -0.0447
   36loPI   C6A  572   5.380   3.448   8.078  0.0579  0.0930 -0.0724
   36loPI   C1B  573   5.457   2.008   9.651 -0.0960  0.0237 -0.0526
   36loPI   C2B  574   5.559   2.100   9.115  0.2217 -0.0780 -0.2528
   36loPI   C3B  575   5.347   2.325   8.711  0.0334  0.0455 -0.0157
   36loPI   C4B  576   5.478   2.614   8.411  0.1774 -0.1776 -0.1181
   37loPI    C1  577  16.651  10.664  10.436 -0.1606  0.0225 -0.0048
   37loPI    C2  578  16.963  10.860  10.281 -0.0065 -0.1054  0.1402
   37loPI    C3  579  16.961  10.760  10.669 -0.3194  0.0746  0.1886
   37loPI   PO4  580  16.543  10.481  10.201 -0.0414 -0.0323  0.1702
   37loPI   GL1  581  16.547  10.194   9.881  0.0284  0.1596  0.1968
   37loPI   GL2  582  16.244   9.974   9.846  0.1071 -0.3353  0.1865
   37loPI   C1A  583  16.636  10.395   9.489 -0.1938 -0.1441  0.0015
   37loPI   C2A  584  16.633  10.485   9.108 -0.0123  0.0400 -0.0432
   37loPI   C3A  585  16.700  10.348   8.655  0.2662  0.2217  0.2428
   37loPI   C4A  586  16.698  10.364   8.159  0.1022  0.1786  0.1342
   37loPI   C5A  587  16.897  10.240   7.787 -0.3287  0.0152  0.1549
   37loPI   C6A  588  17.008  10.184   7.318  0.1403  0.0983 -0.3010
   37loPI   C1B  589  16.241  10.102   9.380  0.2059  0.1209  0.2474
   37loPI   C2B  590  16.261  10.068   8.885  0.0624  0.0665  0.2251
   37loPI   C3B  591  16.397   9.954   8.493 -0.2786 -0.2652 -0.2578
   37loPI   C4B  592  16.371   9.711   8.189 -0.3083 -0.0071  0.3198
   38loPI    C1  593   1.795   4.127  10.272 -0.0195 -0.0126 -0.1657
   38loPI    C2  594   1.979   3.787  10.170  0.1917  0.0311  0.0611
   38loPI    C3  595   1.773   3.808  10.512  0.0344  0.0806 -0.0359
   38loPI   PO4  596   1.657   4.216  10.041  0.2178  0.3359 -0.1558
   38loPI   GL1  597   1.563   4.192   9.700  0.3631 -0.0135  0.1916
   38loPI   GL2  598   1.816   3.910   9.611 -0.2380  0.0163 -0.1682
   38loPI   C1A  599   1.505   4.154   9.327  0.0903  0.1427 -0.1304
   38loPI   C2A  600   1.663   4.111   8.963 -0.1564 -0.0071  0.0951
   38loPI   C3A  601   1.540   4.083   8.514 -0.1886 -0.2886  0.0560
   38loPI   C4A  602   1.248   3.964   8.221 -0.1376 -0.1361  0.1323
   38loPI   C5A  603   0.815   4.142   8.143  0.2001 -0.1168 -0.3476
   38loPI   C6A  604   0.385   4.027   7.914  0.0324 -0.2701 -0.0636
   38loPI   C1B  605   1.881   3.738   9.143  0.3153  0.0732  0.0061
   38loPI   C2B  606   1.860   3.650   8.632 -0.1117 -0.0358  0.2174
   38loPI   C3B  607   1.660   3.691   8.192 -0.4069 -0.2745  0.0635
   38loPI   C4B  608   1.405   3.621   7.866 -0.1251 -0.2172 -0.1883
   39loPI    C1  609  15.038   4.884  10.275 -0.1375 -0.3204 -0.1798
   39loPI    C2  610  14.894   4.725  10.613  0.0023 -0.4290 -0.1702
   39loPI    C3  611  15.289   4.760  10.560 -0.0256  0.0210 -0.1255
   39loPI   PO4  612  14.886   4.919  10.156 -0.0878 -0.1758 -0.0505
   39loPI   GL1  613  14.438   4.949   9.918 -0.1024 -0.2473 -0.0168
   39loPI   GL2  614  14.576   4.810   9.682  0.0831 -0.2972  0.0312
   39loPI   C1A  615  14.351   5.441   9.679  0.1427 -0.3315 -0.0446
   39loPI   C2A  616  14.295   5.528   9.291  0.3997  0.0587  0.3645
   39loPI   C3A  617  14.241   5.530   8.932  0.1438  0.3168 -0.0385
   39loPI   C4A  618  14.206   5.586   8.540  0.0301  0.1327 -0.0119
   39loPI   C5A  619  14.167   5.410   8.147  0.0384 -0.0411 -0.0052
   39loPI   C6A  620  13.880   5.339   7.800 -0.0119  0.3077 -0.1061
   39loPI   C1B  621  14.539   4.703   9.215 -0.2195  0.2500 -0.1962
   39loPI   C2B  622  14.704   4.717   8.924 -0.3207  0.1574  0.0649
   39loPI   C3B  623  14.763   4.931   8.515 -0.2089  0.1913  0.2749
   39loPI   C4B  624  14.783   4.919   8.016  0.0788 -0.1216 -0.1142
   40loPI    C1  625   9.244  16.703  10.988  0.1363 -0.0490  0.0619
   40loPI    C2  626   8.876  16.770  11.130  0.0819  0.2698 -0.2161
   40loPI    C3  627   9.159  16.621  11.370 -0.2573 -0.0952 -0.0308
   40loPI   PO4  628   9.232  16.723  10.761 -0.2252  0.1716 -0.2004
   40loPI   GL1  629   9.082  16.499  10.341  0.1870 -0.2856  0.0773
   40loPI   GL2  630   9.370  16.413  10.148 -0.1957  0.2702  0.0664
   40loPI   C1A  631   8.925  16.424   9.871 -0.2471 -0.2634  0.4087
   40loPI   C2A  632   8.901  16.504   9.453  0.3545  0.4275 -0.2089
   40loPI   C3A  633   8.993  16.620   9.002  0.1094 -0.0504 -0.1786
   40loPI   C4A  634   8.955  16.424   8.455  0.0846 -0.0482 -0.2391
   40loPI   C5A  635   8.990  16.189   8.040 -0.3112  0.0199 -0.2378
   40loPI   C6A  636   8.977  16.312   7.560  0.1301 -0.1296 -0.4173
   40loPI   C1B  637   9.408  16.373   9.737 -0.2161  0.1258 -0.0717
   40loPI   C2B  638   9.378  16.369   9.279 -0.0596 -0.0287  0.1736
   40loPI   C3B  639   9.500  16.307   8.822  0.1367  0.2064 -0.0202
   40loPI   C4B  640   9.382  16.209   8.428  0.2602 -0.2118 -0.2860
   41loPI    C1  641  16.827   3.031  10.486  0.1319  0.2391 -0.2990
   41loPI    C2  642  16.880   3.235  10.826  0.0309 -0.0963 -0.0768
   41loPI    C3  643  16.515   3.206  10.666  0.0270 -0.1896 -0.0510
   41loPI   PO4  644  16.974   3.120  10.341  0.3924 -0.2512  0.1793
   41loPI   GL1  645  17.124   3.385  10.010 -0.3833  0.0417 -0.0865
   41loPI   GL2  646  17.304   3.626  10.019 -0.3465 -0.0121  0.0753
   41loPI   C1A  647  17.212   3.352   9.598 -0.1724  0.1665  0.1526
   41loPI   C2A  648  17.245   3.242   9.150  0.0616  0.0102  0.1107
   41loPI   C3A  649  17.231   3.308   8.795  0.0997 -0.0153  0.1250
   41loPI   C4A  650  17.036   3.255   8.523  0.1833  0.4291 -0.1625
   41loPI   C5A  651  16.900   3.079   8.106 -0.2309 -0.0983  0.0879
   41loPI   C6A  652  16.848   3.074   7.663 -0.1116 -0.0068 -0.0263
   41loPI   C1B  653  17.241   3.810   9.691 -0.0269 -0.0120  0.1699
   41loPI   C2B  654  17.403   3.810   9.289 -0.1195 -0.1661  0.0882
   41loPI   C3B  655  17.520   3.852   8.871 -0.1493  0.2847  0.1290
   41loPI   C4B  656  17.863   3.934   8.603 -0.2983 -0.0444 -0.0886
   42loPI    C1  657   4.284  16.386  10.752  0.0339  0.1321 -0.0807
   42loPI    C2  658   4.065  16.254  11.060 -0.1630  0.1302 -0.2195
   42loPI    C3  659   4.356  16.522  11.121 -0.1219  0.0409 -0.0159
   42loPI   PO4  660   4.143  16.505  10.568  0.0737 -0.0930  0.0268
   42loPI   GL1  661   3.894  16.606  10.224  0.1641  0.0320 -0.0337
   42loPI   GL2  662   3.668  16.869  10.166 -0.1509 -0.3660  0.2938
   42loPI   C1A  663   3.866  16.489   9.858 -0.0152  0.0389  0.1932
   42loPI   C2A  664   3.789  16.403   9.452  0.3296  0.0406 -0.0550
   42loPI   C3A  665   3.573  16.350   9.130 -0.1826  0.0301  0.1442
   42loPI   C4A  666   3.620  16.338   8.722  0.0420 -0.1722 -0.0472
   42loPI   C5A  667   3.877  16.414   8.240  0.1026  0.0466  0.1782
   42loPI   C6A  668   3.877  16.883   8.023 -0.2676  0.2344  0.0349
   42loPI   C1B  669   3.821  16.958   9.712 -0.1433  0.0444 -0.1304
   42loPI   C2B  670   3.814  16.899   9.290 -0.2295  0.0009 -0.1369
   42loPI   C3B  671   3.779  17.001   8.905  0.1827 -0.1686  0.1318
   42loPI   C4B  672   3.785  16.856   8.510 -0.0682  0.3098  0.0041
   43loPI    C1  673  11.609  12.352  10.624 -0.1406  0.1002  0.2542
   43loPI    C2  674  11.583  12.000  10.812  0.0559  0.0726  0.2322
   43loPI    C3  675  11.941  12.166  10.748 -0.0043  0.0641 -0.1492
   43loPI   PO4  676  11.510  12.319  10.387 -0.0132  0.0645 -0.0106
   43loPI   GL1  677  11.486  12.499  10.087  0.0891 -0.0210  0.1356
   43loPI   GL2  678  11.605  12.396   9.813 -0.1417  0.0758  0.0441
   43loPI   C1A  679  11.140  12.631   9.824  0.2598 -0.3903 -0.0135
   43loPI   C2A  680  10.945  12.729   9.396 -0.1568  0.1836  0.0561
   43loPI   C3A  681  10.938  12.900   9.014 -0.0888 -0.1178  0.0979
   43loPI   C4A  682  11.238  13.176   8.824  0.1832 -0.0565  0.1493
   43loPI   C5A  683  11.174  13.375   8.396  0.0514 -0.1235 -0.0860
   43loPI   C6A  684  11.173  13.562   8.083  0.1509  0.0815  0.1595
   43loPI   C1B  685  11.736  12.388   9.382 -0.1529  0.0862 -0.4228
   43loPI   C2B  686  11.598  12.306   8.983 -0.1911  0.2291 -0.1362
   43loPI   C3B  687  11.600  12.395   8.566 -0.2765  0.4064  0.0289
   43loPI   C4B  688  11.593  12.530   8.144 -0.0180 -0.1951 -0.0778
   44loPI    C1  689   0.971   5.849  10.246 -0.2675 -0.1204 -0.1180
   44loPI    C2  690   1.112   5.607  10.530  0.0846  0.2220  0.0076
   44loPI    C3  691   0.724   5.598  10.435  0.0311 -0.1520  0.2397
   44loPI   PO4  692   1.175   5.783  10.059 -0.2286  0.1184 -0.2337
   44loPI   GL1  693   1.270   5.962   9.714 -0.0275  0.0909  0.2257
   44loPI   GL2  694   1.653   5.917   9.599 -0.0181 -0.0382  0.1357
   44loPI   C1A  695   1.258   5.956   9.232 -0.0578 -0.0841 -0.2168
   44loPI   C2A  696   1.367   5.890   8.805 -0.0774  0.0679 -0.0306
   44loPI   C3A  697   1.188   5.955   8.444 -0.0242 -0.2764  0.0056
   44loPI   C4A  698   1.144   5.607   8.134  0.0736  0.2233  0.1535
   44loPI   C5A  699   1.233   5.285   7.778  0.1778 -0.0732  0.1025
   44loPI   C6A  700   1.326   4.829   7.726 -0.0488 -0.1739  0.2858
   44loPI   C1B  701   1.787   5.935   9.117  0.0601 -0.0487  0.1945
   44loPI   C2B  702   1.808   5.984   8.645 -0.2743 -0.0937  0.0474
   44loPI   C3B  703   1.998   6.212   8.304 -0.0147  0.2261 -0.3593
   44loPI   C4B  704   2.327   6.605   8.100  0.0908  0.1159 -0.4022
   45loPI    C1  705  11.448  10.936  10.600  0.2794 -0.0559  0.0511
   45loPI    C2  706  11.410  11.091  10.967  0.0133  0.0921 -0.0361
   45loPI    C3  707  11.224  10.749  10.874  0.1656 -0.0008 -0.0039
   45loPI   PO4  708  11.356  11.078  10.374  0.1168 -0.0474 -0.2933
   45loPI   GL1  709  11.464  11.224  10.011  0.0306 -0.0511 -0.1108
   45loPI   GL2  710  11.793  11.420   9.938 -0.0400 -0.4609 -0.0460
   45loPI   C1A  711  11.159  11.450   9.764 -0.0268 -0.2493  0.1834
   45loPI   C2A  712  11.286  11.466   9.345 -0.1648 -0.0566 -0.1529
   45loPI   C3A  713  11.526  11.787   9.151 -0.2368 -0.0308  0.0355
   45loPI   C4A  714  11.626  11.818   8.681 -0.0633 -0.0343  0.0175
   45loPI   C5A  715  11.378  11.662   8.441 -0.1609 -0.3284  0.0757
   45loPI   C6A  716  11.279  11.526   8.078 -0.0873 -0.0730  0.2531
   45loPI   C1B  717  11.838  11.498   9.457  0.0383  0.3416  0.0410
   45loPI   C2B  718  11.974  11.562   8.975  0.0598  0.1093 -0.0699
   45loPI   C3B  719  12.188  11.727   8.713  0.2509 -0.0665 -0.3274
   45loPI   C4B  720  12.407  11.941   8.309 -0.0939  0.2726  0.0649
   46loPI    C1  721  12.742   8.730  11.162 -0.1728  0.1184 -0.2386
   46loPI    C2  722  13.088   8.912  11.248 -0.2383  0.1483 -0.0322
   46loPI    C3  723  12.869   8.752  11.541 -0.3734  0.0816 -0.1685
   46loPI   PO4  724  12.776   8.589  10.933  0.0102 -0.1169 -0.0361
   46loPI   GL1  725  12.771   8.626  10.491  0.0236  0.2175 -0.2193
   46loPI   GL2  726  12.976   8.476  10.484  0.0773  0.1706  0.4982
   46loPI   C1A  727  12.557   8.837  10.155  0.2602 -0.1241  0.0952
   46loPI   C2A  728  12.831   8.849   9.723  0.1562  0.1606 -0.0187
   46loPI   C3A  729  12.936   8.816   9.261  0.0606  0.0985 -0.3602
   46loPI   C4A  730  12.916   8.908   8.828  0.0744  0.0062  0.1022
   46loPI   C5A  731  12.933   8.763   8.325 -0.0072 -0.1781 -0.2511
   46loPI   C6A  732  13.020   8.728   7.993  0.3527 -0.2710  0.2009
   46loPI   C1B  733  12.829   8.463  10.010  0.0192  0.2103 -0.1371
   46loPI   C2B  734  12.941   8.348   9.589 -0.2691  0.1021  0.0359
   46loPI   C3B  735  13.028   8.411   9.084 -0.3616 -0.1275 -0.2411
   46loPI   C4B  736  12.987   8.399   8.667  0.2789 -0.1355  0.0237
   47loPI    C1  737  16.711  17.899  10.749  0.0030 -0.0613  0.1626
   47loPI    C2  738  16.404  17.969  10.996 -0.0284  0.2893  0.0314
   47loPI    C3  739  16.336  17.889  10.610  0.0338  0.0345  0.0711
   47loPI   PO4  740  16.876  18.077  10.683 -0.0563  0.1360  0.1660
   47loPI   GL1  741  16.985  18.062  10.287  0.1403 -0.1018  0.0846
   47loPI   GL2  742  16.947  18.359  10.125 -0.0798 -0.0524 -0.1559
   47loPI   C1A  743  17.062  18.010   9.833  0.0506 -0.1159  0.0799
   47loPI   C2A  744  17.098  18.031   9.389 -0.0147  0.0459  0.0889
   47loPI   C3A  745  17.032  17.902   9.011  0.1179  0.1043 -0.3685
   47loPI   C4A  746  16.989  17.977   8.534  0.1176  0.2540 -0.1041
   47loPI   C5A  747  17.056  17.908   8.095  0.1020  0.0494 -0.1778
   47loPI   C6A  748  17.361  17.904   7.780 -0.1007 -0.0615 -0.1487
   47loPI   C1B  749  17.009  18.564   9.707  0.2346  0.0298  0.0030
   47loPI   C2B  750  17.202  18.524   9.354  0.1047 -0.0205  0.0644
   47loPI   C3B  751  17.071  18.508   9.035  0.0726  0.3651  0.0781
   47loPI   C4B  752  17.101  18.422   8.611  0.1408 -0.0514  0.0611
   48loPI    C1  753  10.005   2.809  10.575 -0.0444 -0.1894  0.1184
   48loPI    C2  754   9.775   2.807  10.902 -0.1742 -0.1840  0.0278
   48loPI    C3  755  10.168   2.872  10.935 -0.2361  0.1492  0.1499
   48loPI   PO4  756   9.971   2.646  10.439 -0.0051 -0.0194  0.0282
   48loPI   GL1  757  10.075   2.570  10.045 -0.0202  0.0672 -0.3041
   48loPI   GL2  758  10.379   2.424  10.013 -0.1193  0.0989  0.0125
   48loPI   C1A  759  10.209   2.575   9.537 -0.0431 -0.1368  0.2222
   48loPI   C2A  760  10.111   2.543   9.155 -0.1555  0.0469 -0.1557
   48loPI   C3A  761   9.982   2.518   8.716  0.1953  0.3549  0.2249
   48loPI   C4A  762   9.753   2.637   8.260 -0.1328 -0.1638 -0.0996
   48loPI   C5A  763   9.789   2.848   7.818  0.1721  0.2616  0.0427
   48loPI   C6A  764   9.777   2.765   7.417  0.2484  0.4501  0.0268
   48loPI   C1B  765  10.105   2.114   9.893 -0.1009 -0.1235  0.2398
   48loPI   C2B  766  10.094   2.068   9.417  0.1987 -0.2622  0.0861
   48loPI   C3B  767  10.010   2.046   8.953 -0.0617 -0.1955  0.2185
   48loPI   C4B  768   9.924   1.881   8.471  0.2139 -0.2443 -0.0715
   49loPI    C1  769  12.092  10.752  10.574  0.1602  0.0384  0.1072
   49loPI    C2  770  12.469  10.764  10.442  0.1195 -0.2700 -0.0469
   49loPI    C3  771  12.392  10.653  10.819  0.1812 -0.2154 -0.0180
   49loPI   PO4  772  11.972  10.890  10.433 -0.1412  0.3187 -0.3823
   49loPI   GL1  773  12.105  10.986  10.110 -0.0174  0.0253 -0.2815
   49loPI   GL2  774  12.255  11.191  10.064  0.0329  0.0665  0.0875
   49loPI   C1A  775  12.190  10.684   9.809  0.1090 -0.0141 -0.1563
   49loPI   C2A  776  12.103  10.594   9.388  0.0292 -0.0758  0.3161
   49loPI   C3A  777  11.915  10.792   8.992  0.1581 -0.3679 -0.1093
   49loPI   C4A  778  11.890  11.146   8.732  0.0232  0.4595  0.0147
   49loPI   C5A  779  11.814  11.416   8.343 -0.1264  0.0266  0.2586
   49loPI   C6A  780  11.867  11.866   8.228  0.0998 -0.1176  0.0162
   49loPI   C1B  781  12.074  11.104   9.653  0.1237  0.1536  0.1233
   49loPI   C2B  782  12.154  11.158   9.256 -0.0876  0.0894 -0.2671
   49loPI   C3B  783  12.356  11.256   8.823 -0.1605  0.1729 -0.0893
   49loPI   C4B  784  12.343  11.194   8.412 -0.0108  0.3708  0.2133
   50loPI    C1  785  12.380   5.237  10.834 -0.0835  0.0446  0.0396
   50loPI    C2  786  12.259   5.488  11.121 -0.2534  0.0459 -0.0317
   50loPI    C3  787  12.328   5.103  11.207 -0.2484  0.0587  0.0221
   50loPI   PO4  788  12.342   5.284  10.659 -0.0448 -0.0832 -0.0715
   50loPI   GL1  789  12.497   5.090  10.326  0.2227 -0.0225 -0.3276
   50loPI   GL2  790  12.758   5.198  10.359  0.0269 -0.0364  0.0838
   50loPI   C1A  791  12.096   5.354  10.095 -0.2234 -0.3908 -0.4717
   50loPI   C2A  792  12.088   5.447   9.695  0.0070 -0.2013 -0.5120
   50loPI   C3A  793  11.979   5.462   9.321  0.1639 -0.2622 -0.1651
   50loPI   C4A  794  11.978   5.403   8.896 -0.0008 -0.0967 -0.2008
   50loPI   C5A  795  11.918   5.338   8.551 -0.2189 -0.3623  0.1229
   50loPI   C6A  796  11.624   5.490   8.258  0.1890 -0.1224  0.1736
   50loPI   C1B  797  12.845   4.928   9.980 -0.2658  0.0821 -0.0466
   50loPI   C2B  798  13.187   5.018   9.617  0.0830  0.0361  0.2880
   50loPI   C3B  799  13.159   4.777   9.233  0.3424 -0.0331 -0.0324
   50loPI   C4B  800  13.001   4.583   8.852  0.0361  0.2086  0.0053
   51loPI    C1  801   3.862   4.764  10.344  0.1063 -0.0115  0.1328
   51loPI    C2  802   3.652   4.426  10.380 -0.0819  0.0778 -0.1000
   51loPI    C3  803   3.785   4.614  10.707 -0.0252 -0.1885  0.0332
   51loPI   PO4  804   3.706   4.997  10.221  0.3281 -0.2346 -0.1978
   51loPI   GL1  805   3.925   5.255   9.943 -0.0334  0.0875 -0.1196
   51loPI   GL2  806   4.183   5.062   9.824 -0.1308  0.0188 -0.1681
   51loPI   C1A  807   3.757   5.468   9.552 -0.1724 -0.0033  0.0876
   51loPI   C2A  808   3.806   5.398   9.126 -0.1390  0.0944 -0.1388
   51loPI   C3A  809   3.864   5.534   8.727  0.0889  0.1518  0.3865
   51loPI   C4A  810   4.084   5.390   8.346  0.0529 -0.1105  0.1933
   51loPI   C5A  811   4.139   5.136   7.972 -0.2597 -0.0973 -0.3150
   51loPI   C6A  812   3.908   4.760   7.857  0.1751 -0.0468  0.1553
   51loPI   C1B  813   4.262   5.373   9.500 -0.1037 -0.2383 -0.0767
   51loPI   C2B  814   4.296   5.337   9.045 -0.1578  0.2570  0.0990
   51loPI   C3B  815   4.477   5.335   8.621  0.2943  0.1452  0.1786
   51loPI   C4B  816   4.612   5.453   8.208 -0.1444 -0.0802 -0.3457
   52loPI    C1  817   4.421   8.482  10.805 -0.0927  0.1333 -0.0312
   52loPI    C2  818   4.520   8.396  11.183 -0.0634  0.0901 -0.0486
   52loPI    C3  819   4.724   8.674  10.981  0.0665 -0.0458 -0.1064
   52loPI   PO4  820   4.145   8.434  10.774 -0.1361  0.2397 -0.0022
   52loPI   GL1  821   4.054   8.622  10.444 -0.0689  0.1052 -0.2151
   52loPI   GL2  822   3.764   8.688  10.284 -0.1221  0.1482 -0.0833
   52loPI   C1A  823   4.256   8.507  10.127  0.2216  0.0157  0.2420
   52loPI   C2A  824   4.392   8.499   9.739 -0.2318 -0.2089 -0.0097
   52loPI   C3A  825   4.552   8.553   9.322  0.2368  0.2260 -0.0960
   52loPI   C4A  826   4.567   8.539   8.902  0.0782 -0.4543 -0.0673
   52loPI   C5A  827   4.608   8.499   8.450  0.2959 -0.0358 -0.1501
   52loPI   C6A  828   4.363   8.235   8.255  0.0934 -0.0195 -0.0114
   52loPI   C1B  829   3.842   8.670   9.835  0.0427 -0.2379  0.1180
   52loPI   C2B  830   3.961   8.683   9.423 -0.0224 -0.2097 -0.0156
   52loPI   C3B  831   4.111   8.751   8.986  0.1493  0.1644 -0.0914
   52loPI   C4B  832   4.166   8.740   8.623 -0.3394  0.0914 -0.0702
   53loPI    C1  833   0.439   7.806  10.494 -0.2161  0.0293 -0.1689
   53loPI    C2  834   0.433   7.697  10.879 -0.1005 -0.0503 -0.1893
   53loPI    C3  835   0.177   7.974  10.746 -0.1017  0.0200 -0.0426
   53loPI   PO4  836   0.455   7.632  10.383 -0.0413 -0.3258  0.2538
   53loPI   GL1  837   0.385   7.479  10.070  0.0112  0.2693 -0.1609
   53loPI   GL2  838   0.641   7.431   9.914  0.1440 -0.2816 -0.3073
   53loPI   C1A  839   0.189   7.664   9.718  0.1286 -0.1574 -0.1986
   53loPI   C2A  840   0.206   7.671   9.318 -0.1223 -0.0126 -0.2169
   53loPI   C3A  841   0.452   7.759   8.885 -0.1514  0.3238 -0.1679
   53loPI   C4A  842   0.423   7.869   8.523  0.3434 -0.4696  0.0190
   53loPI   C5A  843   0.272   8.021   8.166  0.5419 -0.1770 -0.0054
   53loPI   C6A  844   0.109   8.195   7.861 -0.0276  0.0225  0.0048
   53loPI   C1B  845   0.752   7.628   9.436  0.2522  0.3222  0.0247
   53loPI   C2B  846   0.869   7.852   9.118 -0.0533 -0.0377 -0.0225
   53loPI   C3B  847   0.864   8.229   9.032  0.2818 -0.1164 -0.2076
   53loPI   C4B  848   0.802   8.672   8.981 -0.0199 -0.0680  0.2643
   54loPI    C1  849  13.181   2.288  10.388 -0.2936  0.3068  0.0503
   54loPI    C2  850  13.257   2.045  10.696  0.0099  0.2104 -0.0964
   54loPI    C3  851  13.037   2.375  10.751 -0.1201  0.0820  0.1756
   54loPI   PO4  852  13.102   2.117  10.153  0.0974  0.2042  0.1012
   54loPI   GL1  853  12.763   2.136   9.838 -0.0724  0.1306  0.2865
   54loPI   GL2  854  12.729   2.356   9.610  0.1013 -0.2376 -0.0454
   54loPI   C1A  855  12.412   2.067   9.490 -0.1211  0.1849  0.0353
   54loPI   C2A  856  12.423   2.223   9.039 -0.0366  0.1711  0.2799
   54loPI   C3A  857  12.522   2.074   8.679 -0.0805  0.0269  0.2154
   54loPI   C4A  858  12.553   2.121   8.229  0.1505 -0.1992  0.2669
   54loPI   C5A  859  12.563   1.902   7.870  0.0216  0.1878  0.0032
   54loPI   C6A  860  12.460   1.988   7.435  0.1070 -0.0211  0.1037
   54loPI   C1B  861  12.946   2.481   9.312 -0.0501 -0.1774 -0.1889
   54loPI   C2B  862  12.961   2.482   8.897 -0.1613 -0.1940  0.1381
   54loPI   C3B  863  12.784   2.519   8.516 -0.2973 -0.1470 -0.1319
   54loPI   C4B  864  12.984   2.357   8.137  0.0872  0.4103 -0.1116
   55loPI    C1  865  17.002   9.334  10.480  0.0291  0.0222  0.1407
   55loPI    C2  866  17.272   9.046  10.546 -0.1574 -0.1994 -0.0471
   55loPI    C3  867  17.032   9.167  10.842  0.0940 -0.0531  0.1009
   55loPI   PO4  868  16.931   9.288  10.272  0.5173 -0.0712 -0.0609
   55loPI   GL1  869  17.065   8.921   9.997 -0.2564 -0.0946 -0.3376
   55loPI   GL2  870  17.365   8.870  10.070  0.4173 -0.0219 -0.0027
   55loPI   C1A  871  16.915   8.844   9.529 -0.0543 -0.0356  0.1993
   55loPI   C2A  872  16.910   8.815   9.078  0.0412  0.1103  0.1459
   55loPI   C3A  873  16.964   8.821   8.656 -0.4628 -0.1532  0.0515
   55loPI   C4A  874  16.986   8.819   8.254 -0.2209 -0.3348 -0.0179
   55loPI   C5A  875  16.945   8.738   7.799  0.3340 -0.0224 -0.2330
   55loPI   C6A  876  17.090   8.748   7.382 -0.0690  0.1531  0.2175
   55loPI   C1B  877  17.448   8.681   9.733  0.0863 -0.0547  0.0590
   55loPI   C2B  878  17.419   8.722   9.311  0.1684  0.2174  0.1829
   55loPI   C3B  879  17.416   8.722   8.946 -0.1419  0.0154  0.6405
   55loPI   C4B  880  17.407   8.685   8.524  0.1133  0.2206  0.0069
   56loPI    C1  881   9.676  16.683  10.469  0.1181 -0.0229 -0.0593
   56loPI    C2  882   9.801  16.912  10.772  0.0327 -0.1163  0.0474
   56loPI    C3  883   9.706  16.529  10.837 -0.0396 -0.1216 -0.0870
   56loPI   PO4  884   9.515  16.939  10.376 -0.0326  0.6797 -0.0288
   56loPI   GL1  885   9.505  17.209  10.073  0.1965  0.0569 -0.0420
   56loPI   GL2  886   9.340  17.426  10.134 -0.1049  0.1448 -0.4010
   56loPI   C1A  887   9.744  17.325   9.714  0.0310  0.3001  0.0474
   56loPI   C2A  888   9.864  17.300   9.319  0.3225  0.1410 -0.2954
   56loPI   C3A  889   9.877  17.202   8.947 -0.1542 -0.0945 -0.0733
   56loPI   C4A  890   9.762  17.139   8.476 -0.0294  0.1865 -0.1565
   56loPI   C5A  891   9.512  17.140   8.096  0.0665 -0.0969 -0.2177
   56loPI   C6A  892   9.311  17.465   7.891  0.1973 -0.1947 -0.2678
   56loPI   C1B  893   9.316  17.645   9.720 -0.3132 -0.1837 -0.1531
   56loPI   C2B  894   9.375  17.452   9.317  0.3156 -0.2094  0.0680
   56loPI   C3B  895   9.402  17.309   8.817 -0.0646  0.1099 -0.1969
   56loPI   C4B  896   9.155  17.357   8.399 -0.1026 -0.0504  0.2630
   57loPI    C1  897  16.605  12.131  10.557 -0.3872 -0.0204 -0.2676
   57loPI    C2  898  16.543  11.809  10.786 -0.1847  0.0387 -0.1265
   57loPI    C3  899  16.456  12.173  10.926  0.0111  0.0815 -0.1127
   57loPI   PO4  900  16.809  12.143  10.450  0.3496 -0.1293  0.0384
   57loPI   GL1  901  16.976  11.958  10.208  0.4638 -0.0017  0.3306
   57loPI   GL2  902  17.207  12.022   9.861  0.5277 -0.0858  0.1688
   57loPI   C1A  903  16.719  11.841   9.829  0.0058 -0.1885  0.0340
   57loPI   C2A  904  16.907  11.931   9.479 -0.1660 -0.1092  0.2053
   57loPI   C3A  905  16.690  12.050   9.180 -0.1385  0.1945  0.0421
   57loPI   C4A  906  16.658  12.333   8.915 -0.0998  0.0238 -0.2836
   57loPI   C5A  907  16.469  12.699   8.849 -0.1154 -0.0927 -0.1514
   57loPI   C6A  908  16.422  13.043   8.592 -0.3721 -0.4654  0.4940
   57loPI   C1B  909  17.006  12.366   9.781 -0.0013  0.0038 -0.0800
   57loPI   C2B  910  16.890  12.520   9.384 -0.2545  0.1954 -0.1888
   57loPI   C3B  911  17.081  12.528   9.049  0.1249  0.1822 -0.2828
   57loPI   C4B  912  17.093  12.453   8.594  0.0975 -0.1710  0.0437
   58loPI    C1  913  17.370   3.197  10.609  0.1086 -0.1144  0.0289
   58loPI    C2  914  17.441   3.498  10.863 -0.3609 -0.0067  0.0418
   58loPI    C3  915  17.420   3.122  10.999  0.0888 -0.0354  0.0468
   58loPI   PO4  916  17.541   3.282  10.367 -0.3743  0.1759  0.2922
   58loPI   GL1  917  17.823   3.164  10.069 -0.2411  0.0677  0.1050
   58loPI   GL2  918  17.597   3.193   9.843  0.1653  0.1161  0.1416
   58loPI   C1A  919  18.075   3.141   9.689 -0.2454 -0.3261 -0.0650
   58loPI   C2A  920  18.078   3.064   9.281  0.2465  0.0222  0.1358
   58loPI   C3A  921  18.021   3.035   8.831 -0.1108  0.1503 -0.0996
   58loPI   C4A  922  18.023   3.074   8.410 -0.0268 -0.1357 -0.1122
   58loPI   C5A  923  18.338   3.152   8.068  0.1494  0.1287 -0.0207
   58loPI   C6A  924  18.536   3.079   7.635  0.2786  0.1243  0.2354
   58loPI   C1B  925  17.625   2.985   9.471  0.0988  0.1732 -0.0444
   58loPI   C2B  926  17.565   2.893   9.065 -0.0860  0.1551  0.0176
   58loPI   C3B  927  17.561   2.880   8.570  0.2221  0.0562  0.1349
   58loPI   C4B  928  17.449   3.122   8.182  0.5506 -0.0494 -0.0186
   59loPI    C1  929  11.953   4.548  10.686  0.1488  0.1714 -0.2198
   59loPI    C2  930  12.048   4.860  10.455  0.0257  0.3656 -0.0125
   59loPI    C3  931  11.974   4.915  10.844  0.1437  0.0554  0.0567
   59loPI   PO4  932  11.768   4.383  10.499  0.1701  0.0361 -0.0630
   59loPI   GL1  933  11.598   4.679  10.185 -0.0700 -0.0833  0.2452
   59loPI   GL2  934  11.634   4.355   9.991  0.0246  0.1462 -0.1812
   59loPI   C1A  935  11.774   4.921   9.908 -0.2204 -0.0788  0.0822
   59loPI   C2A  936  11.743   5.056   9.530  0.4411  0.1328 -0.2034
   59loPI   C3A  937  11.595   5.084   9.170 -0.0970 -0.0059 -0.0481
   59loPI   C4A  938  11.566   5.083   8.772  0.0182 -0.0957  0.2357
   59loPI   C5A  939  11.422   5.076   8.271 -0.2464 -0.2368 -0.3878
   59loPI   C6A  940  11.455   4.630   8.154  0.1744  0.1023  0.1353
   59loPI   C1B  941  11.655   4.050   9.682  0.0536 -0.3329 -0.4296
   59loPI   C2B  942  11.811   4.096   9.354  0.0656 -0.2198  0.1703
   59loPI   C3B  943  11.721   4.086   8.859 -0.0416  0.0462  0.2277
   59loPI   C4B  944  11.612   3.802   8.591  0.0800 -0.1356  0.3335
   60loPI    C1  945  11.989  16.663  10.854  0.1138 -0.0675  0.0893
   60loPI    C2  946  11.799  16.418  11.107  0.2719 -0.3095 -0.0236
   60loPI    C3  947  12.108  16.637  11.235 -0.1748  0.2104  0.2035
   60loPI   PO4  948  11.997  16.617  10.632 -0.2539  0.1051  0.0631
   60loPI   GL1  949  12.321  16.454  10.444 -0.3056 -0.1465  0.1765
   60loPI   GL2  950  12.616  16.538  10.311 -0.2438 -0.1247 -0.2015
   60loPI   C1A  951  12.228  16.354  10.013  0.1342 -0.1805  0.3560
   60loPI   C2A  952  12.188  16.406   9.603 -0.1214 -0.0350  0.0967
   60loPI   C3A  953  12.180  16.377   9.150  0.0159 -0.2733  0.1570
   60loPI   C4A  954  12.126  16.321   8.699 -0.0851 -0.0784 -0.1476
   60loPI   C5A  955  12.330  16.335   8.252 -0.1210  0.3638 -0.1725
   60loPI   C6A  956  12.500  15.986   8.054 -0.0761  0.0435 -0.1455
   60loPI   C1B  957  12.624  16.587   9.845 -0.2384 -0.0190 -0.0470
   60loPI   C2B  958  12.676  16.547   9.419 -0.2428 -0.0217 -0.1399
   60loPI   C3B  959  12.739  16.499   9.010 -0.0079 -0.1302 -0.1019
   60loPI   C4B  960  12.656  16.597   8.550  0.1206 -0.4354  0.1339
   61loPI    C1  961  15.078   3.096  10.329  0.0605  0.1655 -0.1032
   61loPI    C2  962  14.720   3.157  10.497  0.0316 -0.3047  0.0218
   61loPI    C3  963  15.013   3.426  10.545 -0.2647  0.0261  0.0181
   61loPI   PO4  964  15.107   3.059  10.113  0.1358 -0.0711  0.0173
   61loPI   GL1  965  14.982   3.124   9.694  0.2662  0.0464  0.2572
   61loPI   GL2  966  14.820   2.755   9.700 -0.3599 -0.0040  0.0674
   61loPI   C1A  967  14.762   3.163   9.224  0.1318  0.0963 -0.0963
   61loPI   C2A  968  14.878   3.175   8.877  0.2807 -0.0755  0.3582
   61loPI   C3A  969  14.791   3.242   8.387 -0.0084  0.1910  0.0398
   61loPI   C4A  970  14.954   3.665   8.204 -0.0559  0.2353 -0.3679
   61loPI   C5A  971  15.139   4.112   8.152 -0.0797 -0.0102  0.1634
   61loPI   C6A  972  15.471   4.461   8.109  0.3975 -0.0898 -0.1689
   61loPI   C1B  973  14.788   2.600   9.258 -0.0249  0.1002  0.0798
   61loPI   C2B  974  14.757   2.581   8.801  0.4050 -0.0410 -0.4562
   61loPI   C3B  975  14.654   2.737   8.332 -0.1692  0.0149  0.2394
   61loPI   C4B  976  14.582   2.972   8.013 -0.2839  0.0142  0.1514
   62loPI    C1  977   4.617   0.593  10.961  0.0598  0.0316 -0.2141
   62loPI    C2  978   4.916   0.792  10.786  0.0482  0.1802 -0.0682
   62loPI    C3  979   4.919   0.736  11.182  0.0770 -0.1573 -0.1135
   62loPI   PO4  980   4.391   0.735  10.749 -0.1795 -0.0598 -0.0610
   62loPI   GL1  981   4.332   0.832  10.401  0.0348  0.0303  0.0067
   62loPI   GL2  982   4.618   0.985  10.345 -0.0839 -0.0140  0.2997
   62loPI   C1A  983   4.370   0.615  10.031  0.2789 -0.0959 -0.1097
   62loPI   C2A  984   4.509   0.525   9.648  0.0441 -0.2157 -0.2419
   62loPI   C3A  985   4.509   0.534   9.229 -0.2954  0.1586 -0.2379
   62loPI   C4A  986   4.460   0.479   8.812 -0.2790  0.0361 -0.1666
   62loPI   C5A  987   4.786   0.443   8.507  0.4499  0.2040 -0.2375
   62loPI   C6A  988   5.241   0.516   8.455 -0.1310  0.1196  0.0488
   62loPI   C1B  989   4.753   0.932   9.933  0.0521  0.1281  0.3024
   62loPI   C2B  990   4.764   1.039   9.457  0.5058  0.2058 -0.2581
   62loPI   C3B  991   4.617   1.015   9.082 -0.1835  0.0103 -0.1523
   62loPI   C4B  992   4.684   0.993   8.636 -0.0000  0.1337  0.2021
   63loPI    C1  993  10.573  15.628  10.515 -0.1765  0.1925 -0.0110
   63loPI    C2  994  10.758  15.279  10.577 -0.1399  0.2390  0.1438
   63loPI    C3  995  10.431  15.293  10.347 -0.1996  0.0859  0.2172
   63loPI   PO4  996  10.758  15.810  10.399 -0.3487  0.2432 -0.0723
   63loPI   GL1  997  10.751  15.955  10.031  0.0928  0.1993  0.1861
   63loPI   GL2  998  11.049  15.939  10.059 -0.0051  0.0067  0.1422
   63loPI   C1A  999  10.802  16.240   9.628 -0.1040 -0.2909 -0.1585
   63loPI   C2A 1000  10.795  16.180   9.167  0.3107 -0.1268  0.0065
   63loPI   C3A 1001  10.773  16.143   8.770  0.0736 -0.2458  0.0382
   63loPI   C4A 1002  10.628  16.183   8.351 -0.1931 -0.1544  0.2874
   63loPI   C5A 1003  10.633  15.794   8.076 -0.3438 -0.1418  0.1707
   63loPI   C6A 1004  10.449  15.644   7.759  0.0261 -0.2638 -0.2164
   63loPI   C1B 1005  11.268  16.007   9.689 -0.1599  0.0825  0.1180
   63loPI   C2B 1006  11.240  15.967   9.193 -0.2709  0.0641 -0.2352
   63loPI   C3B 1007  11.267  15.925   8.700  0.2972 -0.0674 -0.0477
   63loPI   C4B 1008  11.048  15.977   8.287 -0.0228 -0.0998  0.0180
   64loPI    C1 1009   2.688  14.905  10.908 -0.0803 -0.1985 -0.1536
   64loPI    C2 1010   2.953  14.612  10.844 -0.1481 -0.3159  0.0888
   64loPI    C3 1011   2.958  14.814  11.190 -0.1562 -0.0860 -0.0436
   64loPI   PO4 1012   2.636  14.985  10.666  0.1083 -0.0609 -0.0416
   64loPI   GL1 1013   2.392  14.913  10.241 -0.3837  0.0562 -0.1516
   64loPI   GL2 1014   2.202  15.108  10.417 -0.0225 -0.1325  0.0643
   64loPI   C1A 1015   2.319  15.054   9.911  0.0117  0.0903  0.2211
   64loPI   C2A 1016   2.278  15.172   9.449 -0.2622  0.0660 -0.0335
   64loPI   C3A 1017   2.121  15.329   9.065  0.0486  0.1239 -0.1369
   64loPI   C4A 1018   2.038  15.344   8.654 -0.0949  0.2597 -0.3000
   64loPI   C5A 1019   1.906  15.600   8.348 -0.2111 -0.1479  0.2871
   64loPI   C6A 1020   2.095  15.892   7.964  0.0774 -0.2578  0.0722
   64loPI   C1B 1021   1.909  15.219  10.128 -0.0524  0.4549  0.1638
   64loPI   C2B 1022   1.820  15.240   9.705  0.0948 -0.0957  0.0949
   64loPI   C3B 1023   1.533  15.171   9.422 -0.0085  0.2576  0.1047
   64loPI   C4B 1024   1.641  15.157   9.025  0.1211 -0.0645 -0.0320
   65loPI    C1 1025   5.012   9.077  11.080  0.0962  0.4506 -0.0223
   65loPI    C2 1026   5.205   8.751  10.953 -0.4011  0.0425  0.2323
   65loPI    C3 1027   5.394   9.017  11.183 -0.0054 -0.0924  0.0720
   65loPI   PO4 1028   4.842   9.107  10.786  0.1608 -0.5021  0.1054
   65loPI   GL1 1029   4.755   9.250  10.302 -0.0203 -0.2516 -0.2815
   65loPI   GL2 1030   4.646   9.452   9.989  0.2277 -0.0666 -0.0818
   65loPI   C1A 1031   4.754   8.910   9.963  0.4146  0.0380 -0.0607
   65loPI   C2A 1032   4.996   8.865   9.569  0.1196  0.0434 -0.1567
   65loPI   C3A 1033   4.951   8.853   9.221 -0.2165 -0.0949  0.1075
   65loPI   C4A 1034   4.891   9.006   8.769 -0.1698 -0.1566  0.1648
   65loPI   C5A 1035   4.945   8.967   8.391 -0.4078 -0.2274 -0.0929
   65loPI   C6A 1036   4.636   8.899   8.102  0.0365 -0.0093 -0.4191
   65loPI   C1B 1037   4.777   9.362   9.558 -0.0857  0.1727 -0.1154
   65loPI   C2B 1038   4.934   9.382   9.062  0.3282  0.0902  0.2914
   65loPI   C3B 1039   5.209   9.352   8.593 -0.0717  0.0666 -0.0292
   65loPI   C4B 1040   5.459   9.678   8.350 -0.0701 -0.2345  0.1283
   66loPI    C1 1041  17.975   4.109  10.362 -0.0258  0.2528 -0.1844
   66loPI    C2 1042  17.891   4.291  10.708 -0.0421  0.1703 -0.1446
   66loPI    C3 1043  18.244   4.110  10.658 -0.1240 -0.0052 -0.0918
   66loPI   PO4 1044  17.979   4.094  10.151  0.0382 -0.2432 -0.1321
   66loPI   GL1 1045  18.216   4.119   9.747 -0.1280 -0.0068  0.2593
   66loPI   GL2 1046  18.238   4.391   9.839  0.0744 -0.0575  0.0648
   66loPI   C1A 1047  18.171   4.235   9.281 -0.1041  0.2417  0.0016
   66loPI   C2A 1048  18.119   4.214   8.903  0.2282 -0.1355  0.1826
   66loPI   C3A 1049  17.845   4.427   8.700 -0.1598 -0.1957  0.0684
   66loPI   C4A 1050  17.698   4.486   8.297 -0.2178 -0.0175  0.3077
   66loPI   C5A 1051  17.614   4.081   8.154 -0.0147 -0.0191  0.0003
   66loPI   C6A 1052  17.396   3.850   7.825 -0.0150  0.3011  0.0689
   66loPI   C1B 1053  18.506   4.597   9.514 -0.1191  0.1623 -0.1558
   66loPI   C2B 1054  18.348   4.655   9.041 -0.1859  0.0939  0.1250
   66loPI   C3B 1055  18.268   4.786   8.645 -0.0126 -0.0019 -0.2194
   66loPI   C4B 1056  17.885   4.890   8.545  0.5041 -0.0784 -0.0330
   67loPI    C1 1057  12.868  14.664  11.118 -0.0878  0.0485  0.1384
   67loPI    C2 1058  12.574  14.918  11.024 -0.1269  0.0071  0.1485
   67loPI    C3 1059  12.490  14.579  11.220 -0.0917 -0.0730  0.0256
   67loPI   PO4 1060  13.042  14.568  10.899  0.0071  0.1486  0.2651
   67loPI   GL1 1061  13.031  14.544  10.365  0.3252 -0.2377 -0.3374
   67loPI   GL2 1062  13.001  14.293  10.122 -0.1020  0.2356 -0.1405
   67loPI   C1A 1063  13.112  14.831   9.973 -0.1485 -0.5512 -0.1580
   67loPI   C2A 1064  13.121  14.867   9.573 -0.1387 -0.0427  0.2515
   67loPI   C3A 1065  13.167  14.934   9.169  0.2612 -0.2387  0.3146
   67loPI   C4A 1066  12.966  15.241   8.879  0.1680  0.2365 -0.1805
   67loPI   C5A 1067  13.016  15.224   8.418 -0.1485 -0.0360  0.3398
   67loPI   C6A 1068  13.250  15.528   8.228  0.0495 -0.2924 -0.1260
   67loPI   C1B 1069  12.911  14.449   9.734  0.3358  0.2266 -0.0099
   67loPI   C2B 1070  12.629  14.655   9.369 -0.2000  0.0237 -0.0720
   67loPI   C3B 1071  12.439  14.864   9.043  0.0514 -0.1126 -0.2331
   67loPI   C4B 1072  12.198  14.875   8.639 -0.0138 -0.1028 -0.0967
   68loPI    C1 1073   7.323   5.528  10.956 -0.1697  0.0594 -0.1638
   68loPI    C2 1074   7.703   5.496  11.075 -0.2814 -0.4250  0.0905
   68loPI    C3 1075   7.441   5.702  11.296 -0.1839 -0.1338 -0.0588
   68loPI   PO4 1076   7.362   5.585  10.746  0.1836  0.0813 -0.4136
   68loPI   GL1 1077   7.355   5.596  10.261 -0.2238 -0.0867 -0.1165
   68loPI   GL2 1078   7.304   5.242  10.094  0.0686  0.0392 -0.1614
   68loPI   C1A 1079   7.419   5.815   9.830 -0.0452  0.0324 -0.0103
   68loPI   C2A 1080   7.394   5.727   9.476 -0.1751 -0.0498  0.1883
   68loPI   C3A 1081   7.350   5.756   9.065  0.2327 -0.0609  0.0540
   68loPI   C4A 1082   7.481   5.707   8.656  0.1049 -0.1396 -0.1521
   68loPI   C5A 1083   7.650   5.434   8.361 -0.1955 -0.1112  0.1491
   68loPI   C6A 1084   7.555   5.085   8.247  0.1246 -0.2536  0.3332
   68loPI   C1B 1085   7.354   5.178   9.615  0.0204  0.1877  0.1520
   68loPI   C2B 1086   7.413   5.251   9.259 -0.1613 -0.1248  0.1152
   68loPI   C3B 1087   7.579   5.269   8.889 -0.0618 -0.1506 -0.1701
   68loPI   C4B 1088   7.976   5.486   8.732 -0.1493  0.0461  0.0313
   69loPI    C1 1089  11.240  17.033  10.515 -0.3309  0.2711  0.1856
   69loPI    C2 1090  11.473  16.842  10.779 -0.0882 -0.0224 -0.2286
   69loPI    C3 1091  11.457  17.242  10.778  0.1816 -0.0079 -0.0015
   69loPI   PO4 1092  11.011  16.834  10.533  0.0725 -0.1163  0.0084
   69loPI   GL1 1093  10.957  16.662  10.140  0.0214  0.1262  0.0921
   69loPI   GL2 1094  10.804  16.975  10.051 -0.2216  0.1049  0.0954
   69loPI   C1A 1095  11.216  16.500   9.775 -0.2675 -0.2999 -0.1251
   69loPI   C2A 1096  11.263  16.444   9.376 -0.1826 -0.2405  0.1685
   69loPI   C3A 1097  11.208  16.398   8.951 -0.2052  0.1970  0.0465
   69loPI   C4A 1098  11.187  16.456   8.470 -0.1496  0.0260 -0.2244
   69loPI   C5A 1099  11.121  16.708   8.177 -0.0035 -0.0714 -0.2026
   69loPI   C6A 1100  11.440  17.064   8.268  0.0042 -0.2123 -0.0335
   69loPI   C1B 1101  10.851  16.830   9.662  0.0568 -0.0212  0.0090
   69loPI   C2B 1102  10.816  16.730   9.324 -0.0167 -0.1599  0.2745
   69loPI   C3B 1103  10.787  16.705   8.921  0.2243 -0.0615  0.2382
   69loPI   C4B 1104  10.704  16.612   8.527  0.1787  0.0442  0.1430
   70loPI    C1 1105  14.349   8.362  11.066 -0.2437 -0.0172  0.1447
   70loPI    C2 1106  14.429   7.981  10.973 -0.1332  0.0443 -0.0167
   70loPI    C3 1107  14.625   8.159  11.273 -0.0839  0.0168 -0.0325
   70loPI   PO4 1108  14.281   8.596  10.754  0.0408 -0.0443 -0.1137
   70loPI   GL1 1109  14.167   8.594  10.377  0.1916 -0.2687 -0.0057
   70loPI   GL2 1110  14.158   8.982  10.491  0.1326  0.1810 -0.0663
   70loPI   C1A 1111  14.294   8.390  10.020  0.0774  0.2547  0.1061
   70loPI   C2A 1112  14.332   8.275   9.579 -0.4959  0.1840  0.1784
   70loPI   C3A 1113  14.301   8.344   9.136 -0.0052  0.1009 -0.0774
   70loPI   C4A 1114  14.320   8.393   8.706 -0.1765  0.1276 -0.2760
   70loPI   C5A 1115  14.251   8.244   8.287  0.0233 -0.3243  0.1601
   70loPI   C6A 1116  14.110   8.040   7.928  0.1577 -0.0582  0.0698
   70loPI   C1B 1117  14.207   8.882   9.922 -0.2170 -0.0277 -0.2563
   70loPI   C2B 1118  14.258   8.852   9.511  0.0207 -0.1079  0.2568
   70loPI   C3B 1119  14.297   8.875   9.016  0.0895 -0.2311  0.0849
   70loPI   C4B 1120  14.148   8.916   8.641 -0.1969  0.1037 -0.2104
   71loPI    C1 1121  15.132   8.449  10.404 -0.1525  0.1116  0.1010
   71loPI    C2 1122  15.239   8.825  10.319 -0.0485  0.0817  0.0985
   71loPI    C3 1123  15.418   8.629  10.619 -0.0987  0.0322  0.0961
   71loPI   PO4 1124  14.863   8.402  10.355  0.2020  0.0054  0.0488
   71loPI   GL1 1125  14.865   8.193  10.008  0.2351 -0.2276  0.2408
   71loPI   GL2 1126  15.163   8.451   9.855  0.0070  0.1398 -0.1845
   71loPI   C1A 1127  14.781   8.077   9.594  0.0829 -0.2751  0.1780
   71loPI   C2A 1128  14.734   8.114   9.204  0.1825 -0.0587  0.0454
   71loPI   C3A 1129  14.768   8.195   8.806  0.1413 -0.1893 -0.0586
   71loPI   C4A 1130  14.787   8.240   8.340 -0.0957 -0.2496  0.0297
   71loPI   C5A 1131  14.604   8.010   7.965  0.0886 -0.2375  0.3237
   71loPI   C6A 1132  14.648   7.586   7.728  0.0823 -0.0709  0.3167
   71loPI   C1B 1133  15.174   8.418   9.424  0.2258  0.1933 -0.2747
   71loPI   C2B 1134  15.150   8.454   8.977  0.1749 -0.0276 -0.2182
   71loPI   C3B 1135  15.139   8.482   8.496  0.1426 -0.2231  0.0119
   71loPI   C4B 1136  15.279   8.283   8.111  0.1985 -0.0918  0.0404
   72loPI    C1 1137   8.959   1.123  10.675  0.1409 -0.0809  0.0250
   72loPI    C2 1138   8.721   0.835  10.817 -0.0120 -0.0253 -0.1168
   72loPI    C3 1139   8.687   1.209  10.955  0.0746 -0.0415 -0.0512
   72loPI   PO4 1140   9.162   0.979  10.600  0.0763  0.0012  0.2151
   72loPI   GL1 1141   9.211   0.826  10.141  0.0063 -0.0425  0.0169
   72loPI   GL2 1142   9.115   1.105   9.963  0.0954  0.2109  0.0855
   72loPI   C1A 1143   9.227   0.573   9.816  0.3366  0.3986  0.0469
   72loPI   C2A 1144   9.308   0.544   9.398  0.1591 -0.2486 -0.0947
   72loPI   C3A 1145   9.200   0.360   9.061  0.1428  0.0501  0.3338
   72loPI   C4A 1146   9.289   0.349   8.604 -0.0568 -0.1665 -0.0791
   72loPI   C5A 1147   9.238   0.359   8.187  0.0877 -0.1641 -0.0135
   72loPI   C6A 1148   8.980   0.645   8.054 -0.2821  0.0030 -0.0675
   72loPI   C1B 1149   9.285   1.073   9.556  0.0978  0.1266  0.0794
   72loPI   C2B 1150   9.258   0.961   9.166  0.0369  0.3111  0.2447
   72loPI   C3B 1151   9.257   0.885   8.757 -0.3016  0.2239 -0.3390
   72loPI   C4B 1152   9.434   0.785   8.359 -0.0362 -0.0123  0.2275
   73loPI    C1 1153   0.507   8.224  11.052  0.1526 -0.3751  0.0138
   73loPI    C2 1154   0.745   8.538  11.119 -0.1679 -0.0725 -0.2334
   73loPI    C3 1155   0.422   8.480  11.347 -0.0501 -0.2889 -0.1180
   73loPI   PO4 1156   0.615   8.192  10.814 -0.0943  0.0723 -0.0552
   73loPI   GL1 1157   0.418   8.324  10.395 -0.0984  0.0913  0.1157
   73loPI   GL2 1158   0.147   8.183  10.297  0.0359  0.0941  0.1194
   73loPI   C1A 1159   0.273   8.530   9.994  0.1321  0.2542  0.1016
   73loPI   C2A 1160   0.230   8.476   9.596  0.0157  0.4194  0.3428
   73loPI   C3A 1161  -0.097   8.456   9.210  0.2320 -0.0019 -0.1341
   73loPI   C4A 1162  -0.157   8.671   8.807  0.0960  0.2161  0.0639
   73loPI   C5A 1163  -0.262   8.605   8.263  0.0153  0.1565  0.1206
   73loPI   C6A 1164  -0.654   8.815   8.062 -0.1405  0.1771 -0.0323
   73loPI   C1B 1165  -0.070   8.142   9.877  0.0298  0.3372 -0.0676
   73loPI   C2B 1166  -0.016   8.040   9.471  0.3740  0.0426 -0.0710
   73loPI   C3B 1167  -0.088   7.969   8.994  0.0819 -0.0757 -0.2716
   73loPI   C4B 1168   0.020   7.653   8.714  0.0420 -0.0620  0.2983
   74loPI    C1 1169   1.615   5.047  10.134 -0.0618  0.1390  0.1137
   74loPI    C2 1170   1.667   4.661  10.226 -0.0560  0.1450  0.1361
   74loPI    C3 1171   1.363   4.866  10.387  0.0104  0.1809  0.2163
   74loPI   PO4 1172   1.614   5.081   9.952 -0.2611 -0.2473  0.2341
   74loPI   GL1 1173   1.574   5.029   9.515  0.1915  0.0481 -0.1829
   74loPI   GL2 1174   1.930   5.038   9.541 -0.3005  0.0912  0.0227
   74loPI   C1A 1175   1.634   4.647   9.323  0.0211  0.1029 -0.0235
   74loPI   C2A 1176   1.985   4.383   9.303  0.0234  0.0485 -0.2510
   74loPI   C3A 1177   2.249   4.092   9.126  0.0727  0.1089  0.3240
   74loPI   C4A 1178   2.306   3.842   8.839 -0.1994  0.0451 -0.3265
   74loPI   C5A 1179   2.266   3.636   8.353 -0.0346  0.0823 -0.0257
   74loPI   C6A 1180   2.031   3.420   8.051 -0.2391  0.1348  0.1375
   74loPI   C1B 1181   1.912   5.032   9.163 -0.2594  0.0836 -0.5299
   74loPI   C2B 1182   2.008   4.645   8.894  0.2396  0.1293 -0.1696
   74loPI   C3B 1183   2.067   4.309   8.674 -0.3391  0.0939 -0.2040
   74loPI   C4B 1184   1.997   4.253   8.222 -0.0434 -0.3086  0.2393
   75loPI    C1 1185   6.463   2.237  10.804 -0.0831 -0.0029 -0.0317
   75loPI    C2 1186   6.243   1.932  10.941 -0.2116  0.0929 -0.0226
   75loPI    C3 1187   6.284   2.264  11.161  0.1856 -0.0372  0.1082
   75loPI   PO4 1188   6.395   2.296  10.504  0.0646  0.0986  0.1071
   75loPI   GL1 1189   6.449   2.121  10.108 -0.2088 -0.2306 -0.2284
   75loPI   GL2 1190   6.466   1.801  10.051 -0.0690  0.0952 -0.0841
   75loPI   C1A 1191   6.303   2.361   9.806  0.2656  0.1380  0.2541
   75loPI   C2A 1192   6.303   2.349   9.447  0.0988 -0.2231  0.2047
   75loPI   C3A 1193   6.438   2.484   8.997 -0.1399 -0.2619 -0.1939
   75loPI   C4A 1194   6.357   2.743   8.793 -0.1690  0.0154 -0.1574
   75loPI   C5A 1195   6.331   2.803   8.412  0.0997 -0.0085  0.0311
   75loPI   C6A 1196   6.364   2.560   8.051  0.0438 -0.0878  0.0002
   75loPI   C1B 1197   6.327   1.847   9.695 -0.0805  0.1889 -0.0751
   75loPI   C2B 1198   6.502   1.752   9.364 -0.0625 -0.2493  0.2685
   75loPI   C3B 1199   6.716   1.657   9.012  0.2109 -0.0765 -0.2202
   75loPI   C4B 1200   6.866   1.575   8.533 -0.0987  0.4444  0.1436
   76loPI    C1 1201   5.234  12.407  10.627 -0.0033  0.0468  0.0856
   76loPI    C2 1202   5.632  12.371  10.647 -0.0004 -0.0453 -0.1104
   76loPI    C3 1203   5.418  12.414  10.982  0.1673 -0.0685  0.0011
   76loPI   PO4 1204   5.151  12.235  10.419  0.2548  0.0645  0.2127
   76loPI   GL1 1205   5.172  12.140   9.984 -0.1649  0.1114  0.0201
   76loPI   GL2 1206   5.065  12.466   9.970 -0.2188  0.1156 -0.0753
   76loPI   C1A 1207   5.144  12.173   9.527 -0.3560 -0.0014 -0.0201
   76loPI   C2A 1208   4.955  12.349   9.169  0.2536 -0.1931  0.0347
   76loPI   C3A 1209   4.932  12.643   8.820 -0.0795  0.1661 -0.1142
   76loPI   C4A 1210   4.743  12.742   8.503 -0.0488 -0.0538 -0.1786
   76loPI   C5A 1211   4.848  13.119   8.138 -0.0080  0.1063  0.0261
   76loPI   C6A 1212   4.890  13.521   7.856  0.1033 -0.3894 -0.2781
   76loPI   C1B 1213   4.994  12.610   9.614 -0.1677 -0.1185 -0.0967
   76loPI   C2B 1214   4.741  12.861   9.329  0.0415  0.1629 -0.2104
   76loPI   C3B 1215   4.653  13.287   9.148  0.1139  0.0004 -0.2060
   76loPI   C4B 1216   4.622  13.618   8.735  0.2101  0.1548  0.0997
   77loPI    C1 1217   8.057  15.432  10.619 -0.1588 -0.3473  0.1427
   77loPI    C2 1218   8.024  15.726  10.888  0.1167 -0.0951 -0.0921
   77loPI    C3 1219   8.103  15.353  11.009 -0.1162 -0.0540  0.1996
   77loPI   PO4 1220   7.850  15.418  10.421 -0.2184  0.0462  0.0092
   77loPI   GL1 1221   7.682  15.249  10.048 -0.0376  0.2707  0.0189
   77loPI   GL2 1222   7.882  14.996   9.870  0.0043  0.0555 -0.0882
   77loPI   C1A 1223   7.424  15.081   9.681 -0.0797 -0.0147  0.0471
   77loPI   C2A 1224   7.343  15.132   9.288  0.0738  0.0132  0.0564
   77loPI   C3A 1225   7.040  15.031   9.047 -0.1085 -0.1338  0.1292
   77loPI   C4A 1226   6.808  15.060   8.687 -0.0296 -0.1103 -0.0051
   77loPI   C5A 1227   6.582  14.809   8.379  0.2116  0.1686 -0.4619
   77loPI   C6A 1228   6.349  14.794   7.992  0.2839  0.1790 -0.0773
   77loPI   C1B 1229   7.819  15.058   9.370 -0.1132  0.2440  0.1872
   77loPI   C2B 1230   7.745  15.053   8.867  0.0600 -0.0121  0.1609
   77loPI   C3B 1231   7.360  15.171   8.642  0.1671  0.0562  0.0458
   77loPI   C4B 1232   7.401  15.280   8.197  0.3483 -0.1865  0.2589
   78loPI    C1 1233  13.196  17.134  10.820 -0.0470  0.0857 -0.1413
   78loPI    C2 1234  13.566  17.238  10.933  0.0461 -0.3562 -0.0209
   78loPI    C3 1235  13.283  17.175  11.209 -0.1917  0.2140 -0.1216
   78loPI   PO4 1236  13.090  17.265  10.622 -0.2634 -0.0770  0.1588
   78loPI   GL1 1237  13.174  17.340  10.197 -0.5330  0.0103 -0.1713
   78loPI   GL2 1238  13.475  17.453  10.258  0.1394 -0.0187  0.2523
   78loPI   C1A 1239  13.207  17.234   9.721  0.0722 -0.0308  0.2121
   78loPI   C2A 1240  13.246  17.235   9.294  0.0472  0.0916 -0.0326
   78loPI   C3A 1241  13.301  17.240   8.848 -0.2231 -0.0529 -0.2964
   78loPI   C4A 1242  13.474  17.306   8.405  0.0278  0.1251 -0.1176
   78loPI   C5A 1243  13.812  17.617   8.323  0.4038  0.0386 -0.1893
   78loPI   C6A 1244  14.170  17.717   8.365 -0.1170 -0.0470 -0.2095
   78loPI   C1B 1245  13.720  17.374   9.801  0.0005 -0.0301 -0.0017
   78loPI   C2B 1246  13.761  17.311   9.332  0.2304  0.0407  0.2597
   78loPI   C3B 1247  13.812  17.333   8.870 -0.3348  0.0208 -0.2936
   78loPI   C4B 1248  13.934  17.171   8.465  0.0038  0.2806  0.0101
   79loPI    C1 1249  11.622  15.640  10.714 -0.1794 -0.0242  0.1762
   79loPI    C2 1250  11.919  15.449  10.902  0.1466  0.0762 -0.2223
   79loPI    C3 1251  11.793  15.804  11.036  0.1032 -0.0339  0.0342
   79loPI   PO4 1252  11.687  15.578  10.416  0.2321  0.0742  0.1369
   79loPI   GL1 1253  11.660  15.884  10.104 -0.2774 -0.0605  0.1887
   79loPI   GL2 1254  11.438  15.670   9.990 -0.0095 -0.3927  0.1507
   79loPI   C1A 1255  11.858  16.000   9.711  0.2261 -0.0540  0.2377
   79loPI   C2A 1256  11.651  16.137   9.340 -0.4075 -0.0156 -0.0262
   79loPI   C3A 1257  11.717  16.074   8.872 -0.1527  0.2586  0.1314
   79loPI   C4A 1258  11.666  16.093   8.370  0.0119  0.1429 -0.0478
   79loPI   C5A 1259  11.417  16.314   7.967  0.3588  0.1224  0.1186
   79loPI   C6A 1260  11.261  16.206   7.586 -0.0494  0.0854 -0.2187
   79loPI   C1B 1261  11.222  15.542   9.605 -0.0420 -0.0099 -0.0971
   79loPI   C2B 1262  11.192  15.488   9.141 -0.4836  0.2947 -0.4296
   79loPI   C3B 1263  11.262  15.387   8.661 -0.2813 -0.1595  0.0991
   79loPI   C4B 1264  11.383  15.104   8.286  0.2873  0.1435  0.0208
   80loPI    C1 1265   2.028   2.876  10.874 -0.0799  0.0283  0.0371
   80loPI    C2 1266   1.977   2.590  11.150  0.2844  0.1371  0.2234
   80loPI    C3 1267   1.916   2.974  11.245  0.0121  0.1429  0.0352
   80loPI   PO4 1268   2.170   2.816  10.698  0.2701 -0.2079 -0.0551
   80loPI   GL1 1269   1.961   2.853  10.295 -0.1018 -0.2051  0.2383
   80loPI   GL2 1270   1.612   2.976  10.154 -0.0008  0.2713  0.1696
   80loPI   C1A 1271   2.221   2.632   9.962 -0.2535  0.2333  0.0382
   80loPI   C2A 1272   2.229   2.529   9.438 -0.2434  0.1317  0.2602
   80loPI   C3A 1273   2.233   2.408   9.003  0.1659 -0.0886  0.2784
   80loPI   C4A 1274   2.127   2.297   8.637 -0.4469 -0.0503  0.1882
   80loPI   C5A 1275   1.743   2.124   8.404 -0.4998 -0.2284 -0.1461
   80loPI   C6A 1276   1.752   1.874   8.002  0.0516  0.1694  0.0588
   80loPI   C1B 1277   1.725   2.887   9.657 -0.0648  0.2902  0.3291
   80loPI   C2B 1278   1.808   2.816   9.185  0.3139 -0.0706 -0.1748
   80loPI   C3B 1279   1.771   2.743   8.839 -0.0784 -0.2269  0.1207
   80loPI   C4B 1280   1.767   2.615   8.441  0.2282 -0.0186  0.1579
   81loPI    C1 1281  15.602   4.419  10.421  0.0990 -0.0399 -0.1724
   81loPI    C2 1282  15.524   4.068  10.596 -0.0788  0.0200 -0.1286
   81loPI    C3 1283  15.667   4.372  10.813 -0.1432  0.0444 -0.1202
   81loPI   PO4 1284  15.661   4.274  10.169 -0.2392 -0.1886 -0.2420
   81loPI   GL1 1285  15.780   4.234   9.783 -0.1563 -0.0874  0.0231
   81loPI   GL2 1286  16.109   4.387   9.725 -0.1662 -0.2265 -0.1956
   81loPI   C1A 1287  15.715   3.905   9.373 -0.0450  0.1535  0.1335
   81loPI   C2A 1288  15.543   3.643   8.971 -0.3892  0.1548 -0.1839
   81loPI   C3A 1289  15.425   3.345   8.625  0.0554  0.1362  0.0262
   81loPI   C4A 1290  15.400   3.333   8.233  0.2304 -0.3913  0.1349
   81loPI   C5A 1291  15.738   3.500   7.897 -0.0327  0.4039 -0.0178
   81loPI   C6A 1292  16.217   3.710   7.839  0.1853 -0.1047  0.2766
   81loPI   C1B 1293  16.010   4.339   9.294 -0.2179 -0.0011  0.3352
   81loPI   C2B 1294  15.783   4.311   8.883 -0.2485  0.2699 -0.1396
   81loPI   C3B 1295  15.883   3.922   8.776  0.1029 -0.0160  0.1649
   81loPI   C4B 1296  16.014   3.506   8.877  0.0779  0.1606 -0.1889
   82loPI    C1 1297  10.915  12.044  10.744  0.0383 -0.0115  0.0392
   82loPI    C2 1298  10.852  11.652  10.703  0.1350 -0.0178 -0.0536
   82loPI    C3 1299  11.083  11.787  11.000  0.1357 -0.0343 -0.0467
   82loPI   PO4 1300  11.041  12.048  10.446 -0.2756 -0.1435 -0.0411
   82loPI   GL1 1301  11.051  11.918   9.928 -0.1313  0.0707 -0.1178
   82loPI   GL2 1302  11.128  12.177   9.977 -0.0065 -0.0377  0.2631
   82loPI   C1A 1303  10.947  11.823   9.525  0.1231 -0.1135  0.0019
   82loPI   C2A 1304  10.886  11.734   9.154  0.0269  0.0127  0.0877
   82loPI   C3A 1305  11.124  11.778   8.853 -0.3289 -0.0816  0.1658
   82loPI   C4A 1306  11.184  12.136   8.639  0.3647 -0.2089 -0.2208
   82loPI   C5A 1307  11.111  12.537   8.603 -0.2284 -0.2315  0.0615
   82loPI   C6A 1308  10.899  12.907   8.488  0.1918  0.0664  0.1427
   82loPI   C1B 1309  10.755  12.310   9.706  0.1418  0.4283 -0.0113
   82loPI   C2B 1310  10.651  12.315   9.322  0.0132 -0.1311 -0.3030
   82loPI   C3B 1311  10.278  12.351   9.021  0.1317  0.1828  0.3030
   82loPI   C4B 1312  10.006  12.451   8.634 -0.0643 -0.0797 -0.1457
   83loPI    C1 1313   0.748  13.932  10.865  0.1158 -0.0662  0.0390
   83loPI    C2 1314   0.773  14.057  11.244 -0.0914  0.1017 -0.0006
   83loPI    C3 1315   0.613  13.700  11.162 -0.0183  0.0517  0.0712
   83loPI   PO4 1316   0.615  14.089  10.736  0.1944 -0.2100 -0.4328
   83loPI   GL1 1317   0.698  14.407  10.439  0.3815  0.1593  0.1926
   83loPI   GL2 1318   0.385  14.301  10.285  0.2949  0.1734  0.0080
   83loPI   C1A 1319   0.516  14.754  10.223 -0.1518  0.1272 -0.2190
   83loPI   C2A 1320   0.568  14.797   9.765 -0.2604  0.0731  0.0878
   83loPI   C3A 1321   0.580  14.786   9.316  0.1872 -0.1202  0.0998
   83loPI   C4A 1322   0.774  14.859   8.840  0.0210  0.0108 -0.0317
   83loPI   C5A 1323   0.756  14.952   8.361 -0.0209 -0.2948  0.3105
   83loPI   C6A 1324   0.979  15.288   8.203  0.1071 -0.3014 -0.1706
   83loPI   C1B 1325   0.457  14.331   9.839 -0.2857 -0.0643  0.0575
   83loPI   C2B 1326   0.471  14.298   9.357 -0.1135 -0.1656 -0.0388
   83loPI   C3B 1327   0.576  14.360   8.905 -0.0218  0.2083  0.0590
   83loPI   C4B 1328   0.618  14.281   8.442 -0.2375  0.0050 -0.0113
   84loPI    C1 1329   2.335  16.560  10.557  0.2236  0.1125 -0.1438
   84loPI    C2 1330   2.461  16.720  10.902 -0.0944 -0.0713  0.0634
   84loPI    C3 1331   2.604  16.856  10.554  0.1302  0.2086  0.2603
   84loPI   PO4 1332   2.059  16.556  10.505  0.0050 -0.1028  0.0788
   84loPI   GL1 1333   1.926  16.732  10.143 -0.0615  0.0458  0.0084
   84loPI   GL2 1334   2.250  16.868  10.126  0.2150  0.0253 -0.0991
   84loPI   C1A 1335   1.881  16.754   9.683  0.1916 -0.2161 -0.1068
   84loPI   C2A 1336   1.788  16.699   9.263 -0.1158  0.1824 -0.0386
   84loPI   C3A 1337   1.880  16.672   8.894 -0.1161 -0.4579 -0.1613
   84loPI   C4A 1338   1.945  16.598   8.548  0.2442 -0.0794 -0.0368
   84loPI   C5A 1339   1.727  16.237   8.346 -0.0074  0.1981  0.3151
   84loPI   C6A 1340   1.291  16.029   8.296 -0.3789  0.1411 -0.1867
   84loPI   C1B 1341   2.368  16.863   9.731 -0.4037 -0.0752 -0.1113
   84loPI   C2B 1342   2.390  16.844   9.302  0.1371 -0.1191 -0.0967
   84loPI   C3B 1343   2.382  16.863   8.906  0.1995  0.0524 -0.3314
   84loPI   C4B 1344   2.431  16.784   8.452  0.2328  0.1635  0.2758
   85loPI    C1 1345  17.610   6.959  10.203 -0.0174  0.2076 -0.1381
   85loPI    C2 1346  17.631   6.917  10.601 -0.0239 -0.0423 -0.1624
   85loPI    C3 1347  17.802   7.232  10.423  0.1447 -0.0293  0.0197
   85loPI   PO4 1348  17.665   6.667  10.105  0.0248  0.4677 -0.2007
   85loPI   GL1 1349  17.701   6.467   9.763 -0.0499 -0.0738  0.0150
   85loPI   GL2 1350  17.866   6.143   9.607  0.0755  0.3069 -0.1740
   85loPI   C1A 1351  17.268   6.398   9.579  0.0354  0.1582  0.1676
   85loPI   C2A 1352  16.931   6.362   9.293  0.1181  0.0970 -0.0305
   85loPI   C3A 1353  16.860   6.374   8.788  0.0761  0.5120  0.1212
   85loPI   C4A 1354  16.827   6.443   8.391  0.2481  0.0718  0.1738
   85loPI   C5A 1355  16.684   6.606   7.939  0.0339 -0.0283 -0.1044
   85loPI   C6A 1356  16.550   6.767   7.525  0.0731  0.2327  0.0528
   85loPI   C1B 1357  17.617   6.314   9.250 -0.0717  0.1582 -0.0784
   85loPI   C2B 1358  17.322   6.280   8.951  0.0621 -0.0926  0.2459
   85loPI   C3B 1359  17.396   6.202   8.588  0.3645 -0.2764  0.1745
   85loPI   C4B 1360  17.378   6.081   8.129  0.0917  0.0430 -0.0707
   86loPI    C1 1361  15.947  13.954  10.820 -0.1124  0.0509 -0.0298
   86loPI    C2 1362  15.996  14.185  11.143  0.1688 -0.1327  0.0623
   86loPI    C3 1363  15.812  13.832  11.176  0.0092 -0.0586 -0.0207
   86loPI   PO4 1364  16.242  13.898  10.579 -0.0623  0.5809  0.2099
   86loPI   GL1 1365  16.391  13.730  10.231  0.0067 -0.0202 -0.0409
   86loPI   GL2 1366  16.699  13.776  10.170  0.0628 -0.2603 -0.2628
   86loPI   C1A 1367  16.139  13.954   9.802  0.3457 -0.2228 -0.1103
   86loPI   C2A 1368  16.224  14.005   9.419 -0.1471  0.2731 -0.0289
   86loPI   C3A 1369  16.185  13.912   9.027  0.2680  0.0948  0.1492
   86loPI   C4A 1370  16.287  13.851   8.589  0.0514 -0.1667  0.0310
   86loPI   C5A 1371  16.148  13.897   8.176  0.0124  0.1696  0.1077
   86loPI   C6A 1372  15.862  14.002   7.981  0.2942  0.1850  0.0986
   86loPI   C1B 1373  16.711  14.061   9.868 -0.2819  0.0430 -0.0272
   86loPI   C2B 1374  16.745  14.154   9.496 -0.0738 -0.2056  0.1647
   86loPI   C3B 1375  16.691  14.084   9.078  0.0545  0.2101 -0.1536
   86loPI   C4B 1376  16.762  14.060   8.690 -0.2233  0.0923 -0.1912
   87loPI    C1 1377   3.798   1.307  10.676  0.1562 -0.0146 -0.0913
   87loPI    C2 1378   3.875   1.157  10.313 -0.1718 -0.0903 -0.1330
   87loPI    C3 1379   3.507   1.131  10.466 -0.0800  0.1063  0.1296
   87loPI   PO4 1380   3.839   1.558  10.621 -0.0523  0.1010 -0.1864
   87loPI   GL1 1381   3.866   1.718  10.282  0.1364  0.1128 -0.1684
   87loPI   GL2 1382   3.517   1.551  10.164 -0.0949 -0.0503  0.2321
   87loPI   C1A 1383   3.959   1.665   9.845 -0.0314  0.0150  0.1514
   87loPI   C2A 1384   3.888   1.727   9.492 -0.0337  0.0978 -0.2028
   87loPI   C3A 1385   3.937   1.703   9.127 -0.0773 -0.0245  0.4085
   87loPI   C4A 1386   3.852   1.640   8.709  0.1987 -0.1170 -0.0498
   87loPI   C5A 1387   3.799   1.604   8.184  0.1932  0.1482 -0.3586
   87loPI   C6A 1388   3.777   1.834   7.842 -0.1051  0.2832 -0.1646
   87loPI   C1B 1389   3.705   1.218   9.872 -0.0115  0.0806 -0.1483
   87loPI   C2B 1390   3.753   1.188   9.439  0.1386  0.0800  0.5026
   87loPI   C3B 1391   3.713   1.167   8.906  0.1154 -0.1716 -0.0649
   87loPI   C4B 1392   3.881   1.121   8.525 -0.0352  0.1150  0.1712
   88loPI    C1 1393   8.119  13.648  10.773  0.1471 -0.0911 -0.1248
   88loPI    C2 1394   7.833  13.726  10.504 -0.0619 -0.1414  0.0802
   88loPI    C3 1395   7.876  13.961  10.825  0.1315 -0.1313  0.0483
   88loPI   PO4 1396   8.311  13.461  10.633  0.1240 -0.0171 -0.0604
   88loPI   GL1 1397   8.250  13.208  10.269  0.0179  0.3542  0.1151
   88loPI   GL2 1398   8.043  13.245  10.065  0.0568 -0.0512  0.3060
   88loPI   C1A 1399   8.370  12.831  10.019  0.0866  0.0334 -0.0932
   88loPI   C2A 1400   8.304  12.727   9.717 -0.1248 -0.0465 -0.3175
   88loPI   C3A 1401   8.451  12.507   9.292  0.3231  0.3514 -0.3140
   88loPI   C4A 1402   8.474  12.484   8.886 -0.1110  0.0374 -0.0714
   88loPI   C5A 1403   8.529  12.757   8.571 -0.1690  0.0723  0.2094
   88loPI   C6A 1404   8.339  12.732   8.204 -0.0030 -0.0586 -0.0879
   88loPI   C1B 1405   8.234  13.194   9.639 -0.1184 -0.0596  0.0212
   88loPI   C2B 1406   7.901  13.245   9.203 -0.1082  0.2021  0.1611
   88loPI   C3B 1407   7.700  13.103   8.877  0.3076 -0.1326  0.1653
   88loPI   C4B 1408   7.446  13.132   8.523 -0.0427  0.1749 -0.2337
   89loPI    C1 1409  15.380  10.124  10.640 -0.3789 -0.2213 -0.2982
   89loPI    C2 1410  15.044  10.275  10.796 -0.0980  0.2267 -0.1073
   89loPI    C3 1411  15.256  10.006  11.002 -0.1326  0.2400 -0.0540
   89loPI   PO4 1412  15.405  10.204  10.374  0.1534  0.3304  0.0913
   89loPI   GL1 1413  15.100  10.337  10.083  0.1854  0.2052 -0.0955
   89loPI   GL2 1414  15.105  10.675  10.147  0.0245  0.0003  0.1106
   89loPI   C1A 1415  15.202  10.342   9.667  0.2733  0.2011  0.1637
   89loPI   C2A 1416  15.241  10.373   9.256 -0.0388  0.1251 -0.2440
   89loPI   C3A 1417  15.343  10.441   8.862  0.0792 -0.0302 -0.0526
   89loPI   C4A 1418  15.243  10.557   8.361 -0.1467  0.3709 -0.0353
   89loPI   C5A 1419  15.393  10.235   8.122  0.0899 -0.0647  0.0829
   89loPI   C6A 1420  15.626   9.935   7.790 -0.3374 -0.0354  0.0094
   89loPI   C1B 1421  15.182  10.826   9.678  0.3400  0.1990 -0.0675
   89loPI   C2B 1422  15.182  10.871   9.231 -0.1023 -0.0890  0.0810
   89loPI   C3B 1423  15.108  10.861   8.764 -0.1490 -0.0037  0.1519
   89loPI   C4B 1424  15.110  11.045   8.360 -0.0795 -0.2648 -0.1378
   90loPI    C1 1425   9.264   6.896  10.847  0.0024 -0.1175 -0.0807
   90loPI    C2 1426   9.283   6.609  11.125 -0.0264 -0.1312 -0.0929
   90loPI    C3 1427   9.542   6.914  11.134 -0.2837  0.0848  0.1906
   90loPI   PO4 1428   9.183   6.804  10.682  0.2679 -0.3669  0.2154
   90loPI   GL1 1429   9.100   6.809  10.353  0.0672  0.0984  0.0712
   90loPI   GL2 1430   8.973   7.030  10.173 -0.1397  0.0296  0.3193
   90loPI   C1A 1431   9.429   6.927   9.957  0.4444  0.0166 -0.0892
   90loPI   C2A 1432   9.653   6.974   9.549  0.1534  0.1645  0.2248
   90loPI   C3A 1433   9.578   6.936   9.152  0.0377  0.1551  0.1312
   90loPI   C4A 1434   9.523   6.890   8.763 -0.1011 -0.1335  0.0250
   90loPI   C5A 1435   9.519   6.834   8.365  0.1039 -0.2164 -0.2657
   90loPI   C6A 1436   9.459   6.538   8.161 -0.0783  0.0538  0.1971
   90loPI   C1B 1437   9.094   6.610   9.855 -0.0647  0.2198  0.2993
   90loPI   C2B 1438   9.180   6.643   9.402 -0.0799  0.1088  0.1984
   90loPI   C3B 1439   9.068   6.535   9.018 -0.0485  0.1348  0.0662
   90loPI   C4B 1440   8.935   6.453   8.583 -0.0368 -0.0708  0.1445
   91loPI    C1 1441   5.989  10.351  11.139  0.1918  0.0301  0.3642
   91loPI    C2 1442   5.713  10.309  11.425 -0.1117 -0.1100  0.0576
   91loPI    C3 1443   5.748  10.031  11.139 -0.0294  0.1838 -0.2236
   91loPI   PO4 1444   6.029  10.504  11.060  0.1634 -0.0101  0.1506
   91loPI   GL1 1445   6.144  10.535  10.666 -0.3148 -0.0122 -0.0952
   91loPI   GL2 1446   6.012  10.373  10.601 -0.3014  0.2619  0.1099
   91loPI   C1A 1447   6.401  10.809  10.376  0.0985 -0.1700 -0.3043
   91loPI   C2A 1448   6.785  11.063  10.201 -0.1454 -0.1543 -0.2510
   91loPI   C3A 1449   6.910  11.233   9.779  0.1771 -0.0807  0.0435
   91loPI   C4A 1450   6.776  11.288   9.384  0.0707 -0.2699 -0.0371
   91loPI   C5A 1451   6.820  11.156   8.942  0.0707 -0.1655 -0.2438
   91loPI   C6A 1452   7.145  11.201   8.665 -0.0299  0.2575  0.1348
   91loPI   C1B 1453   6.203  10.357  10.161  0.0255  0.0687 -0.0122
   91loPI   C2B 1454   6.445  10.319   9.759  0.2418 -0.2749 -0.0152
   91loPI   C3B 1455   6.437  10.349   9.251  0.0336 -0.0821  0.1171
   91loPI   C4B 1456   6.366  10.536   8.841  0.0947 -0.0689 -0.2254
   92loPI    C1 1457   7.500  12.457  11.029 -0.0074 -0.1589 -0.2683
   92loPI    C2 1458   7.166  12.375  10.824 -0.2934  0.2093  0.0356
   92loPI    C3 1459   7.241  12.185  11.168 -0.0836 -0.0190 -0.1330
   92loPI   PO4 1460   7.711  12.450  10.767  0.0657 -0.0241 -0.3156
   92loPI   GL1 1461   7.840  12.273  10.405 -0.0792  0.2064 -0.2933
   92loPI   GL2 1462   7.993  11.954  10.292 -0.2128  0.2317  0.1092
   92loPI   C1A 1463   7.589  12.263  10.035 -0.0402 -0.1498  0.1219
   92loPI   C2A 1464   7.426  11.970   9.661  0.0223  0.4766 -0.1707
   92loPI   C3A 1465   7.204  12.025   9.329 -0.0751 -0.1566 -0.0724
   92loPI   C4A 1466   7.451  12.182   8.955  0.2062 -0.1200  0.1850
   92loPI   C5A 1467   7.782  12.276   8.752 -0.0606  0.1242 -0.1867
   92loPI   C6A 1468   8.093  12.411   8.569  0.0606  0.0551 -0.1385
   92loPI   C1B 1469   7.808  11.845   9.886  0.0003 -0.0951 -0.2273
   92loPI   C2B 1470   7.729  11.938   9.315  0.1462 -0.0571  0.0229
   92loPI   C3B 1471   7.701  11.798   8.831  0.1512  0.3521 -0.1197
   92loPI   C4B 1472   7.368  11.823   8.463 -0.1065  0.2289  0.1459
   93loPI    C1 1473   0.005  13.312  10.878 -0.1776 -0.0000 -0.0964
   93loPI    C2 1474  -0.071  13.690  10.772 -0.0412  0.0641  0.0307
   93loPI    C3 1475   0.040  13.606  11.147 -0.0808 -0.1038  0.0056
   93loPI   PO4 1476   0.110  13.169  10.734 -0.1564  0.0252  0.1018
   93loPI   GL1 1477   0.333  13.175  10.395 -0.0128  0.2189 -0.1291
   93loPI   GL2 1478   0.324  12.873  10.298  0.0213 -0.0468 -0.1116
   93loPI   C1A 1479   0.338  13.311   9.991  0.5523 -0.0838  0.0831
   93loPI   C2A 1480   0.350  13.380   9.623 -0.1915  0.0292  0.1023
   93loPI   C3A 1481   0.276  13.365   9.259  0.0705  0.0958 -0.0020
   93loPI   C4A 1482   0.292  13.321   8.792  0.1749 -0.2770 -0.0775
   93loPI   C5A 1483   0.472  13.206   8.426 -0.0874  0.3735 -0.1197
   93loPI   C6A 1484   0.752  12.984   8.321 -0.0938  0.0957 -0.2235
   93loPI   C1B 1485   0.316  12.817   9.850 -0.1873  0.1306  0.0153
   93loPI   C2B 1486   0.299  12.896   9.350  0.0361 -0.1559  0.1661
   93loPI   C3B 1487   0.184  12.798   9.029 -0.0092  0.0136 -0.0057
   93loPI   C4B 1488   0.152  12.876   8.600  0.0767 -0.1546  0.1337
   94loPI    C1 1489  11.483  11.816  10.380 -0.0710  0.0451 -0.2372
   94loPI    C2 1490  11.196  11.552  10.291 -0.3812  0.2498  0.1209
   94loPI    C3 1491  11.408  11.511  10.627 -0.0178  0.1287 -0.1167
   94loPI   PO4 1492  11.652  11.883  10.127  0.0555 -0.0388  0.0052
   94loPI   GL1 1493  11.610  11.872   9.723  0.0366  0.3376 -0.0330
   94loPI   GL2 1494  11.902  11.931   9.615 -0.2566  0.0571 -0.2895
   94loPI   C1A 1495  11.290  12.198   9.458 -0.1685  0.0343  0.0870
   94loPI   C2A 1496  11.105  12.351   9.102  0.2682  0.1143  0.1872
   94loPI   C3A 1497  10.706  12.511   8.861  0.0889  0.0991 -0.1918
   94loPI   C4A 1498  10.574  12.475   8.500 -0.3991  0.2122 -0.0602
   94loPI   C5A 1499  10.819  12.306   8.215  0.1344 -0.2052 -0.0612
   94loPI   C6A 1500  11.106  12.663   8.123  0.1561 -0.0038  0.1218
   94loPI   C1B 1501  12.050  12.046   9.144 -0.1526  0.1110 -0.1373
   94loPI   C2B 1502  12.081  12.204   8.683 -0.0410  0.0334  0.0331
   94loPI   C3B 1503  12.021  12.344   8.243  0.0686 -0.2954  0.1758
   94loPI   C4B 1504  11.853  12.157   7.808  0.1657  0.0199 -0.3463
   95loPI    C1 1505   9.641  15.487  11.059 -0.0665  0.1450 -0.0587
   95loPI    C2 1506   9.668  15.836  11.252  0.0092  0.0165  0.1657
   95loPI    C3 1507   9.720  15.492  11.451  0.0183 -0.1205 -0.0703
   95loPI   PO4 1508   9.418  15.516  10.867 -0.1577 -0.3438  0.1449
   95loPI   GL1 1509   9.244  15.322  10.512 -0.1254 -0.3598  0.0293
   95loPI   GL2 1510   9.199  15.554  10.360  0.2205 -0.0504  0.1392
   95loPI   C1A 1511   8.980  15.055  10.156 -0.0925  0.0345 -0.0516
   95loPI   C2A 1512   8.645  15.066   9.837  0.0834  0.0418 -0.1224
   95loPI   C3A 1513   8.728  15.063   9.347  0.0450  0.1661  0.0745
   95loPI   C4A 1514   8.577  15.146   8.867  0.2088 -0.4894 -0.0260
   95loPI   C5A 1515   8.473  15.183   8.454  0.1420 -0.2307 -0.1755
   95loPI   C6A 1516   8.169  15.115   8.115 -0.1026  0.0905 -0.1122
   95loPI   C1B 1517   9.140  15.475   9.951 -0.1607  0.3060  0.1521
   95loPI   C2B 1518   9.122  15.490   9.507  0.4030  0.0435 -0.1644
   95loPI   C3B 1519   9.067  15.466   9.112  0.1160 -0.2678  0.2388
   95loPI   C4B 1520   9.011  15.395   8.625 -0.3431  0.0192  0.0538
   96loPI    C1 1521  14.201   3.975  10.192 -0.1031 -0.2125  0.1347
   96loPI    C2 1522  13.930   4.261  10.261  0.1395  0.0655 -0.0341
   96loPI    C3 1523  14.194   4.162  10.545 -0.0559 -0.1197  0.0869
   96loPI   PO4 1524  14.336   4.127   9.997  0.1201 -0.2246  0.0680
   96loPI   GL1 1525  14.457   4.022   9.590  0.2988 -0.2866 -0.3163
   96loPI   GL2 1526  14.343   4.392   9.564  0.0086 -0.0020  0.0161
   96loPI   C1A 1527  14.066   3.863   9.271  0.1020 -0.1713 -0.0703
   96loPI   C2A 1528  13.633   3.740   9.128 -0.1183 -0.0200  0.0870
   96loPI   C3A 1529  13.269   3.541   8.863  0.0433  0.1824  0.1102
   96loPI   C4A 1530  13.060   3.517   8.457 -0.0304 -0.1061  0.0581
   96loPI   C5A 1531  13.237   3.480   8.158 -0.1719  0.0134 -0.0490
   96loPI   C6A 1532  13.651   3.493   7.995  0.0016  0.2225 -0.2139
   96loPI   C1B 1533  13.995   4.390   9.195 -0.0709 -0.0362 -0.0788
   96loPI   C2B 1534  13.847   4.549   8.712 -0.4189  0.0718 -0.0643
   96loPI   C3B 1535  13.984   4.737   8.318  0.1475 -0.0200  0.1153
   96loPI   C4B 1536  14.132   4.937   7.995 -0.2419 -0.0527  0.2892
   97loPI    C1 1537  17.466   9.490  10.647 -0.1794  0.2826 -0.1522
   97loPI    C2 1538  17.865   9.497  10.675 -0.1830  0.2528 -0.0873
   97loPI    C3 1539  17.656   9.216  10.869 -0.2221  0.1429 -0.2860
   97loPI   PO4 1540  17.472   9.550  10.395 -0.1795  0.4907 -0.2648
   97loPI   GL1 1541  17.401   9.338  10.015 -0.2626 -0.0225  0.1728
   97loPI   GL2 1542  17.407   9.613   9.878  0.0028 -0.0830 -0.0175
   97loPI   C1A 1543  17.284   9.207   9.614  0.0777 -0.0369 -0.3888
   97loPI   C2A 1544  17.255   9.159   9.196  0.2691  0.2649 -0.0655
   97loPI   C3A 1545  17.614   9.318   8.815 -0.3509  0.2666  0.1440
   97loPI   C4A 1546  17.720   9.061   8.536  0.3294 -0.1055  0.0921
   97loPI   C5A 1547  18.191   9.039   8.348  0.1005  0.1568  0.0206
   97loPI   C6A 1548  18.627   9.174   8.354 -0.0785 -0.0491 -0.0982
   97loPI   C1B 1549  17.259   9.684   9.484 -0.1022  0.0056  0.1216
   97loPI   C2B 1550  17.274   9.692   9.080  0.1331  0.2152  0.2507
   97loPI   C3B 1551  17.325   9.801   8.705  0.0790  0.0576 -0.0654
   97loPI   C4B 1552  17.495   9.813   8.307  0.0356  0.0988 -0.2571
   98loPI    C1 1553  14.060   7.627  10.988 -0.0492 -0.1363 -0.1085
   98loPI    C2 1554  14.392   7.578  11.206 -0.1611  0.1370  0.1298
   98loPI    C3 1555  14.203   7.260  11.055  0.1480 -0.0273  0.0809
   98loPI   PO4 1556  14.082   7.746  10.703 -0.0304  0.1991  0.0252
   98loPI   GL1 1557  14.171   7.702  10.266 -0.3210  0.1890  0.1498
   98loPI   GL2 1558  14.573   7.724  10.319 -0.1982 -0.2512  0.2360
   98loPI   C1A 1559  13.982   7.503   9.864  0.2371 -0.0715  0.1198
   98loPI   C2A 1560  13.976   7.464   9.435 -0.0077 -0.0256  0.3577
   98loPI   C3A 1561  13.916   7.562   8.980 -0.3196 -0.0842  0.0390
   98loPI   C4A 1562  13.982   7.512   8.545  0.2858 -0.0154 -0.0630
   98loPI   C5A 1563  14.103   7.568   8.109  0.0326 -0.2420 -0.3430
   98loPI   C6A 1564  14.195   7.631   7.640  0.2547 -0.0726  0.1927
   98loPI   C1B 1565  14.398   7.852   9.817 -0.0981 -0.1841 -0.2114
   98loPI   C2B 1566  14.428   7.764   9.414  0.2020  0.1874  0.0074
   98loPI   C3B 1567  14.446   7.857   8.926  0.2121 -0.0622  0.1023
   98loPI   C4B 1568  14.460   7.790   8.421  0.1322  0.0412 -0.2134
   99loPI    C1 1569  12.776   2.590  10.070  0.1842  0.1056  0.2355
   99loPI    C2 1570  12.776   2.780  10.422 -0.0128  0.1238  0.2271
   99loPI    C3 1571  12.630   2.409  10.395  0.0604  0.0983  0.1766
   99loPI   PO4 1572  13.013   2.612   9.950  0.0032 -0.2515  0.3787
   99loPI   GL1 1573  13.345   2.441   9.597  0.1030  0.1148 -0.2476
   99loPI   GL2 1574  13.423   2.128   9.765 -0.1545 -0.0774  0.0920
   99loPI   C1A 1575  13.449   2.317   9.232  0.2263  0.2934 -0.1205
   99loPI   C2A 1576  13.441   2.192   8.738 -0.0984 -0.0220  0.2136
   99loPI   C3A 1577  13.386   2.045   8.226 -0.0859 -0.0100  0.0552
   99loPI   C4A 1578  13.545   1.798   7.866 -0.0953 -0.2337  0.1640
   99loPI   C5A 1579  13.864   1.536   7.867 -0.0548  0.1759 -0.4482
   99loPI   C6A 1580  14.078   1.113   7.974 -0.1212 -0.2466  0.1477
   99loPI   C1B 1581  13.148   1.978   9.500  0.0899 -0.1311  0.0810
   99loPI   C2B 1582  13.188   1.952   9.058  0.1836 -0.0036  0.0690
   99loPI   C3B 1583  12.996   2.037   8.622 -0.0301 -0.1472  0.0208
   99loPI   C4B 1584  12.938   1.829   8.253 -0.1397  0.0613  0.0728
  100loPI    C1 1585  15.087   6.782  10.823  0.1109  0.0205 -0.2639
  100loPI    C2 1586  15.469   6.882  10.885  0.0689  0.0884 -0.1097
  100loPI    C3 1587  15.357   6.499  10.907  0.0523  0.1112  0.2613
  100loPI   PO4 1588  15.018   6.884  10.585 -0.0616 -0.0205  0.0768
  100loPI   GL1 1589  14.739   7.069  10.200 -0.2185 -0.1964 -0.1529
  100loPI   GL2 1590  14.444   7.233   9.981  0.1812  0.1427  0.1699
  100loPI   C1A 1591  14.949   7.081   9.761  0.1031 -0.1955  0.1804
  100loPI   C2A 1592  15.025   7.131   9.348 -0.1618  0.1400 -0.4831
  100loPI   C3A 1593  14.926   7.092   8.951  0.2374  0.0165 -0.1691
  100loPI   C4A 1594  14.991   7.241   8.577 -0.1979  0.1001  0.1646
  100loPI   C5A 1595  15.255   7.348   8.162 -0.0826 -0.4255  0.0391
  100loPI   C6A 1596  15.057   7.105   7.852 -0.1115 -0.1037  0.2791
  100loPI   C1B 1597  14.421   7.295   9.533  0.1053  0.2840  0.2306
  100loPI   C2B 1598  14.376   7.349   9.147  0.0530  0.1907 -0.0971
  100loPI   C3B 1599  14.498   7.294   8.704  0.1651 -0.0771 -0.1111
  100loPI   C4B 1600  14.594   7.321   8.211  0.0853 -0.0673  0.5170
  101loPI    C1 1601  12.384   7.132  11.081  0.3140 -0.1596 -0.0929
  101loPI    C2 1602  12.391   7.314  11.437  0.5100 -0.0475 -0.1532
  101loPI    C3 1603  12.347   6.917  11.416  0.3028 -0.0329 -0.0125
  101loPI   PO4 1604  12.507   7.165  10.828  0.1726 -0.1313  0.2526
  101loPI   GL1 1605  12.516   7.220  10.378 -0.2046 -0.0062 -0.0118
  101loPI   GL2 1606  12.744   7.258  10.392 -0.2741  0.2626  0.2015
  101loPI   C1A 1607  12.333   6.897  10.099 -0.1006  0.2107 -0.0752
  101loPI   C2A 1608  12.292   6.725   9.685 -0.1306 -0.0642 -0.1715
  101loPI   C3A 1609  12.309   6.735   9.297 -0.0649 -0.1816 -0.0003
  101loPI   C4A 1610  12.172   6.755   8.857 -0.2537  0.1468 -0.2350
  101loPI   C5A 1611  12.233   6.716   8.511  0.1320  0.0336  0.1129
  101loPI   C6A 1612  12.385   6.950   8.163 -0.1109 -0.2714  0.1103
  101loPI   C1B 1613  12.715   7.157   9.888 -0.0555  0.0785  0.0589
  101loPI   C2B 1614  12.705   7.048   9.550  0.2888  0.2418  0.0367
  101loPI   C3B 1615  12.674   6.977   9.121  0.0063 -0.0406 -0.3126
  101loPI   C4B 1616  12.652   7.036   8.732 -0.0687  0.3616  0.2426
  102loPI    C1 1617   0.610   3.382  10.712 -0.0218  0.0559 -0.1231
  102loPI    C2 1618   0.503   3.714  10.517 -0.1467  0.0006 -0.1492
  102loPI    C3 1619   0.242   3.531  10.759 -0.0835 -0.0875 -0.1472
  102loPI   PO4 1620   0.736   3.204  10.549  0.2394 -0.1872  0.0390
  102loPI   GL1 1621   0.819   3.019   9.997  0.2207 -0.1153 -0.2463
  102loPI   GL2 1622   1.117   3.063  10.199  0.0264 -0.1369 -0.2760
  102loPI   C1A 1623   0.858   3.013   9.559 -0.1462 -0.0092 -0.2830
  102loPI   C2A 1624   0.845   2.892   9.188 -0.2309  0.1776 -0.1104
  102loPI   C3A 1625   0.771   2.884   8.820  0.2092  0.0117  0.0326
  102loPI   C4A 1626   0.887   2.979   8.383  0.2283  0.0628  0.0213
  102loPI   C5A 1627   0.768   3.247   8.063  0.0639  0.3174 -0.0552
  102loPI   C6A 1628   0.579   3.596   8.196  0.1068  0.0671 -0.3700
  102loPI   C1B 1629   1.310   3.185   9.745  0.2751 -0.4364  0.0223
  102loPI   C2B 1630   1.272   3.229   9.290  0.0154  0.0975  0.1480
  102loPI   C3B 1631   1.039   3.333   8.914  0.0085  0.2952  0.0826
  102loPI   C4B 1632   0.899   3.480   8.569 -0.0268  0.2496  0.0848
  103loPI    C1 1633   5.261   1.795  10.750 -0.0765  0.1088 -0.1974
  103loPI    C2 1634   4.899   1.728  10.906 -0.0318 -0.1028 -0.1820
  103loPI    C3 1635   5.121   2.033  11.039 -0.0404 -0.2123  0.0901
  103loPI   PO4 1636   5.271   1.874  10.533 -0.0037 -0.0110 -0.0417
  103loPI   GL1 1637   5.617   1.818  10.274 -0.1782 -0.0524 -0.3946
  103loPI   GL2 1638   5.760   1.501  10.266 -0.1709 -0.4206  0.2386
  103loPI   C1A 1639   5.927   1.959  10.000  0.2007 -0.0371  0.0579
  103loPI   C2A 1640   5.932   2.007   9.484  0.2720  0.2112 -0.1490
  103loPI   C3A 1641   6.038   2.084   9.137  0.1231  0.2251  0.0674
  103loPI   C4A 1642   6.297   1.947   8.931  0.2071 -0.0826 -0.2150
  103loPI   C5A 1643   6.408   1.843   8.527 -0.0853 -0.0222 -0.1222
  103loPI   C6A 1644   6.471   1.557   8.177 -0.0787  0.1149 -0.1665
  103loPI   C1B 1645   5.626   1.574   9.846  0.3024 -0.1783  0.0737
  103loPI   C2B 1646   5.550   1.613   9.327  0.3559  0.1045 -0.1611
  103loPI   C3B 1647   5.251   1.726   9.010  0.0226 -0.0263  0.0098
  103loPI   C4B 1648   5.174   1.896   8.574 -0.3875  0.1298 -0.1400
  104loPI    C1 1649  12.001  17.870  10.588  0.0501  0.2063 -0.1583
  104loPI    C2 1650  12.329  17.697  10.736  0.0276  0.1313 -0.1954
  104loPI    C3 1651  12.144  17.985  10.942  0.0300  0.0684 -0.1047
  104loPI   PO4 1652  12.075  17.878  10.361  0.0523 -0.1820  0.3723
  104loPI   GL1 1653  12.106  18.174  10.060 -0.0477 -0.1499  0.1794
  104loPI   GL2 1654  12.311  17.893   9.905  0.0788  0.2544  0.3883
  104loPI   C1A 1655  11.993  18.184   9.654 -0.3015 -0.2595  0.1175
  104loPI   C2A 1656  11.954  18.459   9.298 -0.1587  0.0277  0.3238
  104loPI   C3A 1657  12.028  18.376   8.797 -0.1760 -0.0123 -0.0942
  104loPI   C4A 1658  11.773  18.311   8.431 -0.0463 -0.1121  0.1543
  104loPI   C5A 1659  11.396  18.352   8.445 -0.2425 -0.1200 -0.0814
  104loPI   C6A 1660  11.068  18.394   8.745 -0.0835 -0.0795  0.1828
  104loPI   C1B 1661  12.432  17.916   9.511 -0.1129 -0.2128 -0.1645
  104loPI   C2B 1662  12.548  17.785   9.093 -0.2649  0.5660 -0.3051
  104loPI   C3B 1663  12.538  17.695   8.640  0.0357 -0.0268 -0.1515
  104loPI   C4B 1664  12.664  17.722   8.261  0.0112  0.2280 -0.0814
  105loPI    C1 1665  17.733   4.823  10.115  0.0867  0.2074 -0.0141
  105loPI    C2 1666  17.677   4.466  10.286 -0.0072  0.0592 -0.3449
  105loPI    C3 1667  17.750   4.788  10.513  0.1452 -0.1794 -0.0470
  105loPI   PO4 1668  17.895   4.760   9.968  0.0432 -0.2905  0.3179
  105loPI   GL1 1669  17.883   4.720   9.522 -0.0392 -0.1043 -0.0925
  105loPI   GL2 1670  17.505   4.680   9.677  0.0876  0.1081  0.2416
  105loPI   C1A 1671  17.802   4.671   9.143 -0.0802 -0.1293  0.2632
  105loPI   C2A 1672  17.478   4.735   8.843  0.3827 -0.0097  0.2635
  105loPI   C3A 1673  17.250   4.770   8.500 -0.1330  0.0226 -0.0453
  105loPI   C4A 1674  17.048   4.799   8.093 -0.1247  0.1890  0.1868
  105loPI   C5A 1675  16.894   4.922   7.740  0.1961 -0.0986 -0.3983
  105loPI   C6A 1676  16.552   5.187   7.579  0.2713 -0.1532 -0.0493
  105loPI   C1B 1677  17.527   4.330   9.418 -0.1516 -0.0705  0.0574
  105loPI   C2B 1678  17.570   4.269   9.075  0.2015 -0.1247  0.1636
  105loPI   C3B 1679  17.341   4.239   8.623 -0.1350 -0.0020  0.1136
  105loPI   C4B 1680  17.001   4.252   8.195 -0.1219 -0.0327 -0.0742
  106loPI    C1 1681   7.067   6.415  10.594  0.2950 -0.0546 -0.0260
  106loPI    C2 1682   7.151   6.034  10.685 -0.1848 -0.1286  0.1340
  106loPI    C3 1683   7.025   6.285  10.970 -0.0826  0.0933 -0.0127
  106loPI   PO4 1684   6.873   6.428  10.421  0.2140 -0.1252 -0.2228
  106loPI   GL1 1685   6.705   6.548   9.942  0.1017  0.1357 -0.0249
  106loPI   GL2 1686   6.761   6.322   9.945 -0.0369  0.2739  0.2238
  106loPI   C1A 1687   6.731   6.801   9.594  0.2617  0.2367 -0.0915
  106loPI   C2A 1688   6.653   6.813   9.195 -0.1530 -0.0532 -0.1478
  106loPI   C3A 1689   6.791   6.867   8.845 -0.1782 -0.0399 -0.0539
  106loPI   C4A 1690   6.634   7.076   8.556 -0.1733  0.2424 -0.1732
  106loPI   C5A 1691   6.429   7.295   8.205 -0.1555 -0.0331  0.1552
  106loPI   C6A 1692   6.350   7.679   8.198 -0.2335  0.3112 -0.0778
  106loPI   C1B 1693   6.726   6.303   9.509 -0.2811 -0.3533 -0.1134
  106loPI   C2B 1694   6.740   6.341   9.166  0.1707  0.1702 -0.0540
  106loPI   C3B 1695   6.859   6.333   8.772  0.0885  0.2498 -0.1943
  106loPI   C4B 1696   7.094   6.630   8.559 -0.3235  0.2083  0.0241
  107loPI    C1 1697  10.665  10.924  11.023  0.0415  0.1303  0.0987
  107loPI    C2 1698  10.583  11.311  10.960 -0.2911  0.0500  0.0191
  107loPI    C3 1699  10.595  11.166  11.333 -0.1523  0.1383  0.0497
  107loPI   PO4 1700  10.441  10.864  10.781  0.1017  0.1062  0.1928
  107loPI   GL1 1701  10.393  10.836  10.310  0.2065 -0.0664  0.2585
  107loPI   GL2 1702  10.073  10.928  10.272  0.0849 -0.0673 -0.0604
  107loPI   C1A 1703  10.519  10.730   9.896  0.1990  0.2649  0.3358
  107loPI   C2A 1704  10.525  10.674   9.441  0.3909  0.1036 -0.2474
  107loPI   C3A 1705  10.581  10.774   9.031  0.1884  0.0709 -0.2258
  107loPI   C4A 1706  10.472  10.921   8.666  0.0887  0.0151  0.0817
  107loPI   C5A 1707  10.139  11.148   8.410 -0.2095  0.0121  0.2945
  107loPI   C6A 1708  10.263  11.525   8.201  0.0313  0.0092 -0.1488
  107loPI   C1B 1709   9.996  10.940   9.883 -0.1131 -0.2050 -0.0389
  107loPI   C2B 1710  10.135  10.913   9.407 -0.2326 -0.0032  0.0020
  107loPI   C3B 1711  10.039  10.983   9.055 -0.4805  0.0486  0.2220
  107loPI   C4B 1712   9.786  10.987   8.659 -0.1578 -0.5580  0.1844
  108loPI    C1 1713   8.733   8.130  10.660 -0.0530 -0.0536 -0.1609
  108loPI    C2 1714   8.911   8.269  10.990 -0.2270 -0.1010 -0.0461
  108loPI    C3 1715   9.101   8.285  10.639 -0.1768  0.2691 -0.0056
  108loPI   PO4 1716   8.612   7.907  10.633 -0.2624  0.0341 -0.3262
  108loPI   GL1 1717   8.541   8.013  10.213 -0.0062  0.0905 -0.1185
  108loPI   GL2 1718   8.772   8.086  10.011 -0.0399 -0.1114  0.0953
  108loPI   C1A 1719   8.409   7.747   9.887 -0.0203 -0.0956 -0.0125
  108loPI   C2A 1720   8.342   7.781   9.397 -0.0723 -0.1791  0.0452
  108loPI   C3A 1721   8.445   7.683   8.956 -0.1791  0.0295 -0.1696
  108loPI   C4A 1722   8.352   7.597   8.545 -0.1412 -0.0331 -0.0571
  108loPI   C5A 1723   8.260   7.900   8.253 -0.0802  0.0007  0.0879
  108loPI   C6A 1724   8.096   7.990   7.787  0.2762  0.0258 -0.1112
  108loPI   C1B 1725   8.806   8.053   9.574  0.2676 -0.1436 -0.5164
  108loPI   C2B 1726   8.873   8.064   9.202 -0.0082 -0.1404  0.2691
  108loPI   C3B 1727   8.838   8.108   8.735 -0.0116 -0.0743  0.0042
  108loPI   C4B 1728   8.556   8.259   8.429  0.0047  0.1205 -0.0931
  109loPI    C1 1729  13.839   8.657  11.023 -0.0267 -0.1119 -0.0657
  109loPI    C2 1730  13.533   8.669  11.280 -0.0279  0.0406 -0.0731
  109loPI    C3 1731  13.855   8.447  11.363 -0.1225 -0.0881 -0.0461
  109loPI   PO4 1732  13.747   8.652  10.682  0.2055 -0.3857 -0.1001
  109loPI   GL1 1733  13.649   8.518  10.317  0.3075 -0.2398 -0.1298
  109loPI   GL2 1734  13.432   8.383  10.236  0.0043 -0.2796 -0.0750
  109loPI   C1A 1735  13.848   8.524   9.915 -0.1925 -0.1300  0.0821
  109loPI   C2A 1736  13.854   8.519   9.424 -0.0784  0.3514 -0.0951
  109loPI   C3A 1737  13.880   8.505   8.945 -0.0709 -0.1000 -0.1436
  109loPI   C4A 1738  13.861   8.452   8.478  0.0153 -0.0114  0.1431
  109loPI   C5A 1739  13.797   8.436   8.006 -0.1206  0.1569  0.3565
  109loPI   C6A 1740  13.491   8.518   7.749  0.0916 -0.2041 -0.0004
  109loPI   C1B 1741  13.304   8.573   9.886 -0.1514 -0.0150 -0.2423
  109loPI   C2B 1742  13.390   8.634   9.411 -0.2044 -0.0194  0.6304
  109loPI   C3B 1743  13.400   8.695   8.937 -0.1896  0.1345  0.0387
  109loPI   C4B 1744  13.388   8.643   8.478 -0.1627  0.0894 -0.0001
  110loPI    C1 1745  11.504  13.479  10.543  0.1761  0.0911  0.0806
  110loPI    C2 1746  11.431  13.652  10.896  0.1013 -0.0794  0.1500
  110loPI    C3 1747  11.547  13.270  10.881 -0.1041 -0.1370 -0.0200
  110loPI   PO4 1748  11.582  13.807  10.405 -0.0886 -0.1949  0.1857
  110loPI   GL1 1749  11.498  14.065  10.045  0.0029  0.3136 -0.0053
  110loPI   GL2 1750  11.222  14.183   9.816  0.1741  0.0662 -0.1396
  110loPI   C1A 1751  11.761  14.038   9.713 -0.2399  0.3221  0.1453
  110loPI   C2A 1752  11.816  14.109   9.266  0.1566  0.1998 -0.1100
  110loPI   C3A 1753  11.894  14.023   8.854  0.0534  0.1242 -0.2742
  110loPI   C4A 1754  12.039  14.119   8.515 -0.0451 -0.0752  0.1577
  110loPI   C5A 1755  12.037  14.352   8.141 -0.1093  0.1322  0.1353
  110loPI   C6A 1756  11.967  14.244   7.795  0.2330 -0.4050  0.1099
  110loPI   C1B 1757  11.363  14.286   9.373 -0.2330 -0.0142  0.0643
  110loPI   C2B 1758  11.354  14.402   8.916  0.3410  0.2934 -0.4342
  110loPI   C3B 1759  11.566  14.267   8.494  0.2226  0.1246 -0.2803
  110loPI   C4B 1760  11.731  13.923   8.199 -0.2138  0.2832  0.0232
  111loPI    C1 1761  16.161   4.110  10.165  0.0219 -0.1455  0.0447
  111loPI    C2 1762  16.414   4.291  10.416 -0.0539 -0.0348  0.0420
  111loPI    C3 1763  16.049   4.189  10.541  0.0466 -0.3393  0.0937
  111loPI   PO4 1764  16.367   3.980  10.029 -0.3027 -0.1741 -0.2753
  111loPI   GL1 1765  16.630   4.145   9.767  0.0200  0.1769 -0.0104
  111loPI   GL2 1766  16.601   4.446   9.776 -0.0967 -0.0494  0.1649
  111loPI   C1A 1767  16.469   4.009   9.376  0.0616 -0.0231  0.1369
  111loPI   C2A 1768  16.424   3.835   9.025  0.2917  0.1256  0.0123
  111loPI   C3A 1769  16.458   3.621   8.650 -0.0592 -0.1145 -0.0183
  111loPI   C4A 1770  16.428   3.479   8.259  0.0255  0.1348  0.0361
  111loPI   C5A 1771  16.288   3.121   8.161  0.2878 -0.2631 -0.0334
  111loPI   C6A 1772  15.983   3.046   7.882 -0.0483  0.0463 -0.2099
  111loPI   C1B 1773  16.556   4.547   9.378  0.1099  0.0474  0.2119
  111loPI   C2B 1774  16.541   4.360   9.013 -0.0245 -0.2664  0.0043
  111loPI   C3B 1775  16.397   4.241   8.581 -0.1022 -0.1142 -0.0917
  111loPI   C4B 1776  16.231   3.943   8.295  0.0190 -0.0917  0.1757
  112loPI    C1 1777  11.309  16.074  10.901 -0.1672  0.0999 -0.0356
  112loPI    C2 1778  11.419  16.122  11.282  0.0197 -0.2461 -0.0426
  112loPI    C3 1779  11.043  16.018  11.195  0.0149 -0.3144  0.0569
  112loPI   PO4 1780  11.241  16.330  10.738  0.2165  0.0959  0.1088
  112loPI   GL1 1781  11.356  16.310  10.241 -0.1536 -0.0875  0.5896
  112loPI   GL2 1782  11.435  16.631  10.329  0.2544 -0.0103 -0.2888
  112loPI   C1A 1783  11.677  16.406   9.931 -0.0205 -0.0053 -0.1760
  112loPI   C2A 1784  11.698  16.618   9.581  0.1498  0.2293  0.0858
  112loPI   C3A 1785  11.718  16.601   9.151 -0.2183  0.1146  0.0930
  112loPI   C4A 1786  11.629  16.601   8.714 -0.0994  0.0948  0.1289
  112loPI   C5A 1787  11.647  16.608   8.289 -0.0873 -0.1810 -0.0410
  112loPI   C6A 1788  11.924  16.447   7.954 -0.2104 -0.0915  0.1693
  112loPI   C1B 1789  11.500  16.898   9.914 -0.0523  0.0016 -0.0882
  112loPI   C2B 1790  11.315  16.942   9.460 -0.0831 -0.2348  0.1455
  112loPI   C3B 1791  11.207  16.887   9.119 -0.0703 -0.2586  0.1733
  112loPI   C4B 1792  11.212  16.898   8.666 -0.2267  0.0474  0.0754
  113loPI    C1 1793   7.246  13.230  10.641 -0.1709 -0.1591 -0.0931
  113loPI    C2 1794   7.140  13.244  11.026  0.0605  0.1680 -0.0375
  113loPI    C3 1795   7.189  12.891  10.845  0.2186  0.0075  0.3092
  113loPI   PO4 1796   7.014  13.475  10.563  0.1746  0.3767  0.1586
  113loPI   GL1 1797   6.936  13.704  10.145 -0.1558 -0.0988 -0.2006
  113loPI   GL2 1798   6.687  13.942  10.141  0.0073 -0.1990 -0.2509
  113loPI   C1A 1799   6.990  13.788   9.761  0.2049 -0.0089 -0.3003
  113loPI   C2A 1800   7.159  13.655   9.367 -0.0551  0.0038  0.2528
  113loPI   C3A 1801   7.131  13.551   8.933  0.0032  0.1772  0.0202
  113loPI   C4A 1802   6.990  13.412   8.559  0.1169 -0.0288  0.1342
  113loPI   C5A 1803   6.756  13.203   8.295 -0.1518 -0.0813  0.0118
  113loPI   C6A 1804   6.567  13.437   7.933  0.2563 -0.1006 -0.4978
  113loPI   C1B 1805   6.518  13.844   9.683  0.1028 -0.0555 -0.1784
  113loPI   C2B 1806   6.620  13.844   9.229  0.0609 -0.2203  0.0196
  113loPI   C3B 1807   6.729  13.830   8.784 -0.1420  0.1119 -0.0405
  113loPI   C4B 1808   6.761  13.774   8.354  0.0664 -0.1385 -0.0660
  114loPI    C1 1809   4.190  13.981  10.794 -0.2287 -0.0648  0.1924
  114loPI    C2 1810   4.522  14.201  10.839 -0.1905 -0.0720 -0.0413
  114loPI    C3 1811   4.510  13.826  10.977 -0.1427 -0.0320  0.0717
  114loPI   PO4 1812   4.141  13.962  10.549  0.1112 -0.3788  0.0162
  114loPI   GL1 1813   3.851  14.022  10.260 -0.2092 -0.2855  0.4172
  114loPI   GL2 1814   3.579  14.096  10.231  0.3386 -0.3776  0.1985
  114loPI   C1A 1815   3.963  13.815   9.773  0.1788 -0.3063  0.0418
  114loPI   C2A 1816   4.118  13.837   9.328 -0.0493  0.1701 -0.0820
  114loPI   C3A 1817   3.969  14.009   8.924 -0.1188  0.0530  0.3383
  114loPI   C4A 1818   3.723  13.892   8.510 -0.2016  0.1435  0.1724
  114loPI   C5A 1819   3.582  13.570   8.174 -0.0007 -0.1558 -0.2721
  114loPI   C6A 1820   3.542  13.172   7.885 -0.1129  0.3649  0.0500
  114loPI   C1B 1821   3.552  13.680  10.053  0.0881 -0.1710 -0.0330
  114loPI   C2B 1822   3.527  13.517   9.673  0.2406  0.1328 -0.0351
  114loPI   C3B 1823   3.523  13.576   9.270 -0.0575 -0.0815 -0.1423
  114loPI   C4B 1824   3.629  13.604   8.932 -0.4841 -0.1522 -0.0337
  115loPI    C1 1825   5.205  16.497  10.662 -0.1858  0.2662  0.0660
  115loPI    C2 1826   5.535  16.721  10.703  0.1388 -0.1920  0.0312
  115loPI    C3 1827   5.394  16.514  11.015 -0.0325 -0.1139  0.0067
  115loPI   PO4 1828   5.180  16.514  10.345  0.2280 -0.1987 -0.3129
  115loPI   GL1 1829   4.962  16.503  10.083  0.3446 -0.1191 -0.1419
  115loPI   GL2 1830   5.238  16.517   9.865 -0.1802  0.0466  0.1166
  115loPI   C1A 1831   4.836  16.619   9.660 -0.0074 -0.1556  0.1206
  115loPI   C2A 1832   4.788  16.862   9.309 -0.2206  0.2070 -0.0725
  115loPI   C3A 1833   4.743  16.841   8.904 -0.2744  0.0519  0.1310
  115loPI   C4A 1834   4.791  16.822   8.506 -0.2970 -0.0379 -0.0643
  115loPI   C5A 1835   5.100  16.648   8.318 -0.0036 -0.1934 -0.1260
  115loPI   C6A 1836   5.506  16.877   8.171  0.1354  0.0253  0.3050
  115loPI   C1B 1837   5.300  16.406   9.516  0.0911  0.1785 -0.0508
  115loPI   C2B 1838   5.060  16.470   9.212 -0.3947 -0.2203 -0.2314
  115loPI   C3B 1839   5.126  16.485   8.752 -0.2256 -0.2050  0.0846
  115loPI   C4B 1840   5.124  16.165   8.465 -0.0950 -0.1186 -0.1662
  116loPI    C1 1841  17.105   7.459  10.756 -0.1498  0.0318 -0.0700
  116loPI    C2 1842  17.115   7.074  10.864  0.2057  0.0021 -0.1941
  116loPI    C3 1843  17.119   7.360  11.143 -0.1863 -0.0815 -0.0973
  116loPI   PO4 1844  16.875   7.465  10.643 -0.3293  0.0391  0.0026
  116loPI   GL1 1845  16.754   7.461  10.227 -0.1194 -0.0703 -0.1140
  116loPI   GL2 1846  16.437   7.378  10.113 -0.0041  0.1534  0.1618
  116loPI   C1A 1847  16.861   7.442   9.806  0.2026 -0.1317  0.1093
  116loPI   C2A 1848  16.795   7.434   9.409  0.1706  0.3273  0.0692
  116loPI   C3A 1849  16.734   7.600   8.979  0.1714  0.3210  0.1987
  116loPI   C4A 1850  16.728   7.487   8.494 -0.1617  0.1229  0.3817
  116loPI   C5A 1851  16.768   7.513   8.011  0.0614 -0.2209 -0.1855
  116loPI   C6A 1852  17.237   7.491   7.730  0.1545 -0.0426 -0.2952
  116loPI   C1B 1853  16.355   7.531   9.655  0.2023  0.0295  0.0414
  116loPI   C2B 1854  16.301   7.600   9.230  0.0857  0.1052 -0.0745
  116loPI   C3B 1855  16.232   7.627   8.813  0.1209 -0.0858  0.2265
  116loPI   C4B 1856  16.115   7.511   8.467 -0.2010  0.4489 -0.0775
  117loPI    C1 1857   9.730  15.184  10.621 -0.1051  0.1905  0.1110
  117loPI    C2 1858   9.835  15.022  10.972 -0.0095  0.0010 -0.0034
  117loPI    C3 1859   9.479  14.937  10.810  0.0259 -0.0666 -0.0459
  117loPI   PO4 1860   9.995  15.119  10.461  0.1474  0.0254 -0.1949
  117loPI   GL1 1861  10.053  15.155  10.051  0.0008  0.3175 -0.0481
  117loPI   GL2 1862  10.009  14.763  10.026  0.2372  0.2183 -0.1219
  117loPI   C1A 1863   9.919  15.078   9.590 -0.1256  0.2108  0.0729
  117loPI   C2A 1864   9.863  15.079   9.123 -0.3096 -0.0361 -0.1796
  117loPI   C3A 1865   9.905  15.112   8.663  0.1130  0.4220 -0.1409
  117loPI   C4A 1866   9.861  15.183   8.189 -0.1120 -0.1916  0.2649
  117loPI   C5A 1867   9.891  15.305   7.766 -0.0835 -0.0685  0.1305
  117loPI   C6A 1868  10.162  15.422   7.413  0.2318 -0.1419  0.0721
  117loPI   C1B 1869  10.080  14.623   9.592 -0.1618 -0.0875  0.0557
  117loPI   C2B 1870  10.156  14.646   9.101 -0.3036  0.1508  0.5077
  117loPI   C3B 1871   9.833  14.661   8.881  0.4323 -0.0439  0.2627
  117loPI   C4B 1872   9.456  14.483   8.988  0.0613  0.1450 -0.0212
  118loPI    C1 1873   6.316   0.959  10.849  0.2356 -0.0193  0.0239
  118loPI    C2 1874   6.466   1.252  11.077  0.2756  0.1077 -0.1630
  118loPI    C3 1875   6.255   0.956  11.244  0.1517  0.2945  0.0163
  118loPI   PO4 1876   6.486   1.045  10.568  0.2113 -0.2802  0.0891
  118loPI   GL1 1877   6.557   0.814  10.202  0.4295 -0.3447  0.2593
  118loPI   GL2 1878   6.729   0.843   9.985  0.3573  0.2364  0.0298
  118loPI   C1A 1879   6.259   0.960   9.839 -0.1009 -0.1651  0.0716
  118loPI   C2A 1880   6.394   1.175   9.435  0.0151  0.1493 -0.0694
  118loPI   C3A 1881   6.541   1.194   9.047  0.0870  0.2993  0.3688
  118loPI   C4A 1882   6.418   0.843   8.820 -0.2098 -0.0767  0.0764
  118loPI   C5A 1883   6.053   0.907   8.545  0.0070  0.0310 -0.0473
  118loPI   C6A 1884   5.699   1.104   8.470  0.0396  0.2407  0.2872
  118loPI   C1B 1885   6.764   0.901   9.617  0.1075  0.0059  0.1048
  118loPI   C2B 1886   6.950   0.902   9.196 -0.0533 -0.0293  0.0312
  118loPI   C3B 1887   6.944   0.792   8.751 -0.1110  0.0543 -0.0966
  118loPI   C4B 1888   6.993   1.051   8.525 -0.1096 -0.2515 -0.1177
  119loPI    C1 1889   3.343  16.528  10.989 -0.0345 -0.0768 -0.1824
  119loPI    C2 1890   2.968  16.547  11.129  0.0637  0.1596  0.0593
  119loPI    C3 1891   3.100  16.824  10.872  0.0145 -0.0359 -0.1809
  119loPI   PO4 1892   3.338  16.243  10.870  0.0768  0.1216  0.1251
  119loPI   GL1 1893   3.286  16.095  10.491 -0.0104 -0.0211  0.1816
  119loPI   GL2 1894   3.402  16.477  10.425 -0.1192  0.0822 -0.0708
  119loPI   C1A 1895   3.601  16.044  10.177  0.0913 -0.0457  0.0315
  119loPI   C2A 1896   3.572  16.058   9.803  0.0304  0.0016  0.3468
  119loPI   C3A 1897   3.480  15.984   9.448 -0.2237  0.1954  0.2772
  119loPI   C4A 1898   3.638  15.879   9.010 -0.0123 -0.0661 -0.0233
  119loPI   C5A 1899   3.655  15.843   8.646 -0.3169 -0.2147 -0.0061
  119loPI   C6A 1900   3.552  15.615   8.264 -0.1441 -0.1774  0.4019
  119loPI   C1B 1901   3.337  16.493   9.996  0.2009  0.0337  0.0296
  119loPI   C2B 1902   3.425  16.654   9.668  0.1369 -0.1016  0.2229
  119loPI   C3B 1903   3.311  16.740   9.293  0.0370  0.0656 -0.0724
  119loPI   C4B 1904   3.285  16.717   8.907  0.1719 -0.3435  0.0343
  120loPI    C1 1905   6.858   0.333  10.770 -0.0384  0.1444  0.0280
  120loPI    C2 1906   6.545   0.561  10.670 -0.0308  0.1499  0.0171
  120loPI    C3 1907   6.643   0.513  11.055 -0.1434  0.0179  0.0296
  120loPI   PO4 1908   6.812   0.058  10.659 -0.0125  0.1511 -0.2963
  120loPI   GL1 1909   6.545  -0.110  10.468 -0.2373  0.0744  0.1824
  120loPI   GL2 1910   6.320   0.057  10.517 -0.0729 -0.2035  0.1326
  120loPI   C1A 1911   6.535  -0.037  10.077  0.2401 -0.4324  0.0987
  120loPI   C2A 1912   6.458  -0.035   9.665 -0.2056  0.1890 -0.1709
  120loPI   C3A 1913   6.382   0.091   9.366  0.2146 -0.2107  0.2624
  120loPI   C4A 1914   6.323   0.125   8.926 -0.0719  0.0016 -0.2977
  120loPI   C5A 1915   6.319   0.331   8.536  0.0241  0.1712 -0.0560
  120loPI   C6A 1916   6.507   0.729   8.344  0.1712  0.1777  0.0803
  120loPI   C1B 1917   6.364   0.385  10.206 -0.0007 -0.2318  0.2151
  120loPI   C2B 1918   6.355   0.456   9.764  0.0864  0.1294  0.0469
  120loPI   C3B 1919   6.283   0.693   9.399  0.1550 -0.1635  0.1117
  120loPI   C4B 1920   6.063   0.989   9.072 -0.3071 -0.0359 -0.0540
  121loPI    C1 1921  16.251  15.265  11.142 -0.0957 -0.0916 -0.1149
  121loPI    C2 1922  16.229  15.114  11.511  0.0206  0.0019 -0.0691
  121loPI    C3 1923  16.151  15.501  11.449 -0.2518 -0.0689 -0.1820
  121loPI   PO4 1924  16.553  15.112  11.058 -0.3914  0.1808  0.1458
  121loPI   GL1 1925  16.592  15.062  10.567  0.2665  0.1865 -0.0753
  121loPI   GL2 1926  16.431  14.769  10.410  0.0877  0.0630  0.0860
  121loPI   C1A 1927  16.414  15.381  10.295  0.0395 -0.1765 -0.1993
  121loPI   C2A 1928  16.521  15.436   9.808  0.1518  0.0664 -0.0106
  121loPI   C3A 1929  16.507  15.510   9.415 -0.0020 -0.0128  0.0217
  121loPI   C4A 1930  16.429  15.434   9.009  0.0272  0.0870 -0.0244
  121loPI   C5A 1931  16.616  15.248   8.628 -0.3308  0.0924 -0.3061
  121loPI   C6A 1932  16.536  14.971   8.325  0.1088  0.0082  0.1778
  121loPI   C1B 1933  16.425  14.885  10.001  0.0021  0.1155  0.0525
  121loPI   C2B 1934  16.443  14.984   9.610 -0.2287  0.1606 -0.2415
  121loPI   C3B 1935  16.422  14.980   9.116 -0.3083 -0.1644  0.0251
  121loPI   C4B 1936  16.272  14.873   8.708  0.0517  0.1167  0.0216
  122loPI    C1 1937   2.068  15.695  11.103 -0.0135 -0.1059 -0.1125
  122loPI    C2 1938   1.995  15.694  11.496  0.0635 -0.0682 -0.0979
  122loPI    C3 1939   2.338  15.544  11.357  0.0761  0.0016 -0.1430
  122loPI   PO4 1940   1.846  15.571  11.020  0.1558  0.0087  0.3327
  122loPI   GL1 1941   1.674  15.433  10.536 -0.2411 -0.0715  0.0086
  122loPI   GL2 1942   2.036  15.598  10.576  0.2411  0.0077  0.1335
  122loPI   C1A 1943   1.408  15.217  10.179 -0.0006  0.2339  0.0118
  122loPI   C2A 1944   1.080  15.062   9.877 -0.3738  0.0592 -0.1090
  122loPI   C3A 1945   1.096  14.986   9.497  0.0362  0.2006 -0.0874
  122loPI   C4A 1946   1.160  14.979   9.092 -0.1198 -0.0032 -0.3401
  122loPI   C5A 1947   1.225  15.017   8.689 -0.0118  0.0161  0.5472
  122loPI   C6A 1948   1.594  15.090   8.427 -0.1204  0.0795  0.0224
  122loPI   C1B 1949   1.665  15.674  10.154 -0.1287 -0.2117  0.0663
  122loPI   C2B 1950   1.549  15.681   9.646  0.0270 -0.0956  0.1609
  122loPI   C3B 1951   1.703  15.600   9.239  0.2013  0.0934 -0.0732
  122loPI   C4B 1952   1.738  15.671   8.838  0.1599 -0.1096  0.1962
  123loPI    C1 1953   0.626  17.100  11.202  0.0159 -0.0359  0.2196
  123loPI    C2 1954   0.659  17.456  11.023 -0.0979 -0.1643 -0.0622
  123loPI    C3 1955   0.633  17.434  11.422 -0.3321  0.1592 -0.0560
  123loPI   PO4 1956   0.749  16.940  10.979  0.2404  0.0317 -0.2107
  123loPI   GL1 1957   0.809  16.877  10.561 -0.1744 -0.0246  0.1563
  123loPI   GL2 1958   0.620  17.056  10.321 -0.0178  0.0728 -0.1165
  123loPI   C1A 1959   0.904  16.696  10.152  0.3195 -0.0272  0.3666
  123loPI   C2A 1960   1.110  16.727   9.844  0.1416  0.0538  0.4166
  123loPI   C3A 1961   1.048  16.747   9.370 -0.1461  0.1014 -0.1234
  123loPI   C4A 1962   0.993  16.776   8.955 -0.1758  0.0085  0.2024
  123loPI   C5A 1963   1.017  16.837   8.506  0.1237 -0.1855  0.0689
  123loPI   C6A 1964   1.122  17.180   8.309 -0.1881  0.4250  0.1107
  123loPI   C1B 1965   0.620  17.182   9.910 -0.0312 -0.2306  0.0867
  123loPI   C2B 1966   0.523  17.103   9.540 -0.0379  0.2765 -0.2296
  123loPI   C3B 1967   0.617  17.096   9.045 -0.1119 -0.1409 -0.1117
  123loPI   C4B 1968   0.628  17.134   8.593  0.1003 -0.0096  0.2447
  124loPI    C1 1969   0.098  17.529  10.822 -0.2025 -0.1047 -0.0701
  124loPI    C2 1970   0.268  17.719  11.131  0.1227 -0.2871 -0.1317
  124loPI    C3 1971   0.146  17.340  11.171 -0.3511 -0.1348 -0.0655
  124loPI   PO4 1972   0.381  17.570  10.626  0.2063 -0.2063  0.0921
  124loPI   GL1 1973   0.479  17.717  10.290  0.1553 -0.1706 -0.0944
  124loPI   GL2 1974   0.764  17.504  10.221  0.3426 -0.1591  0.0674
  124loPI   C1A 1975   0.334  18.007   9.807 -0.4729  0.0713 -0.0349
  124loPI   C2A 1976   0.344  18.057   9.390 -0.1526  0.4482 -0.1197
  124loPI   C3A 1977   0.366  18.028   8.923  0.0909 -0.1072 -0.0799
  124loPI   C4A 1978   0.221  17.992   8.530  0.0103 -0.0057 -0.1067
  124loPI   C5A 1979   0.179  18.155   8.135 -0.1233  0.1476 -0.0917
  124loPI   C6A 1980   0.132  18.000   7.697 -0.0097  0.0490 -0.0636
  124loPI   C1B 1981   0.674  17.663   9.793 -0.1828 -0.1126  0.0433
  124loPI   C2B 1982   0.682  17.697   9.380 -0.0679 -0.1267 -0.3346
  124loPI   C3B 1983   0.683  17.643   8.917  0.1934  0.3107  0.2233
  124loPI   C4B 1984   0.659  17.660   8.493 -0.0614  0.0326 -0.0366
  125loPI    C1 1985   7.604   8.489  11.064  0.1456 -0.2177 -0.0478
  125loPI    C2 1986   7.690   8.870  11.148  0.0017 -0.1623 -0.1473
  125loPI    C3 1987   7.901   8.575  11.317  0.0132 -0.0426  0.0494
  125loPI   PO4 1988   7.607   8.454  10.780 -0.3547  0.1187 -0.1205
  125loPI   GL1 1989   7.409   8.442  10.438 -0.1958  0.0324  0.0760
  125loPI   GL2 1990   7.290   8.276  10.322  0.2266 -0.0000  0.1433
  125loPI   C1A 1991   7.640   8.429   9.991 -0.1076 -0.0595 -0.3258
  125loPI   C2A 1992   7.830   8.462   9.603 -0.2533  0.2515  0.1705
  125loPI   C3A 1993   7.907   8.436   9.206  0.0017 -0.0705 -0.1179
  125loPI   C4A 1994   7.763   8.316   8.741 -0.0731  0.2655 -0.3024
  125loPI   C5A 1995   7.885   8.267   8.360 -0.1256  0.0645  0.0005
  125loPI   C6A 1996   8.134   8.433   8.069  0.0847  0.0509 -0.2857
  125loPI   C1B 1997   7.197   7.983   9.984  0.1067  0.1611  0.1211
  125loPI   C2B 1998   7.412   8.067   9.620 -0.1801  0.0588 -0.2749
  125loPI   C3B 1999   7.461   8.062   9.211  0.5395  0.0322 -0.0205
  125loPI   C4B 2000   7.440   7.960   8.704 -0.1356 -0.0843 -0.1490
  126loPI    C1 2001  14.883  15.715  11.161  0.0496  0.0041  0.1029
  126loPI    C2 2002  14.965  15.987  11.442  0.1300  0.1086 -0.0206
  126loPI    C3 2003  14.585  15.910  11.343  0.0973  0.0056  0.1796
  126loPI   PO4 2004  15.013  15.803  10.967 -0.0467  0.0739 -0.0897
  126loPI   GL1 2005  14.991  15.936  10.483 -0.0494  0.0449 -0.2801
  126loPI   GL2 2006  15.231  15.663  10.338 -0.0684  0.1410 -0.0473
  126loPI   C1A 2007  14.779  15.713  10.159 -0.0494  0.0391 -0.1897
  126loPI   C2A 2008  14.749  15.798   9.679  0.0746 -0.0886  0.0233
  126loPI   C3A 2009  14.778  15.823   9.243  0.3136 -0.3382  0.0521
  126loPI   C4A 2010  14.819  15.945   8.756 -0.0391 -0.1220  0.0963
  126loPI   C5A 2011  15.003  15.991   8.247  0.1162 -0.0903  0.0545
  126loPI   C6A 2012  15.360  15.797   8.035  0.0014 -0.1818  0.1184
  126loPI   C1B 2013  15.241  15.865   9.845 -0.1973 -0.1113 -0.1099
  126loPI   C2B 2014  15.182  15.987   9.465 -0.0184 -0.0118 -0.1482
  126loPI   C3B 2015  15.336  16.052   9.034  0.0784 -0.1085  0.0555
  126loPI   C4B 2016  15.344  16.052   8.552  0.0539  0.1233  0.0522
  127loPI    C1 2017   2.497  11.620  10.607 -0.0399  0.0365  0.1537
  127loPI    C2 2018   2.721  11.518  10.921  0.0482  0.0800  0.1053
  127loPI    C3 2019   2.341  11.630  10.975 -0.0016 -0.1175  0.1748
  127loPI   PO4 2020   2.590  11.425  10.403  0.1377 -0.1052  0.2796
  127loPI   GL1 2021   2.833  11.388  10.041  0.0972 -0.0824 -0.0154
  127loPI   GL2 2022   2.797  11.654  10.041  0.1641 -0.0925 -0.1652
  127loPI   C1A 2023   2.678  11.439   9.614  0.0901 -0.0202  0.2110
  127loPI   C2A 2024   2.631  11.269   9.184  0.1555 -0.2115  0.0223
  127loPI   C3A 2025   2.519  10.813   9.028  0.0281  0.1752  0.2732
  127loPI   C4A 2026   2.635  10.597   8.591  0.0461 -0.1492  0.1049
  127loPI   C5A 2027   2.645  10.549   8.135  0.0134 -0.0657  0.0161
  127loPI   C6A 2028   2.640  10.245   7.831  0.0618  0.2632  0.1790
  127loPI   C1B 2029   2.927  11.819   9.682  0.0191 -0.0477 -0.0426
  127loPI   C2B 2030   2.840  11.853   9.258 -0.0365  0.2107  0.2125
  127loPI   C3B 2031   2.944  11.966   8.838 -0.0236  0.2513 -0.0994
  127loPI   C4B 2032   2.751  12.169   8.397 -0.3273  0.2140 -0.0045
  128loPI    C1 2033   3.042   7.944  10.977 -0.0204 -0.0957  0.0617
  128loPI    C2 2034   3.251   8.241  10.809 -0.2242 -0.1064 -0.2189
  128loPI    C3 2035   3.193   8.236  11.205  0.0138  0.0778 -0.1792
  128loPI   PO4 2036   2.898   7.914  10.840  0.0485  0.0378 -0.1280
  128loPI   GL1 2037   2.930   7.717  10.427 -0.1640  0.0053  0.0704
  128loPI   GL2 2038   3.131   7.554  10.576  0.1828 -0.1096  0.2023
  128loPI   C1A 2039   3.071   7.979   9.939  0.0189  0.0260 -0.2566
  128loPI   C2A 2040   3.165   7.959   9.500 -0.2445 -0.1638 -0.1290
  128loPI   C3A 2041   3.143   8.053   8.999  0.1743 -0.0307 -0.0767
  128loPI   C4A 2042   2.951   7.973   8.672  0.4405 -0.0942  0.2014
  128loPI   C5A 2043   2.841   8.223   8.311 -0.0298  0.1309 -0.0981
  128loPI   C6A 2044   2.564   8.278   7.944 -0.3294  0.0381 -0.2430
  128loPI   C1B 2045   3.225   7.465  10.102  0.0277  0.0705  0.2154
  128loPI   C2B 2046   3.165   7.412   9.652 -0.2093 -0.0058 -0.1334
  128loPI   C3B 2047   3.240   7.555   9.288 -0.1109 -0.2252 -0.2156
  128loPI   C4B 2048   3.294   7.520   8.854  0.0864  0.2257 -0.0024
  129loPI    C1 2049  11.534   1.632  10.427  0.0046 -0.0978  0.0134
  129loPI    C2 2050  11.182   1.454  10.492 -0.0410  0.0153  0.0782
  129loPI    C3 2051  11.364   1.653  10.788  0.0174  0.0628  0.0111
  129loPI   PO4 2052  11.543   1.828  10.302 -0.2323  0.0230 -0.2354
  129loPI   GL1 2053  11.645   1.962   9.981 -0.0339 -0.0988  0.2562
  129loPI   GL2 2054  11.799   2.188   9.882  0.0229 -0.2567 -0.1380
  129loPI   C1A 2055  11.440   2.040   9.556  0.0338 -0.0451 -0.3370
  129loPI   C2A 2056  11.249   1.867   9.194 -0.0027 -0.0294  0.1723
  129loPI   C3A 2057  11.227   1.828   8.783  0.1345  0.1736 -0.1611
  129loPI   C4A 2058  11.216   1.761   8.333 -0.1012 -0.0133  0.3091
  129loPI   C5A 2059  10.939   1.677   7.959 -0.0522 -0.0048 -0.1530
  129loPI   C6A 2060  10.928   1.692   7.492 -0.1204  0.1128 -0.2448
  129loPI   C1B 2061  11.940   2.097   9.426  0.2038  0.2411 -0.3183
  129loPI   C2B 2062  11.924   2.007   9.027 -0.0531  0.1845  0.0026
  129loPI   C3B 2063  11.838   1.942   8.718  0.3569  0.1497 -0.0569
  129loPI   C4B 2064  11.717   1.614   8.484 -0.2672 -0.0377  0.1713
  130loPI    C1 2065  14.700   6.176  10.915  0.1129 -0.0696  0.1263
  130loPI    C2 2066  14.643   6.548  11.049 -0.1426 -0.0451 -0.0450
  130loPI    C3 2067  14.676   6.245  11.308 -0.0364  0.0821  0.0915
  130loPI   PO4 2068  14.561   6.165  10.677 -0.1237 -0.0992 -0.0323
  130loPI   GL1 2069  14.632   6.223  10.185 -0.0846  0.0891  0.2805
  130loPI   GL2 2070  14.300   6.242  10.158  0.0419  0.3659 -0.1682
  130loPI   C1A 2071  14.568   6.215   9.745 -0.0617  0.0524 -0.2054
  130loPI   C2A 2072  14.672   6.168   9.366 -0.0488 -0.0059 -0.2807
  130loPI   C3A 2073  14.660   6.328   8.930  0.2498 -0.0154  0.1227
  130loPI   C4A 2074  14.548   6.340   8.440 -0.1780  0.0195  0.4923
  130loPI   C5A 2075  14.621   6.592   8.104 -0.0460 -0.0169 -0.2123
  130loPI   C6A 2076  14.547   7.032   7.789 -0.2527  0.0430  0.1090
  130loPI   C1B 2077  14.145   6.455   9.707 -0.0616 -0.1841 -0.1511
  130loPI   C2B 2078  14.125   6.438   9.213  0.3383 -0.2063  0.1747
  130loPI   C3B 2079  14.061   6.570   8.792  0.1150 -0.0248 -0.0757
  130loPI   C4B 2080  14.126   6.556   8.285 -0.1372 -0.0108  0.0669
  131loPI    C1 2081  12.809   7.567  10.906 -0.2668 -0.0518  0.0298
  131loPI    C2 2082  12.830   7.329  11.226  0.1248 -0.2676 -0.1487
  131loPI    C3 2083  12.678   7.697  11.261  0.0785 -0.3204  0.2632
  131loPI   PO4 2084  13.054   7.635  10.742 -0.1174  0.1287 -0.0204
  131loPI   GL1 2085  13.060   7.930  10.413  0.0561 -0.1565  0.2311
  131loPI   GL2 2086  12.772   8.040  10.359 -0.2503 -0.2594  0.1214
  131loPI   C1A 2087  13.231   8.027  10.023 -0.1722  0.1388 -0.1661
  131loPI   C2A 2088  13.473   8.174   9.634 -0.0927  0.0575 -0.1506
  131loPI   C3A 2089  13.480   8.209   9.148 -0.0655  0.4966  0.2165
  131loPI   C4A 2090  13.465   8.186   8.646  0.0322 -0.2440 -0.0278
  131loPI   C5A 2091  13.300   8.254   8.158  0.0357 -0.2448 -0.0714
  131loPI   C6A 2092  13.061   8.254   7.663 -0.1033 -0.1787  0.0178
  131loPI   C1B 2093  12.566   7.743  10.026  0.0930 -0.0537  0.1115
  131loPI   C2B 2094  12.599   7.541   9.557  0.0008 -0.0128 -0.1446
  131loPI   C3B 2095  12.617   7.480   9.168  0.0567  0.1342 -0.5079
  131loPI   C4B 2096  12.567   7.504   8.690 -0.0600 -0.1603  0.1964
  132loPI    C1 2097   8.671  16.268  10.491  0.2489  0.0910  0.1259
  132loPI    C2 2098   8.601  16.107  10.850  0.0320  0.1280  0.1014
  132loPI    C3 2099   8.928  16.330  10.792  0.1938 -0.0770  0.2087
  132loPI   PO4 2100   8.419  16.410  10.383  0.3370  0.0025 -0.1613
  132loPI   GL1 2101   8.352  16.697  10.018  0.0724  0.3142 -0.0340
  132loPI   GL2 2102   8.662  16.742  10.106  0.0487 -0.1144  0.0652
  132loPI   C1A 2103   8.064  16.656   9.623 -0.3412  0.3422  0.1456
  132loPI   C2A 2104   8.144  16.556   9.238  0.5087 -0.0298 -0.0385
  132loPI   C3A 2105   8.025  16.560   8.870 -0.1313  0.1580 -0.0646
  132loPI   C4A 2106   8.111  16.453   8.496 -0.1266  0.1589 -0.1346
  132loPI   C5A 2107   8.227  16.475   8.052 -0.3071  0.2983  0.0727
  132loPI   C6A 2108   7.990  16.148   7.839  0.1699 -0.0695  0.0362
  132loPI   C1B 2109   8.685  16.911   9.713  0.0448  0.0752  0.1893
  132loPI   C2B 2110   8.551  16.864   9.318 -0.1390 -0.2773 -0.2804
  132loPI   C3B 2111   8.459  16.850   8.879  0.1410 -0.0561  0.0579
  132loPI   C4B 2112   8.539  16.739   8.357 -0.2960  0.1279 -0.0339
  133loPI    C1 2113  13.579   4.432  10.602  0.0753 -0.0595 -0.0759
  133loPI    C2 2114  13.325   4.182  10.784  0.0787 -0.0674 -0.0820
  133loPI    C3 2115  13.717   4.103  10.784  0.1113  0.0836  0.1607
  133loPI   PO4 2116  13.425   4.473  10.295 -0.1890 -0.2137  0.1264
  133loPI   GL1 2117  13.491   4.209  10.031 -0.0586 -0.0659  0.1067
  133loPI   GL2 2118  13.855   4.126   9.796 -0.2394 -0.2554  0.1853
  133loPI   C1A 2119  13.179   4.376   9.628  0.2083 -0.0952 -0.0106
  133loPI   C2A 2120  12.923   4.342   9.263 -0.1330 -0.0532 -0.1150
  133loPI   C3A 2121  12.697   4.196   9.046 -0.0922 -0.1574 -0.0792
  133loPI   C4A 2122  12.613   4.268   8.595  0.0386 -0.1241  0.1794
  133loPI   C5A 2123  12.510   4.265   8.172 -0.0263 -0.1743 -0.0928
  133loPI   C6A 2124  12.492   4.257   7.790  0.0267 -0.0550  0.1490
  133loPI   C1B 2125  13.622   4.187   9.477  0.1333  0.1423  0.1684
  133loPI   C2B 2126  13.431   4.350   9.083  0.0812  0.0073 -0.0506
  133loPI   C3B 2127  13.399   4.275   8.605  0.4956  0.1246 -0.2145
  133loPI   C4B 2128  13.484   3.874   8.480 -0.3097 -0.0157 -0.2012
  134loPI    C1 2129  15.472   3.116  10.605  0.0361  0.1410 -0.4632
  134loPI    C2 2130  15.523   2.807  10.356 -0.0145 -0.0389 -0.2531
  134loPI    C3 2131  15.467   2.743  10.747  0.0481  0.2403 -0.1958
  134loPI   PO4 2132  15.595   3.325  10.364  0.0203  0.0055  0.0690
  134loPI   GL1 2133  15.466   3.337   9.942 -0.1871 -0.2337  0.0465
  134loPI   GL2 2134  15.506   3.023   9.829 -0.0362 -0.0142  0.2014
  134loPI   C1A 2135  15.392   3.413   9.556 -0.0605 -0.1256 -0.0007
  134loPI   C2A 2136  15.191   3.430   9.220  0.0203  0.0439  0.0510
  134loPI   C3A 2137  14.988   3.667   8.865 -0.0043 -0.0925 -0.0200
  134loPI   C4A 2138  14.890   3.966   8.625  0.1102  0.0954  0.1732
  134loPI   C5A 2139  14.841   4.347   8.536 -0.0521 -0.1576 -0.0437
  134loPI   C6A 2140  15.033   4.583   8.272 -0.4826 -0.0495  0.1600
  134loPI   C1B 2141  15.786   2.813   9.464 -0.1435 -0.1745  0.0353
  134loPI   C2B 2142  15.658   2.598   9.107  0.1189  0.3786 -0.1449
  134loPI   C3B 2143  15.725   2.686   8.699  0.0331 -0.2414  0.0517
  134loPI   C4B 2144  15.607   2.913   8.273  0.0994  0.0354 -0.3718
  135loPI    C1 2145   4.461   5.612  10.838  0.0711 -0.1252  0.0416
  135loPI    C2 2146   4.584   5.244  10.739 -0.0432 -0.1644  0.0437
  135loPI    C3 2147   4.825   5.486  10.947  0.0570 -0.2146 -0.0130
  135loPI   PO4 2148   4.351   5.745  10.560  0.1713 -0.1245  0.1663
  135loPI   GL1 2149   4.100   5.909  10.292  0.0592 -0.3078  0.0882
  135loPI   GL2 2150   4.248   6.182  10.201  0.0223 -0.2244 -0.4687
  135loPI   C1A 2151   4.165   5.804   9.812 -0.1065  0.2377  0.2482
  135loPI   C2A 2152   4.073   5.864   9.353  0.0957  0.3495 -0.0017
  135loPI   C3A 2153   4.171   5.816   9.011 -0.0050 -0.1380 -0.0561
  135loPI   C4A 2154   4.250   5.840   8.645 -0.0404 -0.1029 -0.2078
  135loPI   C5A 2155   4.166   5.991   8.258 -0.1606 -0.0511  0.2072
  135loPI   C6A 2156   4.326   6.295   7.966  0.2476  0.0207 -0.0501
  135loPI   C1B 2157   4.419   6.258   9.760 -0.1430 -0.1967 -0.0454
  135loPI   C2B 2158   4.533   6.146   9.345  0.1506 -0.1500  0.2823
  135loPI   C3B 2159   4.552   6.219   8.901 -0.1366  0.1634  0.0768
  135loPI   C4B 2160   4.544   6.232   8.458 -0.2995 -0.1375 -0.0494
  136loPI    C1 2161  10.132  15.548  10.904 -0.0867  0.0853  0.1338
  136loPI    C2 2162  10.353  15.220  10.846 -0.1637  0.0338  0.1295
  136loPI    C3 2163  10.227  15.314  11.214  0.0108  0.1578  0.1589
  136loPI   PO4 2164  10.071  15.591  10.575 -0.0551 -0.4313  0.2110
  136loPI   GL1 2165   9.853  15.778  10.185  0.0007  0.1438 -0.0264
  136loPI   GL2 2166   9.686  15.593  10.313 -0.2149  0.1847 -0.3108
  136loPI   C1A 2167   9.788  16.143   9.951  0.3064 -0.0658 -0.1881
  136loPI   C2A 2168   9.859  16.202   9.433  0.4993  0.0918 -0.0778
  136loPI   C3A 2169   9.924  16.086   8.970 -0.0307 -0.0420 -0.0516
  136loPI   C4A 2170   9.840  16.103   8.534  0.1893  0.1211  0.1133
  136loPI   C5A 2171   9.723  16.059   8.111  0.1597  0.0349 -0.0310
  136loPI   C6A 2172   9.501  16.118   7.809 -0.1578 -0.0012  0.2319
  136loPI   C1B 2173   9.671  15.455   9.845 -0.2552  0.1847  0.0374
  136loPI   C2B 2174   9.584  15.387   9.372  0.3544  0.0194  0.1914
  136loPI   C3B 2175   9.588  15.446   8.965  0.0929 -0.2005 -0.1187
  136loPI   C4B 2176   9.353  15.089   8.802 -0.3085 -0.0339 -0.2346
  137loPI    C1 2177   6.731  17.427  10.911  0.0906  0.0597 -0.3049
  137loPI    C2 2178   6.929  17.753  11.029 -0.0752 -0.0659  0.3586
  137loPI    C3 2179   7.042  17.392  11.159 -0.1192 -0.2415 -0.0762
  137loPI   PO4 2180   6.658  17.491  10.667 -0.0059 -0.2476 -0.2422
  137loPI   GL1 2181   6.721  17.402  10.186  0.0052  0.0543 -0.1769
  137loPI   GL2 2182   6.623  17.012  10.208  0.1030  0.2282  0.0673
  137loPI   C1A 2183   6.604  17.593   9.812  0.2809 -0.0340 -0.2568
  137loPI   C2A 2184   6.663  17.639   9.422  0.0975  0.2209 -0.2090
  137loPI   C3A 2185   6.626  17.729   9.041 -0.2159 -0.2133 -0.1642
  137loPI   C4A 2186   6.476  17.846   8.651 -0.0692 -0.0187 -0.1971
  137loPI   C5A 2187   6.584  18.086   8.262  0.2597 -0.0462  0.3176
  137loPI   C6A 2188   6.622  18.429   7.899  0.1050  0.0339 -0.1645
  137loPI   C1B 2189   6.697  17.038   9.799 -0.1270  0.0668  0.1581
  137loPI   C2B 2190   6.761  17.142   9.374  0.3567  0.0568 -0.2521
  137loPI   C3B 2191   6.651  17.174   8.885 -0.0662  0.1504 -0.0671
  137loPI   C4B 2192   6.334  16.914   8.595 -0.1221  0.0250  0.3294
  138loPI    C1 2193   6.139  15.685  10.812 -0.1334 -0.0555  0.0879
  138loPI    C2 2194   5.757  15.567  10.825 -0.0569 -0.3060  0.1180
  138loPI    C3 2195   5.947  15.669  11.162 -0.1675  0.0593  0.0751
  138loPI   PO4 2196   6.091  15.829  10.540 -0.0976  0.0837 -0.1724
  138loPI   GL1 2197   6.210  15.690  10.121 -0.1298  0.3966  0.0513
  138loPI   GL2 2198   5.978  15.941  10.062  0.1011 -0.0116 -0.1879
  138loPI   C1A 2199   6.151  15.560   9.718 -0.1021 -0.3225 -0.1616
  138loPI   C2A 2200   6.119  15.418   9.293  0.1492 -0.3505  0.2091
  138loPI   C3A 2201   5.822  15.166   9.056  0.1727 -0.0643  0.0102
  138loPI   C4A 2202   5.566  15.312   8.756  0.2965 -0.1655 -0.0390
  138loPI   C5A 2203   5.576  15.306   8.330 -0.0685  0.3422  0.4077
  138loPI   C6A 2204   5.537  15.056   8.004  0.0539 -0.1823 -0.1150
  138loPI   C1B 2205   5.835  16.171   9.679  0.1286  0.1075  0.2517
  138loPI   C2B 2206   5.731  16.202   9.263  0.0577 -0.1868  0.0927
  138loPI   C3B 2207   5.390  16.064   9.096  0.2099  0.0788 -0.1575
  138loPI   C4B 2208   5.010  16.014   8.962  0.1192  0.0697 -0.1785
  139loPI    C1 2209   5.548  17.263  10.689  0.0231 -0.0247 -0.0230
  139loPI    C2 2210   5.782  17.287  11.013 -0.0475  0.1498  0.0162
  139loPI    C3 2211   5.522  17.580  10.932 -0.3146 -0.0829  0.0205
  139loPI   PO4 2212   5.740  17.234  10.474 -0.0486  0.2268  0.1546
  139loPI   GL1 2213   5.825  17.405  10.106 -0.5180 -0.1690 -0.1925
  139loPI   GL2 2214   5.546  17.157   9.968  0.0348 -0.0706 -0.0430
  139loPI   C1A 2215   6.051  17.719   9.725  0.0028  0.1847  0.0546
  139loPI   C2A 2216   6.061  17.810   9.297 -0.0880  0.1061  0.1099
  139loPI   C3A 2217   6.009  17.761   8.862 -0.0732 -0.3437  0.0035
  139loPI   C4A 2218   5.968  18.064   8.624 -0.2754  0.0044 -0.0187
  139loPI   C5A 2219   6.085  18.077   8.240  0.0129 -0.0761  0.4311
  139loPI   C6A 2220   6.261  17.842   7.932  0.0205  0.2586  0.0513
  139loPI   C1B 2221   5.809  17.179   9.705  0.0353 -0.1019  0.1876
  139loPI   C2B 2222   5.787  17.370   9.307  0.0152  0.0064 -0.4318
  139loPI   C3B 2223   5.730  17.420   8.875 -0.0846 -0.1038 -0.1292
  139loPI   C4B 2224   5.837  17.570   8.408  0.6104 -0.2707 -0.2590
  140loPI    C1 2225   9.208   9.114  10.951 -0.1388  0.0976  0.2320
  140loPI    C2 2226   9.375   9.477  10.938  0.2433 -0.0810 -0.0549
  140loPI    C3 2227   9.467   9.225  11.235  0.0888  0.0027  0.0653
  140loPI   PO4 2228   9.136   9.018  10.710  0.1316 -0.0042 -0.0660
  140loPI   GL1 2229   8.878   9.069  10.440  0.0482 -0.1370 -0.0136
  140loPI   GL2 2230   9.059   8.870  10.242  0.1211 -0.6488  0.1875
  140loPI   C1A 2231   8.613   9.112  10.118  0.0840  0.0773 -0.1332
  140loPI   C2A 2232   8.643   9.057   9.701  0.1452 -0.1580  0.0645
  140loPI   C3A 2233   8.676   9.127   9.326 -0.2924 -0.2526  0.0248
  140loPI   C4A 2234   8.644   9.131   8.911 -0.1625 -0.3167 -0.2445
  140loPI   C5A 2235   8.756   9.235   8.483 -0.0726 -0.0182  0.2332
  140loPI   C6A 2236   8.988   9.051   8.171  0.0642  0.2359  0.1073
  140loPI   C1B 2237   9.121   8.912   9.802 -0.3051 -0.4241 -0.1431
  140loPI   C2B 2238   9.193   8.914   9.361  0.2392 -0.4288  0.1949
  140loPI   C3B 2239   9.114   8.949   8.839 -0.1226 -0.1531  0.0765
  140loPI   C4B 2240   9.260   9.244   8.594 -0.2173 -0.1118 -0.0317
  141loPI    C1 2241   3.460   1.930  10.538 -0.0589 -0.0056  0.1666
  141loPI    C2 2242   3.484   1.952  10.937 -0.0215 -0.0188  0.1651
  141loPI    C3 2243   3.771   2.113  10.710 -0.1499  0.1763  0.1393
  141loPI   PO4 2244   3.281   1.880  10.454 -0.2700 -0.0445  0.1705
  141loPI   GL1 2245   3.029   1.947  10.195 -0.0422  0.0809  0.3473
  141loPI   GL2 2246   3.094   1.629  10.013 -0.0813  0.0673  0.1933
  141loPI   C1A 2247   2.879   1.981   9.835  0.0615  0.0579 -0.0171
  141loPI   C2A 2248   3.029   1.798   9.427 -0.0160 -0.2205 -0.1024
  141loPI   C3A 2249   2.966   1.763   9.018  0.0249  0.0556 -0.0458
  141loPI   C4A 2250   2.969   1.696   8.542 -0.0383  0.0032  0.3603
  141loPI   C5A 2251   2.862   1.588   8.115  0.1603  0.2273 -0.0968
  141loPI   C6A 2252   2.713   1.313   7.722 -0.3717  0.1431 -0.0866
  141loPI   C1B 2253   3.300   1.473   9.625  0.0692  0.0347 -0.3685
  141loPI   C2B 2254   3.455   1.535   9.139 -0.1457  0.2418  0.0472
  141loPI   C3B 2255   3.343   1.465   8.796  0.2140 -0.0737  0.1118
  141loPI   C4B 2256   3.478   1.310   8.376 -0.2701  0.2873  0.0546
  142loPI    C1 2257   2.400   1.562  10.626  0.0364  0.1558 -0.1746
  142loPI    C2 2258   2.258   1.345  10.930  0.2024 -0.0088 -0.2127
  142loPI    C3 2259   2.420   1.703  11.000 -0.1725  0.1558 -0.1624
  142loPI   PO4 2260   2.210   1.586  10.430 -0.0869 -0.1248  0.1686
  142loPI   GL1 2261   2.563   1.569  10.146  0.0532  0.2273 -0.2103
  142loPI   GL2 2262   2.495   1.863  10.038 -0.1435  0.0910 -0.0512
  142loPI   C1A 2263   2.768   1.363   9.731 -0.0163 -0.4546 -0.0109
  142loPI   C2A 2264   2.860   1.372   9.319 -0.0947 -0.1926 -0.0291
  142loPI   C3A 2265   2.881   1.280   8.847 -0.0634  0.0581 -0.4849
  142loPI   C4A 2266   2.891   1.199   8.415 -0.1632  0.6012  0.0377
  142loPI   C5A 2267   2.722   1.027   8.121  0.0645  0.3358  0.0394
  142loPI   C6A 2268   2.307   0.882   8.156  0.0206  0.0230  0.2079
  142loPI   C1B 2269   2.527   1.766   9.512  0.2401  0.1681 -0.0988
  142loPI   C2B 2270   2.491   1.624   9.011 -0.0440 -0.0853  0.3121
  142loPI   C3B 2271   2.499   1.551   8.557  0.0683 -0.6807 -0.2080
  142loPI   C4B 2272   2.413   1.378   8.167 -0.1094  0.1368 -0.1356
  143loPI    C1 2273   0.605  13.322  10.814 -0.0566 -0.0890  0.0121
  143loPI    C2 2274   0.419  13.204  11.148 -0.1321 -0.1570 -0.0535
  143loPI    C3 2275   0.819  13.212  11.133 -0.1249 -0.4282 -0.0553
  143loPI   PO4 2276   0.409  13.574  10.749 -0.2459 -0.1537 -0.0115
  143loPI   GL1 2277   0.301  13.804  10.462  0.0526  0.0013 -0.1013
  143loPI   GL2 2278   0.624  13.694  10.351  0.2695  0.0102 -0.1521
  143loPI   C1A 2279   0.384  13.843   9.942 -0.0686 -0.0854  0.0496
  143loPI   C2A 2280   0.386  13.823   9.445  0.1474 -0.0745  0.0185
  143loPI   C3A 2281   0.401  13.811   8.970 -0.1900  0.1009  0.1940
  143loPI   C4A 2282   0.463  13.822   8.553 -0.1283 -0.1204  0.0065
  143loPI   C5A 2283   0.542  13.782   8.136  0.1660 -0.5055  0.4309
  143loPI   C6A 2284   0.843  13.495   8.065  0.0537  0.1572  0.0065
  143loPI   C1B 2285   0.820  13.539   9.954 -0.2908 -0.0849 -0.0258
  143loPI   C2B 2286   0.906  13.566   9.504  0.0032  0.0371 -0.0459
  143loPI   C3B 2287   0.784  13.482   9.154  0.1172  0.0373  0.0408
  143loPI   C4B 2288   0.800  13.473   8.789 -0.0759 -0.0462 -0.2856
  144loPI    C1 2289  15.764   6.625  10.560  0.1614 -0.0962 -0.0438
  144loPI    C2 2290  15.992   6.885  10.761 -0.0877  0.0100  0.1059
  144loPI    C3 2291  15.848   6.560  10.945 -0.0413 -0.0671  0.0069
  144loPI   PO4 2292  15.502   6.657  10.437  0.1194 -0.1914  0.1553
  144loPI   GL1 2293  15.226   6.480  10.082 -0.1171  0.2704  0.0990
  144loPI   GL2 2294  14.916   6.606  10.051 -0.1726  0.6728  0.2115
  144loPI   C1A 2295  15.103   6.135   9.808 -0.0291  0.2781 -0.2603
  144loPI   C2A 2296  15.151   5.964   9.420 -0.0183  0.2435  0.0352
  144loPI   C3A 2297  15.197   6.046   9.016  0.2734 -0.2409 -0.0018
  144loPI   C4A 2298  15.138   6.159   8.631  0.1775  0.1703 -0.1956
  144loPI   C5A 2299  15.008   6.280   8.280  0.0724 -0.2526 -0.1039
  144loPI   C6A 2300  14.821   6.150   7.902  0.0854 -0.3362  0.0122
  144loPI   C1B 2301  15.151   6.624   9.569 -0.2447 -0.0006 -0.1185
  144loPI   C2B 2302  15.116   6.506   9.134 -0.2393 -0.1429  0.3575
  144loPI   C3B 2303  15.033   6.665   8.749 -0.2071 -0.1049 -0.1789
  144loPI   C4B 2304  15.019   6.814   8.285  0.5067 -0.2738  0.0341
  145loPI    C1 2305   6.758  14.369  10.503 -0.0299  0.1780  0.1723
  145loPI    C2 2306   6.635  14.157  10.820 -0.1679  0.0707  0.0485
  145loPI    C3 2307   6.942  14.026  10.599 -0.1411  0.0901  0.0740
  145loPI   PO4 2308   6.603  14.367  10.351 -0.0583  0.1746 -0.1496
  145loPI   GL1 2309   6.528  14.411   9.958 -0.0005 -0.1671  0.0465
  145loPI   GL2 2310   6.302  14.195   9.954  0.1404  0.2777  0.2017
  145loPI   C1A 2311   6.849  14.275   9.694 -0.0728 -0.0564 -0.1158
  145loPI   C2A 2312   6.982  14.192   9.275  0.0384 -0.1522  0.1683
  145loPI   C3A 2313   6.953  14.337   8.925 -0.1138 -0.1531 -0.0783
  145loPI   C4A 2314   6.886  14.264   8.480  0.0197  0.2382 -0.1440
  145loPI   C5A 2315   6.685  14.398   8.035 -0.0024 -0.0378  0.0337
  145loPI   C6A 2316   6.745  13.964   7.806 -0.1331  0.1032 -0.1010
  145loPI   C1B 2317   6.330  14.297   9.462 -0.1151 -0.1794  0.1484
  145loPI   C2B 2318   6.396  14.207   9.022  0.1530  0.0828 -0.0366
  145loPI   C3B 2319   6.231  13.987   8.690 -0.0877  0.1190  0.1198
  145loPI   C4B 2320   6.216  13.843   8.235  0.2323 -0.0265  0.2376
  146loPI    C1 2321   2.707  17.154  10.963  0.1836  0.2745 -0.0845
  146loPI    C2 2322   2.785  17.379  11.285 -0.0563  0.3375 -0.0686
  146loPI    C3 2323   2.789  16.980  11.314  0.0743  0.3416 -0.0252
  146loPI   PO4 2324   2.737  17.329  10.765 -0.1539  0.1415 -0.2336
  146loPI   GL1 2325   2.804  17.365  10.349  0.1397  0.1804 -0.1561
  146loPI   GL2 2326   2.517  17.333  10.070  0.1136  0.0099  0.0395
  146loPI   C1A 2327   3.068  17.527  10.025 -0.0498  0.2253 -0.2070
  146loPI   C2A 2328   3.083  17.539   9.627  0.4150  0.1201  0.2824
  146loPI   C3A 2329   2.921  17.502   9.226 -0.2519  0.1386 -0.3053
  146loPI   C4A 2330   2.905  17.516   8.823 -0.2518  0.2770 -0.0255
  146loPI   C5A 2331   3.083  17.569   8.389  0.0865  0.0036 -0.0028
  146loPI   C6A 2332   2.928  17.632   7.997 -0.0151  0.1175  0.1936
  146loPI   C1B 2333   2.539  17.331   9.623  0.2066 -0.1529  0.1447
  146loPI   C2B 2334   2.457  17.333   9.176  0.0634 -0.1084  0.1041
  146loPI   C3B 2335   2.455  17.299   8.730  0.0596  0.0267 -0.0511
  146loPI   C4B 2336   2.591  17.332   8.307  0.0303  0.1972  0.2273
  147loPI    C1 2337  10.805   6.200  11.146  0.2069 -0.1069  0.0847
  147loPI    C2 2338  10.457   6.294  11.320  0.1452 -0.3474  0.0947
  147loPI    C3 2339  10.717   6.055  11.508  0.2489 -0.2931  0.0210
  147loPI   PO4 2340  10.708   6.124  10.896 -0.0157 -0.2172  0.3180
  147loPI   GL1 2341  10.699   6.284  10.565 -0.2514 -0.2085  0.2709
  147loPI   GL2 2342  10.914   6.413  10.399 -0.2391  0.1790 -0.1985
  147loPI   C1A 2343  10.565   6.119  10.264  0.3810 -0.0221  0.0418
  147loPI   C2A 2344  10.615   6.091   9.859 -0.2021 -0.1284 -0.0670
  147loPI   C3A 2345  10.542   6.037   9.345 -0.2333 -0.0666  0.1106
  147loPI   C4A 2346  10.495   5.943   8.854  0.1301  0.0774  0.1328
  147loPI   C5A 2347  10.410   6.042   8.453 -0.2108  0.0723  0.1081
  147loPI   C6A 2348  10.154   6.016   8.270  0.0807  0.0730  0.0803
  147loPI   C1B 2349  11.059   6.320   9.938  0.1674  0.0250  0.1523
  147loPI   C2B 2350  10.955   6.320   9.510  0.0263 -0.1189 -0.0352
  147loPI   C3B 2351  10.856   6.246   9.040 -0.0242 -0.1119  0.0711
  147loPI   C4B 2352  10.877   6.381   8.549  0.0539  0.1273 -0.0430
  148loPI    C1 2353  13.134  16.661  11.220  0.2082  0.3368  0.0825
  148loPI    C2 2354  13.379  16.557  11.518  0.1030  0.1789  0.1152
  148loPI    C3 2355  13.127  16.864  11.564  0.1956  0.2528  0.1320
  148loPI   PO4 2356  13.332  16.608  10.932 -0.0241 -0.4033 -0.2599
  148loPI   GL1 2357  13.427  16.830  10.511 -0.1027  0.0316 -0.0804
  148loPI   GL2 2358  13.579  16.587  10.416  0.0358  0.1089  0.2657
  148loPI   C1A 2359  13.561  16.807  10.015  0.1843  0.0052 -0.3250
  148loPI   C2A 2360  13.635  16.844   9.525 -0.1337 -0.1087 -0.2304
  148loPI   C3A 2361  13.607  16.925   9.107  0.1295 -0.0211  0.2700
  148loPI   C4A 2362  13.590  16.752   8.705  0.0090 -0.3055 -0.0579
  148loPI   C5A 2363  13.568  16.840   8.290 -0.1540  0.0793 -0.0840
  148loPI   C6A 2364  13.494  16.781   7.807  0.1030 -0.0094 -0.1862
  148loPI   C1B 2365  13.903  16.442  10.142 -0.1936  0.0220 -0.2596
  148loPI   C2B 2366  14.277  16.585   9.827  0.0833 -0.0778  0.0535
  148loPI   C3B 2367  14.501  16.682   9.455  0.0588 -0.0072 -0.0113
  148loPI   C4B 2368  14.546  16.660   8.977 -0.0039  0.2850 -0.1048
  149loPI    C1 2369  13.658   3.669   9.899  0.1730 -0.2127  0.2866
  149loPI    C2 2370  13.989   3.560  10.095  0.2061 -0.0867  0.3018
  149loPI    C3 2371  13.722   3.800  10.271  0.1277 -0.1524  0.2734
  149loPI   PO4 2372  13.529   3.450   9.790 -0.3514 -0.0424 -0.2230
  149loPI   GL1 2373  13.675   3.212   9.508  0.1583 -0.0309 -0.0250
  149loPI   GL2 2374  13.517   2.906   9.672 -0.1186 -0.2332  0.1075
  149loPI   C1A 2375  13.741   3.226   9.054 -0.1322  0.2070 -0.0726
  149loPI   C2A 2376  13.949   3.530   8.680  0.1501 -0.1580 -0.0392
  149loPI   C3A 2377  14.007   3.735   8.261 -0.2147 -0.0174 -0.1513
  149loPI   C4A 2378  14.049   4.225   8.241  0.1886 -0.2303 -0.0355
  149loPI   C5A 2379  14.380   4.606   8.561  0.0148 -0.0317  0.3377
  149loPI   C6A 2380  14.307   5.089   8.495  0.0545 -0.1078 -0.2840
  149loPI   C1B 2381  13.389   2.869   9.224 -0.4296 -0.0232 -0.0344
  149loPI   C2B 2382  13.306   2.967   8.835  0.0544 -0.0334  0.0166
  149loPI   C3B 2383  13.278   2.634   8.473 -0.0681  0.1913 -0.0854
  149loPI   C4B 2384  13.523   2.490   8.203  0.1745 -0.2402 -0.1371
  150loPI    C1 2385  12.957   3.567  10.752  0.3095 -0.0149  0.0242
  150loPI    C2 2386  12.716   3.256  10.822  0.3840 -0.0420  0.1634
  150loPI    C3 2387  12.728   3.561  11.080  0.1953  0.1505 -0.0514
  150loPI   PO4 2388  12.899   3.626  10.438 -0.1322 -0.1500  0.1527
  150loPI   GL1 2389  12.977   3.716   9.979 -0.2803 -0.1760 -0.1135
  150loPI   GL2 2390  13.206   3.859   9.814  0.1085  0.2755 -0.0522
  150loPI   C1A 2391  12.761   3.942   9.551 -0.1091  0.2097 -0.1428
  150loPI   C2A 2392  12.373   3.906   9.185  0.1352  0.1288 -0.1865
  150loPI   C3A 2393  12.191   3.842   8.799  0.3278  0.2271 -0.2699
  150loPI   C4A 2394  12.199   3.884   8.350  0.2395 -0.3744 -0.1425
  150loPI   C5A 2395  12.313   3.717   7.977  0.0139 -0.0806  0.0537
  150loPI   C6A 2396  12.284   3.850   7.573 -0.0503  0.1494 -0.0668
  150loPI   C1B 2397  13.198   3.924   9.333  0.0183  0.1221 -0.0662
  150loPI   C2B 2398  13.117   3.987   8.941 -0.1294  0.1799  0.0972
  150loPI   C3B 2399  13.022   4.002   8.465 -0.0837  0.2397 -0.1761
  150loPI   C4B 2400  12.941   4.412   8.310  0.0471  0.1728 -0.0412
  151loPI    C1 2401  13.255  11.221  10.568  0.1536  0.0620 -0.1340
  151loPI    C2 2402  13.324  11.215  10.962 -0.0298  0.0749 -0.1009
  151loPI    C3 2403  13.499  10.945  10.724  0.1722  0.1388 -0.0265
  151loPI   PO4 2404  13.236  11.485  10.493  0.0097  0.0111  0.2307
  151loPI   GL1 2405  13.452  11.424  10.082 -0.4332  0.2026  0.1615
  151loPI   GL2 2406  13.316  11.589   9.989 -0.0029  0.1562  0.0177
  151loPI   C1A 2407  13.598  11.431   9.616  0.1873 -0.0725  0.1824
  151loPI   C2A 2408  13.654  11.472   9.173 -0.2592  0.1976  0.0971
  151loPI   C3A 2409  13.683  11.448   8.834  0.2119  0.2000 -0.0861
  151loPI   C4A 2410  13.654  11.324   8.467  0.1581  0.0203  0.0526
  151loPI   C5A 2411  13.597  11.363   7.982  0.2161 -0.2489 -0.1246
  151loPI   C6A 2412  13.273  11.430   7.702 -0.1647  0.0866  0.1499
  151loPI   C1B 2413  13.166  11.668   9.706 -0.0018 -0.0219  0.0332
  151loPI   C2B 2414  13.174  11.659   9.195  0.1101  0.1571  0.0189
  151loPI   C3B 2415  13.207  11.549   8.794  0.0078  0.3007  0.2938
  151loPI   C4B 2416  13.179  11.437   8.426 -0.0004 -0.1355 -0.2923
  152loPI    C1 2417   6.798  12.585  11.089  0.2054  0.0634  0.1933
  152loPI    C2 2418   6.698  12.954  11.206 -0.2742  0.0882 -0.2579
  152loPI    C3 2419   6.643  12.644  11.453  0.2472  0.3211  0.1714
  152loPI   PO4 2420   6.634  12.582  10.811  0.0799  0.1024  0.2349
  152loPI   GL1 2421   6.519  12.769  10.347  0.5237 -0.1180 -0.1297
  152loPI   GL2 2422   6.435  12.434  10.353 -0.3672 -0.0475 -0.1849
  152loPI   C1A 2423   6.679  12.710   9.953 -0.4156 -0.0088  0.1616
  152loPI   C2A 2424   6.638  12.525   9.656  0.1027  0.0377 -0.2142
  152loPI   C3A 2425   6.847  12.319   9.341 -0.0231 -0.0384 -0.1803
  152loPI   C4A 2426   7.051  12.457   8.906  0.1377  0.1040 -0.0143
  152loPI   C5A 2427   7.048  12.324   8.528  0.2107  0.1138 -0.1131
  152loPI   C6A 2428   6.841  12.181   8.135  0.2176 -0.1518  0.0541
  152loPI   C1B 2429   6.199  12.353   9.907  0.0937  0.1299 -0.1708
  152loPI   C2B 2430   6.102  12.371   9.522 -0.0246  0.1438  0.0228
  152loPI   C3B 2431   6.393  12.375   9.191 -0.0307 -0.2947 -0.1435
  152loPI   C4B 2432   6.648  12.245   8.920  0.2906  0.3998  0.0719
  153loPI    C1 2433  11.076  14.993  10.277 -0.0981  0.1907  0.1861
  153loPI    C2 2434  11.244  15.186   9.969 -0.0369  0.0165  0.1091
  153loPI    C3 2435  11.225  15.361  10.328 -0.2910  0.3035 -0.0396
  153loPI   PO4 2436  10.779  14.930  10.144 -0.0999  0.2122  0.2062
  153loPI   GL1 2437  10.609  15.174   9.871  0.0899  0.1491 -0.1227
  153loPI   GL2 2438  10.846  15.437  10.063  0.1128  0.1356  0.0906
  153loPI   C1A 2439  10.433  15.156   9.441 -0.1842  0.0759 -0.1830
  153loPI   C2A 2440  10.375  15.137   9.013 -0.0082  0.0448  0.0491
  153loPI   C3A 2441  10.359  14.756   8.666  0.0818 -0.1195  0.1769
  153loPI   C4A 2442   9.970  14.724   8.361 -0.0710  0.0466 -0.0966
  153loPI   C5A 2443   9.601  14.651   8.347 -0.3268 -0.1245  0.0576
  153loPI   C6A 2444   9.395  14.977   8.220  0.0771 -0.0650 -0.1722
  153loPI   C1B 2445  10.683  15.649   9.682  0.2300  0.0848  0.1540
  153loPI   C2B 2446  10.753  15.675   9.286  0.1542  0.2506  0.2164
  153loPI   C3B 2447  10.717  15.616   8.876 -0.0460  0.0331  0.0730
  153loPI   C4B 2448  10.756  15.672   8.525  0.1005 -0.0104 -0.1757
  154loPI    C1 2449  15.321  11.725  10.499  0.0442  0.1055  0.3815
  154loPI    C2 2450  15.556  11.405  10.545 -0.0964 -0.0307  0.1738
  154loPI    C3 2451  15.700  11.772  10.616  0.1297 -0.1238  0.2037
  154loPI   PO4 2452  15.251  11.690  10.228 -0.3029  0.0373 -0.0178
  154loPI   GL1 2453  15.345  11.544   9.871  0.0441  0.3679  0.0846
  154loPI   GL2 2454  15.388  11.243   9.972  0.2242  0.2994  0.1551
  154loPI   C1A 2455  15.085  11.513   9.461  0.1769 -0.1990  0.3183
  154loPI   C2A 2456  14.998  11.392   9.147  0.0054  0.0418  0.1651
  154loPI   C3A 2457  14.968  11.471   8.758 -0.0403 -0.2212  0.1543
  154loPI   C4A 2458  15.078  11.575   8.242  0.0867 -0.2256 -0.1886
  154loPI   C5A 2459  14.848  11.844   7.929  0.2277 -0.3517  0.4308
  154loPI   C6A 2460  14.553  12.193   7.841 -0.3424  0.1923  0.1021
  154loPI   C1B 2461  15.468  11.204   9.491  0.1107  0.0617 -0.3132
  154loPI   C2B 2462  15.484  11.286   9.072  0.2511 -0.0038  0.1136
  154loPI   C3B 2463  15.605  11.211   8.703  0.0266 -0.0158 -0.1180
  154loPI   C4B 2464  15.612  11.043   8.273  0.1358 -0.1636 -0.2506
  155loPI    C1 2465   3.013   5.527  10.829  0.1104 -0.1073  0.0969
  155loPI    C2 2466   2.742   5.611  11.111  0.1268  0.0188  0.0757
  155loPI    C3 2467   3.132   5.612  11.201  0.1439  0.2620  0.0059
  155loPI   PO4 2468   3.012   5.667  10.690 -0.0748  0.0108  0.4029
  155loPI   GL1 2469   3.008   5.651  10.246  0.2582 -0.2901  0.1782
  155loPI   GL2 2470   3.125   5.857  10.064 -0.2922 -0.0232  0.2350
  155loPI   C1A 2471   2.662   5.632   9.885  0.1422  0.3219 -0.0823
  155loPI   C2A 2472   2.688   5.664   9.455 -0.2921  0.1423  0.0938
  155loPI   C3A 2473   2.637   5.665   9.070  0.3645  0.0122  0.0452
  155loPI   C4A 2474   2.638   5.599   8.653 -0.2055  0.0046  0.0712
  155loPI   C5A 2475   2.936   5.558   8.320 -0.0636  0.1780 -0.1408
  155loPI   C6A 2476   3.173   5.226   8.195 -0.1868 -0.0161  0.1429
  155loPI   C1B 2477   3.069   6.090   9.708  0.5077 -0.0703 -0.2329
  155loPI   C2B 2478   3.062   6.001   9.257  0.1435 -0.1876 -0.0109
  155loPI   C3B 2479   3.167   5.827   8.843 -0.2229 -0.0462 -0.0570
  155loPI   C4B 2480   3.394   5.535   8.586 -0.1197  0.1839  0.0108
  156loPI    C1 2481  14.036   2.463  10.230 -0.1867  0.3004  0.0523
  156loPI    C2 2482  14.321   2.380  10.499 -0.0627 -0.0915 -0.1906
  156loPI    C3 2483  14.267   2.756  10.374  0.2256  0.0145 -0.0069
  156loPI   PO4 2484  14.051   2.185  10.048  0.2249  0.1517 -0.0826
  156loPI   GL1 2485  13.858   2.248   9.607 -0.1358 -0.2338  0.1089
  156loPI   GL2 2486  13.901   2.574   9.723 -0.0735  0.0204  0.0088
  156loPI   C1A 2487  13.929   2.181   9.247 -0.1117  0.0532  0.1268
  156loPI   C2A 2488  13.960   2.263   8.735  0.0535 -0.4490  0.2068
  156loPI   C3A 2489  13.912   2.014   8.354 -0.1020 -0.0624  0.0276
  156loPI   C4A 2490  14.260   1.900   7.992 -0.1742  0.1556  0.2131
  156loPI   C5A 2491  14.649   1.973   7.901  0.1827  0.1823  0.0236
  156loPI   C6A 2492  14.829   1.986   7.511 -0.1089 -0.2876 -0.1337
  156loPI   C1B 2493  13.837   2.701   9.336  0.1951 -0.1429 -0.0743
  156loPI   C2B 2494  13.784   2.712   8.926 -0.0172  0.1053 -0.1248
  156loPI   C3B 2495  13.722   2.943   8.514 -0.0869 -0.0879 -0.2541
  156loPI   C4B 2496  13.565   3.315   8.490 -0.2679  0.0998 -0.2839
  157loPI    C1 2497  11.489   4.916  10.691 -0.0178  0.0815  0.3389
  157loPI    C2 2498  11.393   5.043  11.058 -0.0437  0.0602  0.3396
  157loPI    C3 2499  11.541   4.675  11.006  0.1460  0.1335  0.3523
  157loPI   PO4 2500  11.263   4.969  10.590  0.2250 -0.0351  0.4107
  157loPI   GL1 2501  11.139   5.026  10.220  0.1419 -0.1308  0.2446
  157loPI   GL2 2502  11.054   5.364  10.188 -0.2651  0.0796 -0.2027
  157loPI   C1A 2503  11.326   4.791   9.769  0.1538 -0.0208  0.2348
  157loPI   C2A 2504  11.546   4.514   9.490 -0.1812  0.0323  0.0928
  157loPI   C3A 2505  11.620   4.557   9.046  0.1959  0.1969  0.3447
  157loPI   C4A 2506  11.639   4.539   8.627 -0.1497 -0.2115  0.0451
  157loPI   C5A 2507  11.736   4.237   8.319 -0.1148  0.3248 -0.2007
  157loPI   C6A 2508  11.963   4.098   7.899 -0.0039 -0.3049  0.1401
  157loPI   C1B 2509  11.076   5.277   9.735  0.1845 -0.0761  0.2732
  157loPI   C2B 2510  11.108   5.333   9.358  0.1273 -0.3764 -0.0543
  157loPI   C3B 2511  11.157   5.304   8.984  0.0623 -0.0139 -0.2321
  157loPI   C4B 2512  11.045   5.156   8.637 -0.2226  0.0101  0.2961
  158loPI    C1 2513  10.345  12.984  10.963  0.1104  0.1202 -0.0667
  158loPI    C2 2514  10.315  13.184  11.307  0.1756  0.1545 -0.0807
  158loPI    C3 2515  10.672  13.055  11.182  0.1365  0.0463 -0.0813
  158loPI   PO4 2516  10.160  13.187  10.735 -0.2223  0.1625  0.0742
  158loPI   GL1 2517   9.981  13.068  10.377 -0.1343  0.0884  0.0159
  158loPI   GL2 2518   9.718  13.118  10.231 -0.0581 -0.3211 -0.1283
  158loPI   C1A 2519  10.078  12.877   9.979  0.1410  0.5051  0.0386
  158loPI   C2A 2520   9.940  12.787   9.543 -0.0576  0.1671 -0.3192
  158loPI   C3A 2521   9.925  12.847   9.093 -0.1036  0.2030 -0.0874
  158loPI   C4A 2522   9.847  12.970   8.679  0.0720  0.2127 -0.2008
  158loPI   C5A 2523   9.698  12.949   8.347  0.0984  0.1559 -0.0393
  158loPI   C6A 2524   9.352  13.228   8.225 -0.2351  0.2768  0.0364
  158loPI   C1B 2525   9.673  13.191   9.823  0.0835  0.0922  0.1037
  158loPI   C2B 2526   9.622  13.140   9.354 -0.0405  0.1679 -0.0149
  158loPI   C3B 2527   9.401  13.226   8.955 -0.1201 -0.1489 -0.1040
  158loPI   C4B 2528   9.225  12.987   8.667 -0.0370 -0.1430  0.0942
  159loPI    C1 2529  16.688  11.196  10.719 -0.3994  0.1850  0.0058
  159loPI    C2 2530  16.409  10.915  10.773 -0.2524  0.0428  0.0345
  159loPI    C3 2531  16.682  10.984  11.058 -0.0553 -0.0507 -0.1293
  159loPI   PO4 2532  16.653  11.239  10.450 -0.1309  0.1811 -0.1592
  159loPI   GL1 2533  16.878  11.385  10.135 -0.1434 -0.1520 -0.2840
  159loPI   GL2 2534  16.698  11.148   9.934 -0.0600 -0.0992 -0.1864
  159loPI   C1A 2535  17.096  11.500   9.883  0.1922 -0.0009  0.2031
  159loPI   C2A 2536  17.299  11.608   9.555  0.1526 -0.0703 -0.1304
  159loPI   C3A 2537  17.498  11.652   9.153 -0.1980  0.1020 -0.2019
  159loPI   C4A 2538  17.486  11.631   8.816  0.0532  0.4284  0.0510
  159loPI   C5A 2539  17.382  11.853   8.370  0.1498  0.1859  0.0306
  159loPI   C6A 2540  17.254  11.976   7.947 -0.2512  0.1433 -0.1035
  159loPI   C1B 2541  16.812  11.306   9.525 -0.1933  0.0639  0.0088
  159loPI   C2B 2542  16.961  11.572   9.153  0.1206  0.1079  0.1102
  159loPI   C3B 2543  16.947  11.379   8.759  0.0588 -0.3069  0.1177
  159loPI   C4B 2544  16.960  11.581   8.340 -0.1538  0.0772  0.0894
  160loPI    C1 2545  10.657   0.769  10.968  0.0122 -0.1375  0.0181
  160loPI    C2 2546  10.422   0.645  11.267  0.1164 -0.0170  0.1514
  160loPI    C3 2547  10.538   1.027  11.249  0.1072 -0.0225 -0.0466
  160loPI   PO4 2548  10.460   0.639  10.795 -0.3127 -0.1609  0.1725
  160loPI   GL1 2549  10.449   0.748  10.404  0.2726  0.0261  0.1236
  160loPI   GL2 2550  10.422   0.973  10.181 -0.0411  0.0497  0.1723
  160loPI   C1A 2551  10.512   0.501  10.023 -0.0709  0.1575 -0.2621
  160loPI   C2A 2552  10.670   0.210   9.714  0.0745 -0.1940 -0.1389
  160loPI   C3A 2553  10.641   0.164   9.182 -0.0597  0.1563  0.1046
  160loPI   C4A 2554  10.566   0.138   8.726  0.2935 -0.1266 -0.2880
  160loPI   C5A 2555  10.722  -0.001   8.307  0.0928 -0.1542 -0.2956
  160loPI   C6A 2556  11.088   0.122   8.041 -0.3168  0.2648  0.0174
  160loPI   C1B 2557  10.366   1.120   9.737 -0.1452 -0.0569  0.0318
  160loPI   C2B 2558  10.216   1.052   9.250 -0.2225 -0.1015  0.0521
  160loPI   C3B 2559  10.196   0.985   8.830 -0.0056 -0.0638  0.2582
  160loPI   C4B 2560  10.015   0.926   8.486  0.1333  0.0230 -0.0653
  161loPI    C1 2561  15.895  12.786  10.517  0.0049 -0.1729  0.2041
  161loPI    C2 2562  16.084  13.073  10.314  0.0636 -0.3786 -0.0377
  161loPI    C3 2563  16.127  13.048  10.711 -0.0029 -0.0102 -0.0033
  161loPI   PO4 2564  15.890  12.588  10.301 -0.0038 -0.1559  0.1707
  161loPI   GL1 2565  15.747  12.623   9.927 -0.3103 -0.0558 -0.0317
  161loPI   GL2 2566  15.809  12.914   9.910 -0.2456  0.1197  0.4947
  161loPI   C1A 2567  15.956  12.383   9.595 -0.4947  0.3812  0.0790
  161loPI   C2A 2568  15.745  12.244   9.283  0.0900 -0.1430 -0.1931
  161loPI   C3A 2569  15.734  12.040   8.840 -0.0582  0.0265  0.0095
  161loPI   C4A 2570  15.770  12.089   8.381 -0.0510  0.0028  0.0333
  161loPI   C5A 2571  15.942  11.864   8.070  0.0999 -0.0637 -0.2116
  161loPI   C6A 2572  15.938  11.543   7.714 -0.0774 -0.1407  0.0078
  161loPI   C1B 2573  15.571  13.206   9.542 -0.0758 -0.0565 -0.1840
  161loPI   C2B 2574  15.285  13.440   9.306  0.0659 -0.3205  0.0003
  161loPI   C3B 2575  15.212  13.809   9.214 -0.0555  0.1992 -0.2748
  161loPI   C4B 2576  15.346  14.229   9.258  0.2675  0.0405  0.3291
  162loPI    C1 2577   0.622   6.117  10.451 -0.1197 -0.2208 -0.1745
  162loPI    C2 2578   0.229   6.184  10.416 -0.1570 -0.3050  0.0653
  162loPI    C3 2579   0.361   5.877  10.636  0.0450 -0.2406  0.0361
  162loPI   PO4 2580   0.692   6.257  10.202  0.0070 -0.1912 -0.1881
  162loPI   GL1 2581   0.563   6.492   9.868 -0.2837 -0.0073  0.1118
  162loPI   GL2 2582   0.685   6.665   9.533  0.0545 -0.1387 -0.2431
  162loPI   C1A 2583   0.150   6.625   9.584  0.0331  0.0432 -0.1511
  162loPI   C2A 2584  -0.113   6.635   9.271 -0.1561  0.3578  0.1842
  162loPI   C3A 2585  -0.340   6.747   8.909 -0.1869  0.2347  0.1084
  162loPI   C4A 2586  -0.349   6.540   8.490 -0.3764 -0.0600  0.1513
  162loPI   C5A 2587  -0.223   6.272   8.129  0.1766 -0.1877 -0.1680
  162loPI   C6A 2588  -0.062   6.319   7.663 -0.0885  0.3431  0.3414
  162loPI   C1B 2589   0.384   6.763   9.170  0.0440  0.2283  0.0261
  162loPI   C2B 2590   0.132   6.770   8.738  0.0176  0.1920  0.0082
  162loPI   C3B 2591   0.056   6.822   8.317  0.2174  0.0571 -0.0045
  162loPI   C4B 2592  -0.086   6.832   7.988 -0.1272  0.0481  0.0121
  163loPI    C1 2593   6.994   9.567  10.986  0.2182  0.0249 -0.1662
  163loPI    C2 2594   6.780   9.864  10.825  0.0215  0.0939  0.2111
  163loPI    C3 2595   6.770   9.801  11.220  0.1290 -0.3625  0.1476
  163loPI   PO4 2596   6.914   9.361  10.794  0.0624  0.0417  0.0138
  163loPI   GL1 2597   7.035   9.135  10.470 -0.0351 -0.0401  0.2126
  163loPI   GL2 2598   7.251   9.274  10.313  0.1590 -0.0518  0.0193
  163loPI   C1A 2599   7.106   8.804  10.322  0.0635  0.1886 -0.1341
  163loPI   C2A 2600   7.137   8.565   9.960 -0.0939  0.0579 -0.1922
  163loPI   C3A 2601   7.325   8.546   9.603 -0.1709  0.1545  0.0773
  163loPI   C4A 2602   7.312   8.608   9.182  0.0895  0.3042  0.1199
  163loPI   C5A 2603   7.434   8.613   8.796  0.0770  0.0484  0.2227
  163loPI   C6A 2604   7.499   8.634   8.348 -0.0542  0.0251  0.0971
  163loPI   C1B 2605   7.090   9.128   9.903 -0.0906 -0.0116  0.0595
  163loPI   C2B 2606   7.130   9.040   9.507 -0.1685  0.4600 -0.0485
  163loPI   C3B 2607   7.265   9.100   9.146 -0.0907 -0.2238  0.3545
  163loPI   C4B 2608   7.325   9.069   8.725  0.1053  0.1091  0.4021
  164loPI    C1 2609   4.945   4.721  10.688 -0.0398  0.0575  0.0537
  164loPI    C2 2610   5.172   4.600  10.995  0.0313  0.2147  0.0639
  164loPI    C3 2611   4.845   4.393  10.895 -0.0441  0.2140  0.3040
  164loPI   PO4 2612   4.995   4.990  10.659 -0.2978 -0.1354 -0.1000
  164loPI   GL1 2613   5.063   5.273  10.437  0.0633  0.2386  0.0652
  164loPI   GL2 2614   4.875   5.561  10.440 -0.3541 -0.2193  0.0157
  164loPI   C1A 2615   5.144   5.129  10.009  0.1873 -0.0753  0.0159
  164loPI   C2A 2616   5.055   4.928   9.619  0.3681 -0.0507 -0.3597
  164loPI   C3A 2617   5.231   4.914   9.209  0.2912 -0.4582 -0.1702
  164loPI   C4A 2618   5.225   4.993   8.783 -0.0846 -0.0296  0.1131
  164loPI   C5A 2619   5.335   4.694   8.405  0.0211  0.3011 -0.1227
  164loPI   C6A 2620   5.587   4.682   8.111  0.2607  0.3523 -0.1503
  164loPI   C1B 2621   5.118   5.677  10.063  0.1362  0.2003 -0.0803
  164loPI   C2B 2622   5.130   5.553   9.676 -0.1483 -0.0201 -0.0038
  164loPI   C3B 2623   5.133   5.573   9.230 -0.2565  0.2814  0.4354
  164loPI   C4B 2624   5.214   5.499   8.767 -0.0005 -0.0798  0.1245
  165loPI    C1 2625  10.375   3.283  10.872  0.0088  0.1391 -0.0826
  165loPI    C2 2626  10.613   3.598  10.804  0.1721  0.0584  0.1054
  165loPI    C3 2627  10.359   3.602  11.113 -0.0902  0.1538 -0.1083
  165loPI   PO4 2628  10.338   3.222  10.609  0.1704 -0.1749 -0.0071
  165loPI   GL1 2629  10.198   3.345  10.291  0.2398  0.0177 -0.0090
  165loPI   GL2 2630  10.270   2.981  10.134 -0.0207  0.0072  0.1301
  165loPI   C1A 2631  10.326   3.495   9.907 -0.1303  0.0514  0.1005
  165loPI   C2A 2632  10.515   3.529   9.478  0.1375  0.0140 -0.0478
  165loPI   C3A 2633  10.420   3.453   9.033  0.0917  0.2139  0.1377
  165loPI   C4A 2634  10.336   3.390   8.589 -0.2825  0.0189  0.1726
  165loPI   C5A 2635  10.648   3.443   8.282  0.0493  0.0398  0.0566
  165loPI   C6A 2636  10.863   3.800   8.130 -0.1479  0.1172 -0.1630
  165loPI   C1B 2637  10.254   3.066   9.710  0.0124 -0.2497  0.1054
  165loPI   C2B 2638  10.302   3.035   9.304 -0.1792  0.2839 -0.1096
  165loPI   C3B 2639  10.466   2.942   8.882 -0.0959 -0.3412 -0.1412
  165loPI   C4B 2640  10.627   2.987   8.386 -0.2457 -0.0018 -0.0146
  166loPI    C1 2641   4.652   1.886  10.494  0.0996  0.0721  0.0513
  166loPI    C2 2642   4.530   2.261  10.427 -0.1885 -0.0105  0.1002
  166loPI    C3 2643   4.281   1.996  10.593  0.0459 -0.1981  0.1590
  166loPI   PO4 2644   4.825   1.858  10.308  0.3591 -0.1202 -0.1410
  166loPI   GL1 2645   5.151   1.567  10.129 -0.0321 -0.1091  0.2114
  166loPI   GL2 2646   4.785   1.403  10.100 -0.2000  0.2590 -0.1738
  166loPI   C1A 2647   5.047   1.637   9.729  0.0625  0.0135 -0.1106
  166loPI   C2A 2648   4.861   1.572   9.362  0.1967  0.0372  0.2284
  166loPI   C3A 2649   4.770   1.588   8.942 -0.0547 -0.1648 -0.1819
  166loPI   C4A 2650   4.809   1.604   8.488  0.0812  0.1329  0.0174
  166loPI   C5A 2651   4.767   1.856   8.268 -0.2491 -0.0812  0.2499
  166loPI   C6A 2652   4.838   2.035   7.923 -0.0714  0.1168 -0.4189
  166loPI   C1B 2653   4.601   1.449   9.757  0.3882  0.2320 -0.0903
  166loPI   C2B 2654   4.377   1.293   9.427  0.1811  0.0012  0.2552
  166loPI   C3B 2655   4.240   1.312   8.990  0.1596 -0.1123 -0.2736
  166loPI   C4B 2656   4.354   1.354   8.569  0.2581  0.0509  0.1976
  167loPI    C1 2657   8.385   2.250  10.731  0.2414 -0.1365 -0.0460
  167loPI    C2 2658   8.610   1.958  10.886  0.2122 -0.1634 -0.0541
  167loPI    C3 2659   8.231   2.004  11.006  0.3142  0.0744  0.1863
  167loPI   PO4 2660   8.634   2.275  10.474  0.2096 -0.1360 -0.0877
  167loPI   GL1 2661   8.723   2.541  10.123  0.3593  0.2827  0.0066
  167loPI   GL2 2662   8.364   2.643  10.238  0.1410  0.2584  0.1601
  167loPI   C1A 2663   8.645   2.568   9.690 -0.0297 -0.0545 -0.0907
  167loPI   C2A 2664   8.555   2.722   9.249 -0.0175  0.0005  0.1085
  167loPI   C3A 2665   8.659   2.743   8.856  0.1049  0.0297  0.1412
  167loPI   C4A 2666   8.720   2.757   8.436 -0.2283  0.0792  0.2876
  167loPI   C5A 2667   8.826   2.732   8.018  0.1900 -0.3475  0.0452
  167loPI   C6A 2668   8.817   2.288   7.843  0.2098  0.0728  0.0337
  167loPI   C1B 2669   8.256   2.828   9.852  0.0187  0.0572 -0.0306
  167loPI   C2B 2670   8.006   2.881   9.509  0.2159  0.0571 -0.1879
  167loPI   C3B 2671   8.136   2.955   9.119  0.4521 -0.1418  0.1810
  167loPI   C4B 2672   8.140   2.957   8.666 -0.2791 -0.1379  0.3644
  168loPI    C1 2673  14.177  10.580  10.697  0.2224  0.2564  0.3536
  168loPI    C2 2674  14.217  10.508  11.088  0.1227  0.3166  0.3751
  168loPI    C3 2675  13.886  10.686  10.950 -0.0358 -0.0936  0.2109
  168loPI   PO4 2676  14.308  10.417  10.575  0.3055  0.0955 -0.2070
  168loPI   GL1 2677  14.138  10.195  10.245 -0.0791  0.0357 -0.3316
  168loPI   GL2 2678  13.983  10.325  10.030 -0.0879  0.1678  0.1784
  168loPI   C1A 2679  14.469  10.069   9.968 -0.0193  0.0332  0.1454
  168loPI   C2A 2680  14.352  10.165   9.550 -0.0083  0.0171 -0.0588
  168loPI   C3A 2681  14.391  10.188   9.110 -0.1003 -0.4059  0.1024
  168loPI   C4A 2682  14.452  10.248   8.670 -0.1133  0.0211 -0.0468
  168loPI   C5A 2683  14.510  10.138   8.174 -0.3991 -0.1842  0.0173
  168loPI   C6A 2684  14.872  10.374   8.003 -0.1783  0.1128 -0.1146
  168loPI   C1B 2685  13.863  10.351   9.565 -0.2929 -0.2217 -0.1001
  168loPI   C2B 2686  13.910  10.444   9.184  0.2497  0.1625 -0.0729
  168loPI   C3B 2687  13.839  10.380   8.681 -0.0772 -0.1963 -0.2186
  168loPI   C4B 2688  13.656  10.360   8.256  0.1742 -0.0983  0.2043
  169loPI    C1 2689  10.738  11.258  10.411 -0.0819 -0.2106 -0.2345
  169loPI    C2 2690  10.999  11.178  10.704  0.0341  0.1014 -0.2493
  169loPI    C3 2691  10.855  10.881  10.478 -0.0706 -0.1459  0.1327
  169loPI   PO4 2692  10.498  11.474  10.488 -0.1161 -0.0065  0.0927
  169loPI   GL1 2693   9.982  11.596  10.342 -0.2475  0.0634 -0.0924
  169loPI   GL2 2694   9.861  11.829  10.476 -0.2518 -0.0128 -0.1095
  169loPI   C1A 2695  10.042  11.821   9.938  0.1285 -0.0703  0.0124
  169loPI   C2A 2696   9.874  11.851   9.485  0.1886 -0.0032 -0.1663
  169loPI   C3A 2697   9.966  11.901   9.043 -0.0003 -0.1832 -0.1087
  169loPI   C4A 2698  10.198  11.971   8.686 -0.2139  0.1116  0.1715
  169loPI   C5A 2699  10.377  12.013   8.331 -0.0567 -0.1217 -0.0430
  169loPI   C6A 2700  10.505  11.987   7.976 -0.1245  0.1264 -0.0183
  169loPI   C1B 2701   9.567  11.909  10.181  0.2785  0.2999  0.2151
  169loPI   C2B 2702   9.314  11.715   9.823  0.0118 -0.1597  0.2133
  169loPI   C3B 2703   9.294  11.385   9.627  0.0206  0.0716 -0.0871
  169loPI   C4B 2704   9.164  11.269   9.248  0.2148  0.3508 -0.0110
  170loPI    C1 2705   4.767   8.166  10.686 -0.1220  0.0635  0.1686
  170loPI    C2 2706   5.007   8.292  10.980  0.2073 -0.0512 -0.0451
  170loPI    C3 2707   4.769   7.977  11.038  0.0676  0.0936  0.1851
  170loPI   PO4 2708   4.851   8.345  10.522  0.1133 -0.1388 -0.1291
  170loPI   GL1 2709   4.972   8.258  10.236 -0.1447 -0.1076 -0.0026
  170loPI   GL2 2710   4.766   8.438  10.087  0.0045  0.2234 -0.0755
  170loPI   C1A 2711   5.360   8.174   9.942  0.2121  0.0473 -0.0499
  170loPI   C2A 2712   5.490   8.235   9.478  0.3214 -0.0165 -0.0980
  170loPI   C3A 2713   5.584   8.210   9.067 -0.2042  0.0527  0.0196
  170loPI   C4A 2714   5.559   8.520   8.735  0.1033 -0.0616 -0.0734
  170loPI   C5A 2715   5.510   8.881   8.468 -0.2362  0.1077 -0.1091
  170loPI   C6A 2716   5.596   9.225   8.298 -0.2621  0.0204  0.0373
  170loPI   C1B 2717   4.953   8.368   9.633 -0.2324 -0.2885  0.2098
  170loPI   C2B 2718   5.065   8.398   9.268 -0.1766 -0.1532 -0.1289
  170loPI   C3B 2719   5.065   8.418   8.859 -0.0704 -0.1297  0.1461
  170loPI   C4B 2720   5.177   8.511   8.383  0.0341  0.0646 -0.0609
  171loPI    C1 2721  17.328   8.561  10.676 -0.0581 -0.1387 -0.0417
  171loPI    C2 2722  17.308   8.162  10.666 -0.1251 -0.1337 -0.1373
  171loPI    C3 2723  17.445   8.348  10.993  0.2544 -0.2478 -0.2258
  171loPI   PO4 2724  17.538   8.635  10.465  0.1341 -0.0082  0.0140
  171loPI   GL1 2725  18.044   8.664  10.383  0.1094 -0.1637  0.0049
  171loPI   GL2 2726  17.854   8.609  10.081 -0.1056 -0.2110  0.2407
  171loPI   C1A 2727  18.132   9.002  10.006 -0.0602  0.0256 -0.1753
  171loPI   C2A 2728  17.794   9.255   9.705  0.1739 -0.1876 -0.1010
  171loPI   C3A 2729  17.709   9.448   9.334  0.4869  0.0262 -0.1597
  171loPI   C4A 2730  17.808   9.753   9.006 -0.2629 -0.0549 -0.0400
  171loPI   C5A 2731  17.857   9.762   8.609  0.1459  0.0215 -0.0627
  171loPI   C6A 2732  18.015   9.498   8.272 -0.1902  0.0080 -0.3275
  171loPI   C1B 2733  17.891   8.790   9.605 -0.1224 -0.0740  0.0065
  171loPI   C2B 2734  17.843   8.970   9.158  0.0988 -0.2865 -0.2666
  171loPI   C3B 2735  18.085   9.200   8.870 -0.3882 -0.3013 -0.0238
  171loPI   C4B 2736  18.270   9.580   8.706 -0.2585  0.0217  0.3896
  172loPI    C1 2737  12.814  10.368  10.705  0.2248  0.0803  0.1135
  172loPI    C2 2738  12.634  10.104  10.946 -0.0316  0.0664 -0.0893
  172loPI    C3 2739  12.970  10.286  11.064 -0.2324  0.1711  0.3396
  172loPI   PO4 2740  12.733  10.317  10.485 -0.0691  0.0015 -0.0549
  172loPI   GL1 2741  12.604  10.330  10.115 -0.1623  0.0439  0.0458
  172loPI   GL2 2742  12.848  10.585  10.119  0.0874  0.0355 -0.3171
  172loPI   C1A 2743  12.557  10.352   9.767  0.1417  0.2266 -0.2398
  172loPI   C2A 2744  12.526  10.314   9.340 -0.0342 -0.1129  0.0667
  172loPI   C3A 2745  12.545  10.322   8.794  0.3538 -0.0739  0.1278
  172loPI   C4A 2746  12.597  10.042   8.431  0.0420  0.3553  0.0885
  172loPI   C5A 2747  12.625   9.659   8.268  0.2466  0.0315  0.0190
  172loPI   C6A 2748  12.752   9.304   8.130 -0.0941  0.2720 -0.0307
  172loPI   C1B 2749  12.945  10.614   9.603  0.2242  0.2865 -0.2903
  172loPI   C2B 2750  12.912  10.597   9.156  0.3076  0.0627  0.1626
  172loPI   C3B 2751  12.879  10.760   8.765  0.0790 -0.2523  0.3383
  172loPI   C4B 2752  12.894  10.931   8.350  0.0291  0.2402  0.2454
  173loPI    C1 2753  13.485  12.718  10.796  0.0491 -0.0441 -0.0931
  173loPI    C2 2754  13.364  13.080  10.915 -0.0316 -0.0742 -0.0834
  173loPI    C3 2755  13.723  12.943  11.025  0.1455  0.1450 -0.3732
  173loPI   PO4 2756  13.332  12.680  10.555 -0.0653  0.3682  0.1189
  173loPI   GL1 2757  13.385  12.276  10.225  0.0126 -0.0185 -0.1244
  173loPI   GL2 2758  13.564  12.494  10.170  0.1346  0.0707 -0.2825
  173loPI   C1A 2759  13.238  12.204   9.777  0.0336  0.0265  0.0540
  173loPI   C2A 2760  13.154  12.158   9.322 -0.1386  0.2323 -0.2185
  173loPI   C3A 2761  13.088  12.080   8.822  0.0502 -0.3612 -0.0969
  173loPI   C4A 2762  13.073  11.929   8.362 -0.0792  0.0860 -0.2376
  173loPI   C5A 2763  13.296  11.796   8.062  0.0388 -0.1453  0.0428
  173loPI   C6A 2764  13.570  11.833   7.677  0.0790 -0.0377 -0.2622
  173loPI   C1B 2765  13.412  12.647   9.789  0.3051 -0.1401 -0.0572
  173loPI   C2B 2766  13.353  12.609   9.362 -0.0730 -0.0495  0.0001
  173loPI   C3B 2767  13.507  12.411   9.073 -0.1231  0.4927 -0.0972
  173loPI   C4B 2768  13.558  12.417   8.751  0.0506  0.1669 -0.0737
  174loPI    C1 2769  15.039   7.842  11.188  0.0379  0.1133  0.1024
  174loPI    C2 2770  14.901   7.501  11.345 -0.1003  0.0425 -0.1675
  174loPI    C3 2771  15.294   7.554  11.296 -0.0833 -0.1119 -0.2012
  174loPI   PO4 2772  14.903   7.853  10.967 -0.2106 -0.4375  0.4502
  174loPI   GL1 2773  14.975   7.939  10.556  0.0042 -0.0059  0.0441
  174loPI   GL2 2774  15.345   7.940  10.359  0.2263  0.0680 -0.3810
  174loPI   C1A 2775  14.957   7.721  10.053  0.2062  0.0945 -0.0666
  174loPI   C2A 2776  14.855   7.551   9.579  0.0137  0.0975 -0.0925
  174loPI   C3A 2777  14.893   7.592   9.220  0.1233 -0.2235 -0.0477
  174loPI   C4A 2778  14.919   7.597   8.908  0.1247 -0.0323 -0.0639
  174loPI   C5A 2779  14.981   7.700   8.434  0.1018  0.3330 -0.0673
  174loPI   C6A 2780  15.075   7.746   7.999 -0.0334  0.0984 -0.0182
  174loPI   C1B 2781  15.343   7.977   9.960 -0.0851  0.0220  0.0898
  174loPI   C2B 2782  15.246   7.917   9.596 -0.4407 -0.1362  0.2853
  174loPI   C3B 2783  15.357   7.939   9.134 -0.2921 -0.2147  0.1768
  174loPI   C4B 2784  15.209   8.006   8.735 -0.0065  0.0163  0.0221
  175loPI    C1 2785  14.663  10.684  10.880  0.2179 -0.0231 -0.0754
  175loPI    C2 2786  14.773  11.058  10.973  0.0700 -0.0273  0.1240
  175loPI    C3 2787  14.387  10.953  10.989  0.0789 -0.1190 -0.1873
  175loPI   PO4 2788  14.829  10.659  10.618  0.3988 -0.0852 -0.0303
  175loPI   GL1 2789  14.593  10.566  10.214  0.1201 -0.1321 -0.2366
  175loPI   GL2 2790  14.641  10.929  10.076  0.0202  0.0763  0.3182
  175loPI   C1A 2791  14.675  10.489   9.784  0.1627 -0.0937  0.2233
  175loPI   C2A 2792  14.809  10.564   9.398 -0.2897 -0.1208 -0.1534
  175loPI   C3A 2793  14.686  10.569   8.929 -0.1130 -0.0911 -0.0779
  175loPI   C4A 2794  14.762  10.575   8.457 -0.1234  0.0327 -0.0210
  175loPI   C5A 2795  14.642  10.817   8.143  0.0988  0.0639 -0.0995
  175loPI   C6A 2796  14.785  10.827   7.641 -0.0110  0.0843 -0.0842
  175loPI   C1B 2797  14.667  11.026   9.650  0.1005  0.0043  0.1491
  175loPI   C2B 2798  14.696  11.030   9.243 -0.1514  0.1791  0.1923
  175loPI   C3B 2799  14.591  11.197   8.846  0.0891 -0.0434 -0.0881
  175loPI   C4B 2800  14.681  11.236   8.411 -0.0757  0.1474 -0.1346
  176loPI    C1 2801   1.691  14.495  10.944 -0.1206 -0.1920  0.1803
  176loPI    C2 2802   1.404  14.569  10.676  0.2248  0.2287 -0.0883
  176loPI    C3 2803   1.392  14.744  11.035  0.0082  0.0314  0.0037
  176loPI   PO4 2804   1.856  14.416  10.829  0.0405 -0.0923  0.3292
  176loPI   GL1 2805   1.797  14.215  10.515  0.0670  0.0157 -0.0013
  176loPI   GL2 2806   2.097  14.079  10.497  0.2019 -0.0842  0.0487
  176loPI   C1A 2807   1.860  13.789  10.216  0.0646  0.0775  0.0356
  176loPI   C2A 2808   1.782  13.827   9.768  0.0022 -0.2216 -0.1367
  176loPI   C3A 2809   1.736  13.833   9.347 -0.0828 -0.0776  0.1600
  176loPI   C4A 2810   1.773  13.809   8.870  0.0366  0.0762  0.0789
  176loPI   C5A 2811   2.008  13.777   8.499 -0.1758 -0.0107  0.3781
  176loPI   C6A 2812   2.267  13.985   8.314  0.1152 -0.0205  0.0884
  176loPI   C1B 2813   1.904  14.267  10.022 -0.0351 -0.2824  0.0790
  176loPI   C2B 2814   1.810  14.320   9.588 -0.3917 -0.0051  0.1869
  176loPI   C3B 2815   1.850  14.290   9.060 -0.0957  0.0420 -0.1400
  176loPI   C4B 2816   1.957  14.203   8.687  0.0394  0.0909 -0.2111
  177loPI    C1 2817   2.653   6.390  10.786  0.1833  0.1526 -0.0552
  177loPI    C2 2818   2.312   6.560  10.907  0.1790  0.0736  0.0444
  177loPI    C3 2819   2.433   6.215  11.070  0.2791  0.0735 -0.0291
  177loPI   PO4 2820   2.607   6.377  10.536 -0.0257  0.1645 -0.0050
  177loPI   GL1 2821   2.583   6.426  10.190 -0.0353  0.3718  0.0304
  177loPI   GL2 2822   2.339   6.459   9.941  0.2556  0.1860 -0.0976
  177loPI   C1A 2823   2.824   6.577   9.834  0.2412  0.1103 -0.0303
  177loPI   C2A 2824   2.883   6.604   9.402  0.0353 -0.1262 -0.0144
  177loPI   C3A 2825   2.999   6.637   8.995 -0.0827  0.3059  0.1493
  177loPI   C4A 2826   2.893   6.649   8.586 -0.1648  0.3136  0.3180
  177loPI   C5A 2827   2.830   6.904   8.183  0.1839 -0.1613  0.0486
  177loPI   C6A 2828   2.743   7.356   7.875  0.0094 -0.0931 -0.1757
  177loPI   C1B 2829   2.553   6.201   9.682  0.0066 -0.0621 -0.2666
  177loPI   C2B 2830   2.567   6.225   9.243 -0.0635 -0.2204 -0.1291
  177loPI   C3B 2831   2.778   6.224   8.840  0.1435 -0.0492  0.1117
  177loPI   C4B 2832   3.071   6.075   8.457  0.2230 -0.2079  0.1399
  178loPI    C1 2833  11.490   2.647  10.390 -0.0793 -0.0071 -0.2186
  178loPI    C2 2834  11.372   2.275  10.478 -0.0751  0.0188 -0.1011
  178loPI    C3 2835  11.755   2.347  10.387 -0.0697 -0.0004 -0.0935
  178loPI   PO4 2836  11.321   2.742  10.307  0.1418  0.0229 -0.1314
  178loPI   GL1 2837  11.279   2.871   9.935 -0.1723 -0.0156  0.0920
  178loPI   GL2 2838  11.457   2.508   9.904 -0.1573 -0.2215 -0.3362
  178loPI   C1A 2839  11.119   2.817   9.545  0.0090  0.0322 -0.0112
  178loPI   C2A 2840  11.064   2.733   9.137  0.1975 -0.0406  0.1592
  178loPI   C3A 2841  10.886   2.761   8.720  0.1104 -0.2860 -0.1572
  178loPI   C4A 2842  11.013   2.568   8.362  0.1023  0.0073  0.0566
  178loPI   C5A 2843  11.242   2.611   8.037  0.0162  0.0630 -0.0091
  178loPI   C6A 2844  11.680   2.517   8.005  0.0553  0.0493 -0.1117
  178loPI   C1B 2845  11.571   2.603   9.505  0.1269  0.1987 -0.2525
  178loPI   C2B 2846  11.468   2.342   9.103 -0.0290 -0.1373 -0.0470
  178loPI   C3B 2847  11.360   2.274   8.666  0.0509 -0.2200  0.0507
  178loPI   C4B 2848  11.500   2.179   8.296  0.0225  0.2354 -0.0491
  179loPI    C1 2849   0.126  10.888  10.845 -0.0135 -0.1742  0.0417
  179loPI    C2 2850  -0.072  10.845  11.191 -0.2196 -0.2199 -0.0802
  179loPI    C3 2851   0.288  10.677  11.144 -0.0405  0.0668  0.2297
  179loPI   PO4 2852  -0.083  10.825  10.658  0.5364  0.1085 -0.0509
  179loPI   GL1 2853  -0.101  10.790  10.227 -0.0498 -0.0674  0.1413
  179loPI   GL2 2854  -0.030  10.522  10.065 -0.1954 -0.0805 -0.0023
  179loPI   C1A 2855  -0.186  10.853   9.743  0.1076 -0.0497  0.2878
  179loPI   C2A 2856  -0.015  10.699   9.384  0.1903 -0.0655  0.0755
  179loPI   C3A 2857   0.072  10.867   8.903  0.3158 -0.1188 -0.1458
  179loPI   C4A 2858   0.216  11.045   8.556  0.2278  0.0746  0.0638
  179loPI   C5A 2859   0.019  11.234   8.213 -0.1270 -0.0907  0.0745
  179loPI   C6A 2860  -0.481  11.073   8.061  0.2524  0.1443  0.1140
  179loPI   C1B 2861  -0.085  10.216   9.742  0.0966 -0.0609 -0.2521
  179loPI   C2B 2862   0.027  10.190   9.335  0.1860  0.2320  0.3360
  179loPI   C3B 2863  -0.007  10.206   8.893 -0.0011  0.0671  0.1084
  179loPI   C4B 2864   0.151  10.458   8.505  0.1478 -0.0903 -0.0170
  180loPI    C1 2865   1.220   3.336  10.696  0.0854 -0.0432 -0.1612
  180loPI    C2 2866   1.022   3.684  10.695 -0.0505 -0.1203 -0.2185
  180loPI    C3 2867   0.985   3.434  11.005  0.1190 -0.0439 -0.1353
  180loPI   PO4 2868   1.467   3.370  10.569 -0.0615 -0.0216 -0.0168
  180loPI   GL1 2869   1.511   3.498  10.166  0.1831  0.3089  0.0519
  180loPI   GL2 2870   1.327   3.768   9.961  0.0844  0.2214  0.3299
  180loPI   C1A 2871   1.731   3.443   9.867  0.1060  0.2758  0.1938
  180loPI   C2A 2872   1.736   3.383   9.452  0.0250 -0.2233 -0.1446
  180loPI   C3A 2873   1.635   3.285   8.908 -0.0058 -0.2057  0.0798
  180loPI   C4A 2874   1.753   3.227   8.424 -0.3088 -0.0623 -0.0017
  180loPI   C5A 2875   1.771   2.980   8.044  0.1289 -0.2300  0.2639
  180loPI   C6A 2876   1.540   3.059   7.714  0.3289  0.1271  0.1248
  180loPI   C1B 2877   1.343   3.664   9.489  0.2254  0.1074  0.1862
  180loPI   C2B 2878   1.381   3.708   8.986 -0.0386  0.0569 -0.3417
  180loPI   C3B 2879   1.402   3.592   8.584  0.0798 -0.1309 -0.0239
  180loPI   C4B 2880   1.274   3.343   8.234  0.0058 -0.1726  0.0807
  181loPI    C1 2881   4.013   7.901  11.077 -0.2060  0.0497 -0.1291
  181loPI    C2 2882   3.984   7.572  10.851 -0.0710 -0.0252 -0.0392
  181loPI    C3 2883   3.929   7.548  11.246 -0.0097  0.0508 -0.0257
  181loPI   PO4 2884   4.233   7.992  10.983  0.0567  0.1554  0.2624
  181loPI   GL1 2885   4.403   7.860  10.653  0.0660  0.0792  0.5243
  181loPI   GL2 2886   4.352   8.139  10.436  0.0191  0.1808  0.1949
  181loPI   C1A 2887   4.093   7.660  10.329 -0.2015  0.0506  0.0918
  181loPI   C2A 2888   4.044   7.676   9.832  0.2379  0.0064  0.0752
  181loPI   C3A 2889   4.178   7.717   9.435 -0.0485  0.5349  0.0098
  181loPI   C4A 2890   4.217   7.675   9.024 -0.2993  0.1462  0.0278
  181loPI   C5A 2891   4.080   7.608   8.572 -0.1159 -0.2627  0.0252
  181loPI   C6A 2892   3.812   7.890   8.238 -0.0048  0.0852 -0.0362
  181loPI   C1B 2893   4.439   7.999   9.957  0.4029  0.2297 -0.2462
  181loPI   C2B 2894   4.549   8.056   9.565  0.0309 -0.0211 -0.2396
  181loPI   C3B 2895   4.675   8.110   9.116 -0.1238 -0.3574 -0.1708
  181loPI   C4B 2896   4.721   8.049   8.738  0.0855 -0.0071  0.3100
  182loPI    C1 2897  12.978   5.501  10.740  0.0134 -0.1514  0.1259
  182loPI    C2 2898  12.626   5.676  10.815  0.0065 -0.1076 -0.0070
  182loPI    C3 2899  12.760   5.386  11.055 -0.1275 -0.1352  0.0354
  182loPI   PO4 2900  12.992   5.592  10.488  0.3889  0.1115 -0.1030
  182loPI   GL1 2901  12.924   5.628  10.079  0.0425  0.0476 -0.2336
  182loPI   GL2 2902  12.876   5.946  10.189  0.5766 -0.0668 -0.1627
  182loPI   C1A 2903  12.564   5.327   9.827 -0.2702 -0.0476  0.4148
  182loPI   C2A 2904  12.712   5.137   9.469 -0.2623 -0.2880  0.0528
  182loPI   C3A 2905  12.856   5.079   9.008  0.1298 -0.0024 -0.2426
  182loPI   C4A 2906  12.962   5.056   8.663  0.0497  0.2406  0.1180
  182loPI   C5A 2907  12.892   5.008   8.334  0.0014 -0.0173  0.1413
  182loPI   C6A 2908  13.187   5.118   8.082  0.2007 -0.5855  0.1362
  182loPI   C1B 2909  12.937   6.054   9.818 -0.1284  0.0199 -0.1253
  182loPI   C2B 2910  12.896   5.951   9.399 -0.3555  0.2942  0.0801
  182loPI   C3B 2911  12.817   6.053   8.943 -0.0433 -0.0204  0.0482
  182loPI   C4B 2912  12.773   6.094   8.485  0.1589  0.1766  0.1266
  183loPI    C1 2913   8.849   1.828  10.286 -0.0171 -0.1256  0.0917
  183loPI    C2 2914   8.988   1.453  10.304  0.0924 -0.0810  0.1838
  183loPI    C3 2915   8.802   1.614  10.620 -0.1376 -0.1272  0.0742
  183loPI   PO4 2916   8.749   1.859  10.133  0.0297  0.2503  0.1317
  183loPI   GL1 2917   8.845   1.832   9.798  0.1244 -0.1557 -0.0317
  183loPI   GL2 2918   9.039   2.142   9.761 -0.1477  0.0456 -0.0136
  183loPI   C1A 2919   8.862   1.824   9.396  0.1630  0.0382  0.0711
  183loPI   C2A 2920   9.087   1.965   9.046 -0.2564  0.0000 -0.0721
  183loPI   C3A 2921   9.150   1.881   8.652  0.0805  0.0590 -0.3944
  183loPI   C4A 2922   9.298   2.022   8.283 -0.1104  0.1014  0.3111
  183loPI   C5A 2923   9.660   2.071   8.054 -0.2678 -0.0618  0.0635
  183loPI   C6A 2924   9.760   1.734   7.631 -0.0359  0.1671 -0.0274
  183loPI   C1B 2925   8.983   2.348   9.340  0.0434 -0.1287  0.2272
  183loPI   C2B 2926   9.134   2.471   8.936 -0.1780 -0.0723 -0.0560
  183loPI   C3B 2927   9.178   2.579   8.550  0.0354 -0.1186 -0.0367
  183loPI   C4B 2928   9.266   2.513   8.147 -0.1442 -0.0979  0.1969
  184loPI    C1 2929  13.191  15.322  10.592 -0.0365  0.0919 -0.0568
  184loPI    C2 2930  12.963  14.994  10.572  0.2372 -0.1047 -0.0018
  184loPI    C3 2931  13.086  15.131  10.927  0.0933  0.0812 -0.0219
  184loPI   PO4 2932  13.385  15.326  10.432 -0.0594  0.2403  0.2050
  184loPI   GL1 2933  13.610  15.550  10.198 -0.0458  0.3476 -0.0276
  184loPI   GL2 2934  13.984  15.451  10.265  0.3039  0.1766  0.0375
  184loPI   C1A 2935  13.648  15.516   9.750 -0.0831 -0.0190  0.0231
  184loPI   C2A 2936  13.835  15.776   9.437 -0.0038 -0.3277 -0.3027
  184loPI   C3A 2937  13.908  16.063   9.190  0.1273 -0.1073  0.1257
  184loPI   C4A 2938  13.900  15.996   8.841 -0.1272 -0.0177  0.1533
  184loPI   C5A 2939  13.985  15.994   8.320  0.0386 -0.1408  0.1085
  184loPI   C6A 2940  14.214  16.270   7.999  0.3603  0.0680  0.0109
  184loPI   C1B 2941  14.024  15.171  10.021 -0.1502 -0.0383  0.3745
  184loPI   C2B 2942  14.154  15.127   9.650  0.1690 -0.0864  0.2981
  184loPI   C3B 2943  14.045  15.248   9.264 -0.1281  0.3552 -0.0396
  184loPI   C4B 2944  13.793  15.543   9.027 -0.2654  0.0160 -0.0375
  185loPI    C1 2945   1.083  17.811  10.845 -0.0855  0.4110  0.0428
  185loPI    C2 2946   1.441  17.969  10.760  0.1063  0.0307  0.1198
  185loPI    C3 2947   1.258  18.060  11.104  0.2079  0.0944  0.1574
  185loPI   PO4 2948   1.012  17.807  10.609  0.3218 -0.1257 -0.4176
  185loPI   GL1 2949   1.176  17.734  10.295 -0.0324 -0.1319  0.3478
  185loPI   GL2 2950   1.426  17.650  10.308 -0.1551 -0.0560  0.2619
  185loPI   C1A 2951   1.093  17.889   9.856  0.1235  0.0231 -0.0416
  185loPI   C2A 2952   1.180  17.929   9.435  0.0655  0.2089  0.2029
  185loPI   C3A 2953   1.168  17.833   9.085 -0.1269 -0.1113 -0.0883
  185loPI   C4A 2954   1.174  17.739   8.638  0.0452  0.2201  0.1755
  185loPI   C5A 2955   1.187  18.063   8.328 -0.3813 -0.0933  0.1269
  185loPI   C6A 2956   1.328  18.520   8.380 -0.0230  0.2827 -0.1347
  185loPI   C1B 2957   1.554  17.576   9.765  0.1071  0.1561  0.0406
  185loPI   C2B 2958   1.548  17.537   9.283 -0.0321  0.3141  0.0290
  185loPI   C3B 2959   1.582  17.471   8.874  0.0326  0.0806  0.2170
  185loPI   C4B 2960   1.571  17.439   8.481 -0.3602  0.1657  0.3371
  186loPI    C1 2961  15.495   5.877  10.622 -0.1819  0.0756  0.0233
  186loPI    C2 2962  15.161   6.038  10.772 -0.1561  0.1260  0.0269
  186loPI    C3 2963  15.257   5.659  10.858 -0.1508  0.1490  0.1226
  186loPI   PO4 2964  15.500   6.157  10.423 -0.1688 -0.0889  0.0896
  186loPI   GL1 2965  15.621   6.154  10.020  0.1924  0.0501 -0.2639
  186loPI   GL2 2966  15.802   6.462  10.017 -0.1499 -0.0094 -0.2153
  186loPI   C1A 2967  15.577   6.246   9.587 -0.0109 -0.3730  0.2286
  186loPI   C2A 2968  15.614   6.395   9.182  0.0722  0.1291  0.3165
  186loPI   C3A 2969  15.525   6.444   8.796  0.0502 -0.0906  0.0676
  186loPI   C4A 2970  15.436   6.528   8.334  0.1943  0.2793  0.0402
  186loPI   C5A 2971  15.558   6.798   8.010  0.2321 -0.0831 -0.1692
  186loPI   C6A 2972  15.394   6.867   7.556  0.1350  0.0161 -0.0825
  186loPI   C1B 2973  15.570   6.751   9.715  0.3127 -0.0742 -0.0684
  186loPI   C2B 2974  15.455   6.837   9.240 -0.1731  0.0225  0.3724
  186loPI   C3B 2975  15.388   7.030   8.887  0.1854  0.1183  0.2131
  186loPI   C4B 2976  15.477   7.027   8.456  0.0617 -0.0767 -0.0060
  187loPI    C1 2977  13.827   9.571  10.718  0.1067  0.0596 -0.1471
  187loPI    C2 2978  13.705   9.218  10.576  0.0690  0.0161 -0.0078
  187loPI    C3 2979  13.438   9.505  10.655  0.1045  0.0948 -0.1711
  187loPI   PO4 2980  13.957   9.612  10.574 -0.3445 -0.0421  0.2777
  187loPI   GL1 2981  13.997   9.348  10.194 -0.0635  0.1377  0.1879
  187loPI   GL2 2982  14.158   9.713  10.089  0.1179  0.1655 -0.0712
  187loPI   C1A 2983  14.178   9.345   9.777  0.1094 -0.0956  0.1785
  187loPI   C2A 2984  14.062   9.373   9.357 -0.1489 -0.0454  0.1037
  187loPI   C3A 2985  14.089   9.372   8.860 -0.1742  0.0206 -0.1664
  187loPI   C4A 2986  13.973   9.523   8.408  0.0004  0.1453  0.0226
  187loPI   C5A 2987  13.658   9.430   8.184  0.0555 -0.2444 -0.1809
  187loPI   C6A 2988  13.476   9.009   8.099  0.0467  0.0206 -0.2898
  187loPI   C1B 2989  13.955   9.806   9.705 -0.0118  0.0692  0.1514
  187loPI   C2B 2990  13.927   9.928   9.344 -0.0089 -0.0857  0.1462
  187loPI   C3B 2991  13.988   9.898   8.830 -0.0838  0.0960 -0.1512
  187loPI   C4B 2992  14.019  10.022   8.404  0.0485 -0.0059  0.1546
  188loPI    C1 2993   1.294   1.755  11.142 -0.2795  0.1143 -0.2404
  188loPI    C2 2994   0.977   1.787  11.384 -0.1308  0.4401 -0.0823
  188loPI    C3 2995   1.324   1.960  11.484  0.1819 -0.1391 -0.1200
  188loPI   PO4 2996   1.240   1.851  10.891 -0.0819 -0.1970 -0.0769
  188loPI   GL1 2997   1.161   1.727  10.518 -0.0670 -0.3577  0.0164
  188loPI   GL2 2998   0.808   1.553  10.378  0.3564  0.0008  0.5387
  188loPI   C1A 2999   1.550   1.780  10.115  0.1977  0.0636 -0.0038
  188loPI   C2A 3000   1.599   1.915   9.635  0.0510  0.2316  0.0446
  188loPI   C3A 3001   1.508   1.911   9.194  0.0457 -0.2457  0.2096
  188loPI   C4A 3002   1.547   1.753   8.795 -0.0328  0.1391 -0.0769
  188loPI   C5A 3003   1.589   1.666   8.397  0.0489 -0.0938  0.3146
  188loPI   C6A 3004   1.479   1.455   8.057  0.2864  0.0597  0.2249
  188loPI   C1B 3005   0.623   1.522   9.906  0.1172 -0.1500 -0.2967
  188loPI   C2B 3006   0.609   1.488   9.440  0.1203 -0.0240  0.0065
  188loPI   C3B 3007   0.525   1.478   8.997 -0.0542 -0.1059  0.2849
  188loPI   C4B 3008   0.581   1.385   8.592  0.0874  0.0157  0.0308
  189loPI    C1 3009   7.742  13.231  10.483 -0.0110 -0.4279 -0.2232
  189loPI    C2 3010   7.665  12.969  10.776  0.0782 -0.1305  0.0716
  189loPI    C3 3011   8.041  13.083  10.703  0.0346 -0.0409 -0.0170
  189loPI   PO4 3012   7.622  13.306  10.297  0.2851 -0.0778  0.0830
  189loPI   GL1 3013   7.235  13.306  10.154 -0.2834 -0.2807  0.2584
  189loPI   GL2 3014   7.093  13.057  10.169  0.0470  0.1541 -0.0708
  189loPI   C1A 3015   7.272  13.375   9.704 -0.0275 -0.0046  0.2605
  189loPI   C2A 3016   7.421  13.205   9.355  0.2187  0.3961 -0.4118
  189loPI   C3A 3017   7.189  13.017   8.920 -0.4629  0.0050 -0.2924
  189loPI   C4A 3018   6.972  12.870   8.649  0.5599 -0.0060  0.0452
  189loPI   C5A 3019   6.667  12.610   8.431 -0.0202 -0.2725  0.0430
  189loPI   C6A 3020   6.253  12.685   8.383  0.1905  0.0245  0.0531
  189loPI   C1B 3021   7.154  12.874   9.714 -0.0785  0.1015  0.2151
  189loPI   C2B 3022   6.989  12.923   9.386 -0.0763 -0.0859 -0.2286
  189loPI   C3B 3023   6.723  12.800   9.173  0.0651  0.2172 -0.1708
  189loPI   C4B 3024   6.456  12.737   8.870  0.2480  0.0594 -0.0462
  190loPI    C1 3025  16.501  17.500  10.900  0.0245  0.0965  0.1920
  190loPI    C2 3026  16.457  17.151  11.090  0.0986  0.0620  0.1467
  190loPI    C3 3027  16.590  17.472  11.288  0.3190 -0.0111  0.1193
  190loPI   PO4 3028  16.756  17.379  10.687 -0.1998  0.3034 -0.2448
  190loPI   GL1 3029  16.929  17.204  10.378 -0.2004 -0.0594 -0.1168
  190loPI   GL2 3030  17.167  17.105  10.251  0.1501 -0.6499 -0.1735
  190loPI   C1A 3031  16.806  17.402   9.895  0.0928 -0.1019 -0.0387
  190loPI   C2A 3032  16.887  17.588   9.544 -0.2548 -0.0663 -0.2240
  190loPI   C3A 3033  16.885  17.391   9.144 -0.1406  0.0680  0.0157
  190loPI   C4A 3034  16.836  17.437   8.696 -0.1295  0.0791  0.1713
  190loPI   C5A 3035  16.911  17.383   8.268  0.2149  0.2624 -0.1242
  190loPI   C6A 3036  17.088  17.025   8.059  0.1042  0.1333 -0.0619
  190loPI   C1B 3037  17.237  17.155   9.777 -0.1876  0.2817  0.0116
  190loPI   C2B 3038  17.377  17.154   9.316 -0.0721  0.0195 -0.1872
  190loPI   C3B 3039  17.271  17.218   8.955  0.3857  0.2835 -0.0957
  190loPI   C4B 3040  17.226  17.085   8.604  0.4116 -0.1912  0.0570
  191loPI    C1 3041  15.754  15.738  11.151 -0.0385  0.0237  0.1028
  191loPI    C2 3042  15.679  15.428  11.392  0.0504 -0.0556  0.0298
  191loPI    C3 3043  15.389  15.575  11.159 -0.0337  0.0165  0.1784
  191loPI   PO4 3044  15.940  15.684  10.961  0.0772 -0.0502 -0.1952
  191loPI   GL1 3045  16.033  15.851  10.516  0.1143 -0.1348  0.1747
  191loPI   GL2 3046  16.507  15.915  10.334 -0.0445  0.3030  0.4138
  191loPI   C1A 3047  16.049  15.728  10.098 -0.2701 -0.4018  0.0166
  191loPI   C2A 3048  16.177  15.813   9.556  0.3482  0.1252  0.0264
  191loPI   C3A 3049  16.104  15.775   9.118 -0.1855  0.0510 -0.1575
  191loPI   C4A 3050  16.252  15.687   8.624  0.0535 -0.0323 -0.2744
  191loPI   C5A 3051  16.117  15.800   8.244  0.0410 -0.0125  0.3327
  191loPI   C6A 3052  15.810  15.714   7.871 -0.0912 -0.0239 -0.1150
  191loPI   C1B 3053  16.543  15.947   9.867  0.0911  0.0841 -0.1009
  191loPI   C2B 3054  16.649  15.971   9.375 -0.0747 -0.1724  0.2287
  191loPI   C3B 3055  16.602  15.895   8.910  0.3641 -0.2332  0.1132
  191loPI   C4B 3056  16.725  15.824   8.427  0.3371  0.0202  0.1527
  192loPI    C1 3057  15.902  16.308  11.248 -0.0812 -0.1299 -0.2528
  192loPI    C2 3058  16.146  16.024  11.388 -0.0306 -0.0558 -0.1892
  192loPI    C3 3059  15.887  16.204  11.633 -0.0750 -0.0595 -0.2334
  192loPI   PO4 3060  15.831  16.216  10.989  0.2517  0.0093  0.2752
  192loPI   GL1 3061  15.712  16.270  10.574  0.3921  0.0005 -0.1103
  192loPI   GL2 3062  15.971  16.458  10.507 -0.3368 -0.0720 -0.0636
  192loPI   C1A 3063  15.633  16.035  10.267  0.3234  0.3467  0.1616
  192loPI   C2A 3064  15.733  15.962   9.803 -0.2195  0.3972 -0.0838
  192loPI   C3A 3065  15.725  16.187   9.349 -0.0461 -0.0475  0.3584
  192loPI   C4A 3066  15.802  16.128   8.886  0.3502  0.2625 -0.0208
  192loPI   C5A 3067  15.874  16.127   8.455 -0.1411 -0.2024 -0.0803
  192loPI   C6A 3068  15.953  16.450   8.156  0.2171  0.0045  0.3518
  192loPI   C1B 3069  15.828  16.607  10.056  0.1462 -0.1900 -0.5017
  192loPI   C2B 3070  15.754  16.716   9.568  0.3785 -0.1036 -0.1323
  192loPI   C3B 3071  15.865  16.589   9.135  0.2413  0.2926  0.1249
  192loPI   C4B 3072  15.889  16.587   8.657 -0.1378 -0.0622  0.3018
  193loPI    C1 3073   3.978   0.844  11.091  0.0457  0.1913  0.0603
  193loPI    C2 3074   4.123   0.475  11.142  0.1541  0.1901 -0.2371
  193loPI    C3 3075   3.908   0.647  11.431  0.2298 -0.0469 -0.0365
  193loPI   PO4 3076   3.858   0.849  10.874 -0.0078 -0.0123 -0.3002
  193loPI   GL1 3077   3.876   0.649  10.587  0.2125  0.0146 -0.0584
  193loPI   GL2 3078   3.544   0.627  10.480 -0.1476 -0.2165  0.0160
  193loPI   C1A 3079   3.846   0.756  10.099 -0.0458 -0.1223 -0.1857
  193loPI   C2A 3080   3.623   0.728   9.771  0.1258  0.1517 -0.5542
  193loPI   C3A 3081   3.621   0.682   9.353 -0.0599  0.1720 -0.2055
  193loPI   C4A 3082   3.607   0.656   8.877 -0.2297  0.1676 -0.1886
  193loPI   C5A 3083   3.528   0.641   8.471  0.1641  0.0014 -0.0501
  193loPI   C6A 3084   3.238   0.755   8.186  0.2686 -0.2648 -0.0729
  193loPI   C1B 3085   3.267   0.650  10.100 -0.2404  0.0589 -0.0620
  193loPI   C2B 3086   3.150   0.517   9.696  0.0330 -0.3256  0.0335
  193loPI   C3B 3087   3.098   0.427   9.264 -0.0728  0.3982  0.0171
  193loPI   C4B 3088   3.115   0.379   8.847 -0.0042  0.0155  0.1696
  194loPI    C1 3089  12.223  15.774  10.669 -0.0171 -0.0447 -0.0631
  194loPI    C2 3090  12.193  16.127  10.853 -0.0846 -0.0526 -0.0582
  194loPI    C3 3091  12.289  15.800  11.062 -0.2519 -0.0782 -0.0197
  194loPI   PO4 3092  12.089  15.897  10.392 -0.0912 -0.1628  0.2846
  194loPI   GL1 3093  12.170  15.823   9.972  0.1814 -0.2304  0.0716
  194loPI   GL2 3094  12.236  15.483   9.862 -0.4305 -0.1677  0.2374
  194loPI   C1A 3095  12.524  16.053   9.657  0.0888 -0.0234  0.2394
  194loPI   C2A 3096  12.519  15.982   9.230 -0.0099 -0.0218 -0.1257
  194loPI   C3A 3097  12.617  16.099   8.800  0.0755 -0.1922 -0.0785
  194loPI   C4A 3098  12.736  16.086   8.491 -0.1616  0.1172 -0.0300
  194loPI   C5A 3099  12.977  16.060   8.253  0.0909 -0.0996 -0.1605
  194loPI   C6A 3100  13.396  15.993   8.136 -0.1392 -0.0767 -0.0147
  194loPI   C1B 3101  12.263  15.666   9.468 -0.0436 -0.2085  0.0266
  194loPI   C2B 3102  12.128  15.833   8.989 -0.3564 -0.1234  0.0274
  194loPI   C3B 3103  12.140  15.771   8.521  0.2386  0.1545 -0.5279
  194loPI   C4B 3104  12.024  15.860   8.137 -0.2496 -0.1661 -0.0640
  195loPI    C1 3105   9.632  13.057  10.748 -0.1037 -0.0803 -0.1868
  195loPI    C2 3106   9.901  12.796  10.887  0.2391  0.0952 -0.5016
  195loPI    C3 3107   9.832  13.137  11.084 -0.0551 -0.1296 -0.2039
  195loPI   PO4 3108   9.447  12.944  10.647  0.3667  0.0159  0.2247
  195loPI   GL1 3109   9.195  12.969  10.258  0.0928  0.2106 -0.1618
  195loPI   GL2 3110   8.952  13.159  10.232  0.0174  0.0501  0.2670
  195loPI   C1A 3111   9.001  12.763   9.921  0.1411 -0.0887 -0.1147
  195loPI   C2A 3112   8.767  12.806   9.505  0.1312  0.2365  0.0377
  195loPI   C3A 3113   8.480  13.018   9.237 -0.0439 -0.1405 -0.0849
  195loPI   C4A 3114   8.283  13.112   8.865 -0.0134  0.1882 -0.0239
  195loPI   C5A 3115   8.029  12.943   8.539  0.0928 -0.0436  0.1656
  195loPI   C6A 3116   7.798  12.735   8.291 -0.1698  0.2477  0.1454
  195loPI   C1B 3117   8.719  13.203   9.922  0.0155 -0.2046 -0.0074
  195loPI   C2B 3118   8.695  13.366   9.519 -0.0798 -0.1790  0.2033
  195loPI   C3B 3119   8.627  13.500   9.077  0.2315 -0.0652 -0.2337
  195loPI   C4B 3120   8.550  13.661   8.652 -0.0361  0.1044  0.0401
  196loPI    C1 3121   4.858  14.766  10.768  0.1433 -0.0888 -0.0144
  196loPI    C2 3122   4.928  15.099  10.557  0.1253 -0.1416 -0.1039
  196loPI    C3 3123   4.828  15.125  10.943  0.0179 -0.0381 -0.1383
  196loPI   PO4 3124   4.758  14.625  10.621 -0.2506  0.2960  0.2399
  196loPI   GL1 3125   4.794  14.622  10.211  0.0025  0.1079  0.0244
  196loPI   GL2 3126   4.908  14.841  10.103 -0.0589 -0.0361  0.1433
  196loPI   C1A 3127   4.517  14.560   9.845  0.0227  0.0334 -0.3213
  196loPI   C2A 3128   4.079  14.677   9.663  0.2932 -0.1875  0.2082
  196loPI   C3A 3129   3.888  14.507   9.346  0.0142  0.1126  0.0237
  196loPI   C4A 3130   3.896  14.640   8.930  0.0361  0.1677 -0.0100
  196loPI   C5A 3131   3.921  14.854   8.517 -0.0464  0.1939 -0.0907
  196loPI   C6A 3132   3.725  14.941   8.066 -0.2734 -0.1358  0.1189
  196loPI   C1B 3133   5.000  14.888   9.727 -0.0206  0.0873  0.0939
  196loPI   C2B 3134   4.980  14.801   9.311  0.2820  0.2180  0.1722
  196loPI   C3B 3135   4.822  14.955   8.945  0.0903  0.0170  0.0507
  196loPI   C4B 3136   4.940  15.145   8.492  0.2658 -0.2739 -0.1560
  197loPI    C1 3137  16.779   8.293  10.778  0.3083 -0.0421 -0.0088
  197loPI    C2 3138  16.788   7.908  10.884  0.0105 -0.0410  0.0274
  197loPI    C3 3139  16.942   8.185  11.127  0.2791 -0.1411 -0.0254
  197loPI   PO4 3140  16.868   8.326  10.566  0.3033 -0.0455 -0.0095
  197loPI   GL1 3141  16.998   8.413  10.159  0.0347 -0.3323 -0.0444
  197loPI   GL2 3142  17.239   8.301  10.149 -0.2069 -0.1227  0.1748
  197loPI   C1A 3143  16.978   8.296   9.755 -0.0429 -0.2960 -0.0412
  197loPI   C2A 3144  17.036   8.381   9.384  0.0074  0.0147  0.1346
  197loPI   C3A 3145  17.095   8.296   9.005 -0.5369 -0.4176  0.0253
  197loPI   C4A 3146  17.069   8.322   8.599  0.0379  0.0575  0.1525
  197loPI   C5A 3147  17.224   8.268   8.173  0.1945  0.2700  0.1627
  197loPI   C6A 3148  17.331   8.363   7.853 -0.0478  0.1397 -0.0432
  197loPI   C1B 3149  17.508   8.103   9.884 -0.3108 -0.3752  0.0521
  197loPI   C2B 3150  17.540   8.231   9.422 -0.0499  0.2338 -0.2356
  197loPI   C3B 3151  17.591   8.210   9.059 -0.0847  0.0902  0.1331
  197loPI   C4B 3152  17.557   8.214   8.602 -0.1244  0.1029 -0.0758
  198loPI    C1 3153   5.897   6.630  10.575 -0.2855 -0.1947 -0.1268
  198loPI    C2 3154   5.965   6.470  10.935 -0.2215 -0.0757 -0.0857
  198loPI    C3 3155   5.602   6.613  10.846 -0.2023  0.0150 -0.0209
  198loPI   PO4 3156   5.904   6.382  10.419 -0.0414  0.1136 -0.0645
  198loPI   GL1 3157   6.018   6.358  10.022 -0.1963  0.1132  0.0593
  198loPI   GL2 3158   6.203   6.624   9.872  0.0211  0.0807  0.0717
  198loPI   C1A 3159   5.862   6.303   9.619  0.1034  0.0971 -0.1395
  198loPI   C2A 3160   5.950   6.255   9.153 -0.2053 -0.0259  0.0321
  198loPI   C3A 3161   6.024   6.181   8.685 -0.1652  0.2454 -0.0130
  198loPI   C4A 3162   6.216   6.242   8.250  0.0701  0.1533  0.0783
  198loPI   C5A 3163   6.333   6.395   7.813 -0.0856 -0.0931 -0.0508
  198loPI   C6A 3164   6.125   6.703   7.528  0.1109 -0.0398 -0.3592
  198loPI   C1B 3165   6.268   6.546   9.465  0.0257  0.0718  0.3523
  198loPI   C2B 3166   6.343   6.508   8.973 -0.1833 -0.0694 -0.2248
  198loPI   C3B 3167   6.415   6.576   8.547 -0.1870 -0.1270  0.1590
  198loPI   C4B 3168   6.276   6.771   8.159 -0.0572 -0.2028  0.0826
  199loPI    C1 3169   0.396   5.277  10.257 -0.0527  0.0837 -0.1212
  199loPI    C2 3170   0.060   5.060  10.261 -0.0912  0.1447 -0.0232
  199loPI    C3 3171   0.360   4.970  10.511 -0.0822  0.1646 -0.0268
  199loPI   PO4 3172   0.527   5.238  10.085 -0.0456 -0.0472  0.1703
  199loPI   GL1 3173   0.585   5.389   9.714  0.0196 -0.0762  0.0550
  199loPI   GL2 3174   0.921   5.534   9.652  0.0592 -0.1045 -0.0064
  199loPI   C1A 3175   0.391   5.638   9.378 -0.2504  0.1123 -0.0775
  199loPI   C2A 3176   0.413   5.679   8.994 -0.1254 -0.1307  0.1890
  199loPI   C3A 3177   0.204   5.878   8.699  0.0175  0.0646  0.0526
  199loPI   C4A 3178   0.046   5.812   8.251  0.0152 -0.0687 -0.1106
  199loPI   C5A 3179   0.309   5.481   7.952  0.4323  0.0011  0.1784
  199loPI   C6A 3180   0.750   5.367   8.012  0.0144  0.0616  0.0596
  199loPI   C1B 3181   0.820   5.487   9.193 -0.3994 -0.0663  0.0495
  199loPI   C2B 3182   0.767   5.215   8.861 -0.1536 -0.2117 -0.1046
  199loPI   C3B 3183   0.610   4.937   8.498 -0.2035  0.2038 -0.2969
  199loPI   C4B 3184   0.341   4.993   8.207  0.2107 -0.1036  0.0201
  200loPI    C1 3185   3.896  12.938  10.626  0.0979  0.0977  0.1635
  200loPI    C2 3186   3.588  13.176  10.718 -0.0439 -0.0025 -0.0423
  200loPI    C3 3187   3.717  12.904  10.982  0.0618  0.2391  0.1592
  200loPI   PO4 3188   4.042  13.060  10.493 -0.0603 -0.3476  0.0925
  200loPI   GL1 3189   4.224  13.153  10.060  0.1887  0.1341  0.0272
  200loPI   GL2 3190   3.976  13.286   9.949  0.1482 -0.1100  0.0908
  200loPI   C1A 3191   4.307  13.029   9.679 -0.0065  0.2007  0.1034
  200loPI   C2A 3192   4.278  12.960   9.261  0.1818  0.1478 -0.2842
  200loPI   C3A 3193   4.371  13.015   8.873 -0.0182 -0.0961 -0.1229
  200loPI   C4A 3194   4.498  13.194   8.487  0.0013 -0.3349  0.3377
  200loPI   C5A 3195   4.526  13.507   8.260  0.0759  0.2178 -0.2110
  200loPI   C6A 3196   4.760  13.963   8.065  0.0791  0.0080  0.1505
  200loPI   C1B 3197   4.046  13.374   9.443 -0.2270 -0.1134  0.3418
  200loPI   C2B 3198   4.189  13.514   8.980  0.0137 -0.2349  0.1766
  200loPI   C3B 3199   4.066  13.523   8.536 -0.2186  0.0434  0.1981
  200loPI   C4B 3200   4.092  13.854   8.184  0.1021 -0.0920 -0.0423
  201loPI    C1 3201  11.779   3.149  10.306 -0.0706 -0.2976  0.0514
  201loPI    C2 3202  11.428   3.178  10.496 -0.0918  0.0642 -0.0366
  201loPI    C3 3203  11.734   2.989  10.670 -0.1729  0.2090  0.2695
  201loPI   PO4 3204  11.716   3.117  10.037  0.1739 -0.2457 -0.2569
  201loPI   GL1 3205  11.610   3.114   9.581  0.2174  0.0914 -0.0309
  201loPI   GL2 3206  11.655   3.487   9.677 -0.0980 -0.1815 -0.0687
  201loPI   C1A 3207  11.437   3.176   9.176  0.0229  0.0143 -0.0877
  201loPI   C2A 3208  11.413   3.053   8.762  0.2147  0.1343 -0.1715
  201loPI   C3A 3209  11.500   3.366   8.449  0.1322  0.0413  0.0955
  201loPI   C4A 3210  11.368   3.540   8.052 -0.0141  0.3617  0.0274
  201loPI   C5A 3211  11.456   3.948   8.052 -0.2124 -0.2663  0.1553
  201loPI   C6A 3212  11.504   4.295   7.716  0.1480  0.0383 -0.2257
  201loPI   C1B 3213  11.700   3.578   9.292  0.1692  0.3701 -0.0259
  201loPI   C2B 3214  11.726   3.393   8.846  0.1539  0.1964 -0.3205
  201loPI   C3B 3215  12.051   3.432   8.528  0.0156 -0.0541  0.1718
  201loPI   C4B 3216  11.850   3.643   8.130 -0.0657  0.1962  0.0741
  202loPI    C1 3217  18.020   3.586  10.346 -0.0902 -0.3285 -0.0391
  202loPI    C2 3218  17.874   3.748  10.682 -0.0183  0.0785 -0.1987
  202loPI    C3 3219  17.657   3.756  10.345  0.0897  0.0680 -0.2689
  202loPI   PO4 3220  18.204   3.665  10.201 -0.3608  0.1129 -0.0616
  202loPI   GL1 3221  18.203   3.667   9.818 -0.3563  0.1527 -0.0755
  202loPI   GL2 3222  17.837   3.644   9.830  0.0787  0.1836  0.2406
  202loPI   C1A 3223  18.193   3.570   9.424 -0.3062 -0.3019  0.2407
  202loPI   C2A 3224  18.495   3.751   9.136  0.1667  0.0131  0.4970
  202loPI   C3A 3225  18.538   3.832   8.658 -0.0573 -0.0731  0.2606
  202loPI   C4A 3226  18.232   4.052   8.340  0.2658 -0.3449 -0.0782
  202loPI   C5A 3227  18.211   4.452   8.327  0.0738  0.0892  0.0928
  202loPI   C6A 3228  17.976   4.818   8.036  0.1129  0.2154  0.3668
  202loPI   C1B 3229  17.724   3.438   9.425 -0.1568 -0.2553  0.0630
  202loPI   C2B 3230  17.686   3.369   9.043 -0.2342 -0.4572  0.1072
  202loPI   C3B 3231  17.642   3.368   8.630 -0.1466 -0.0124 -0.0299
  202loPI   C4B 3232  17.617   3.608   8.245  0.1443 -0.1832 -0.1000
  203loPI    C1 3233  14.111  11.930  10.931 -0.0534  0.0040 -0.0449
  203loPI    C2 3234  13.727  11.874  11.028 -0.0337 -0.0025  0.0297
  203loPI    C3 3235  14.015  11.682  11.229  0.0175  0.1261  0.0808
  203loPI   PO4 3236  14.055  11.855  10.643 -0.1254 -0.0934 -0.2973
  203loPI   GL1 3237  14.157  12.011  10.184 -0.0848 -0.0259  0.0386
  203loPI   GL2 3238  13.860  12.084  10.180  0.0665  0.1618 -0.1871
  203loPI   C1A 3239  14.135  11.820   9.846  0.1920  0.0071  0.0630
  203loPI   C2A 3240  14.063  11.715   9.365 -0.1871 -0.1363  0.2640
  203loPI   C3A 3241  14.015  11.795   8.962  0.1542  0.2937 -0.1400
  203loPI   C4A 3242  14.072  11.738   8.551  0.1718 -0.0734 -0.0457
  203loPI   C5A 3243  14.144  11.402   8.204 -0.1068 -0.1555 -0.0819
  203loPI   C6A 3244  14.071  11.553   7.760  0.4661  0.0584  0.1437
  203loPI   C1B 3245  13.666  11.915   9.806  0.2469  0.0132  0.0741
  203loPI   C2B 3246  13.557  11.882   9.449 -0.2736  0.1123 -0.1574
  203loPI   C3B 3247  13.548  11.925   8.970 -0.2127  0.0594  0.1614
  203loPI   C4B 3248  13.563  11.921   8.591  0.0352 -0.0451  0.1322
  204loPI    C1 3249   9.045   7.346  10.643 -0.0378  0.2841  0.0234
  204loPI    C2 3250   8.734   7.096  10.615  0.2212 -0.0476  0.0476
  204loPI    C3 3251   8.714   7.413  10.858  0.0352 -0.2680  0.3270
  204loPI   PO4 3252   9.195   7.362  10.526 -0.1479  0.0325  0.0133
  204loPI   GL1 3253   9.308   7.373  10.122  0.2283 -0.1730  0.1706
  204loPI   GL2 3254   9.411   7.416   9.855  0.0330 -0.0930 -0.0797
  204loPI   C1A 3255   9.029   7.090   9.671 -0.0578 -0.0967  0.2166
  204loPI   C2A 3256   8.966   7.051   9.228  0.2841 -0.2292  0.2757
  204loPI   C3A 3257   8.999   6.979   8.837 -0.0349 -0.2671 -0.0669
  204loPI   C4A 3258   9.045   6.907   8.348 -0.1853  0.1571  0.0893
  204loPI   C5A 3259   9.031   6.588   8.002  0.0674  0.2918  0.1861
  204loPI   C6A 3260   9.267   6.424   7.677 -0.0372  0.2101 -0.2298
  204loPI   C1B 3261   9.386   7.393   9.433  0.0669  0.0962 -0.0127
  204loPI   C2B 3262   9.439   7.361   8.972  0.0757  0.2900  0.2791
  204loPI   C3B 3263   9.400   7.316   8.479  0.1189 -0.1402  0.1342
  204loPI   C4B 3264   9.270   7.445   8.026 -0.1535 -0.2709 -0.1580
  205loPI    C1 3265  16.674  13.894  10.821 -0.0451 -0.0780  0.0429
  205loPI    C2 3266  16.737  13.657  11.136 -0.1003 -0.0834  0.0501
  205loPI    C3 3267  16.379  13.828  11.083 -0.1087 -0.1283 -0.0403
  205loPI   PO4 3268  16.871  13.763  10.668  0.1923 -0.1040 -0.1220
  205loPI   GL1 3269  17.096  13.926  10.458  0.0445 -0.1657 -0.1457
  205loPI   GL2 3270  17.192  14.234  10.308  0.1511  0.0479  0.0531
  205loPI   C1A 3271  17.173  13.790  10.029  0.1874 -0.1640  0.1189
  205loPI   C2A 3272  17.155  13.798   9.592  0.2517  0.0531  0.2481
  205loPI   C3A 3273  17.142  13.795   9.212 -0.1494 -0.1046  0.2224
  205loPI   C4A 3274  17.100  13.609   8.759  0.2147  0.0170 -0.1825
  205loPI   C5A 3275  17.102  13.334   8.425  0.0073  0.0635  0.0133
  205loPI   C6A 3276  17.353  13.101   8.141  0.1327 -0.0953  0.0597
  205loPI   C1B 3277  17.177  14.262   9.849 -0.0528  0.0470  0.1593
  205loPI   C2B 3278  17.166  14.348   9.427 -0.1802  0.0250 -0.2889
  205loPI   C3B 3279  17.198  14.260   8.912 -0.0135 -0.1768 -0.1269
  205loPI   C4B 3280  17.291  14.404   8.511  0.0338 -0.1784 -0.3880
  206loPI    C1 3281   4.024   2.978  10.768  0.0532 -0.1689  0.1581
  206loPI    C2 3282   3.952   3.189  11.100  0.3834  0.2305 -0.0148
  206loPI    C3 3283   4.204   2.879  11.111  0.0859 -0.0095  0.1879
  206loPI   PO4 3284   4.061   3.259  10.608 -0.0483  0.2464  0.1395
  206loPI   GL1 3285   4.191   3.327  10.187  0.0876  0.2115 -0.1243
  206loPI   GL2 3286   3.822   3.209  10.132 -0.2363 -0.0092 -0.2976
  206loPI   C1A 3287   4.101   3.304   9.675 -0.1004  0.2141 -0.0897
  206loPI   C2A 3288   4.107   3.277   9.239 -0.1903 -0.2216  0.1723
  206loPI   C3A 3289   4.135   3.329   8.797 -0.0394 -0.1396 -0.0124
  206loPI   C4A 3290   4.168   3.494   8.452  0.0510 -0.1167 -0.0932
  206loPI   C5A 3291   4.087   3.831   8.225  0.2344 -0.2469 -0.0499
  206loPI   C6A 3292   4.061   4.240   8.021  0.0961 -0.2005 -0.0208
  206loPI   C1B 3293   3.560   3.115   9.756  0.1163 -0.1183  0.0874
  206loPI   C2B 3294   3.705   3.124   9.408  0.3630 -0.1810  0.2359
  206loPI   C3B 3295   3.587   3.057   9.012 -0.1067  0.0569  0.0890
  206loPI   C4B 3296   3.744   3.092   8.495  0.1285 -0.1419  0.0895
  207loPI    C1 3297   5.633   5.942  10.832 -0.2025  0.0972 -0.0295
  207loPI    C2 3298   5.929   5.799  10.604 -0.2744  0.0245 -0.0778
  207loPI    C3 3299   5.995   5.881  10.990 -0.1839  0.0356 -0.0955
  207loPI   PO4 3300   5.577   6.133  10.697  0.4861 -0.2191  0.0073
  207loPI   GL1 3301   5.509   6.004  10.324  0.0515 -0.0022  0.0142
  207loPI   GL2 3302   5.172   6.148  10.333  0.0876  0.3927 -0.0380
  207loPI   C1A 3303   5.538   5.945   9.886  0.0228  0.1131  0.3933
  207loPI   C2A 3304   5.482   5.909   9.494 -0.3796 -0.1784  0.0128
  207loPI   C3A 3305   5.621   5.891   9.030  0.0042  0.0824 -0.1411
  207loPI   C4A 3306   5.539   5.905   8.613 -0.0477  0.0390  0.0628
  207loPI   C5A 3307   5.785   6.037   8.252 -0.1358  0.0584 -0.1881
  207loPI   C6A 3308   5.803   6.407   8.034  0.5769  0.0242 -0.1928
  207loPI   C1B 3309   5.017   6.138   9.883  0.1619  0.1147  0.0223
  207loPI   C2B 3310   5.019   6.073   9.479  0.2439 -0.0384  0.0043
  207loPI   C3B 3311   5.102   6.018   9.023 -0.0361 -0.1399  0.0484
  207loPI   C4B 3312   5.050   6.088   8.529  0.1351 -0.0165  0.0970
  208loPI    C1 3313  17.118   1.231  10.868 -0.0207  0.0385  0.0344
  208loPI    C2 3314  17.419   1.238  11.131 -0.1900 -0.0940  0.2352
  208loPI    C3 3315  17.058   1.374  11.237 -0.2132  0.0250  0.0093
  208loPI   PO4 3316  17.221   1.368  10.646 -0.1360 -0.1920  0.1629
  208loPI   GL1 3317  17.388   1.354  10.292 -0.0081  0.1394 -0.1160
  208loPI   GL2 3318  17.465   1.138  10.178 -0.0616 -0.0757  0.0565
  208loPI   C1A 3319  17.337   1.457   9.865 -0.0813 -0.2600  0.0548
  208loPI   C2A 3320  17.316   1.452   9.485 -0.1650 -0.1693  0.4607
  208loPI   C3A 3321  17.210   1.417   9.064 -0.3438  0.0074  0.2406
  208loPI   C4A 3322  17.257   1.361   8.622 -0.1988 -0.0062  0.0478
  208loPI   C5A 3323  16.889   1.229   8.303  0.1978 -0.2249 -0.0522
  208loPI   C6A 3324  16.656   0.962   8.101  0.4012 -0.2134  0.2369
  208loPI   C1B 3325  17.715   1.160   9.816 -0.2334 -0.2425  0.1111
  208loPI   C2B 3326  17.700   1.144   9.380  0.2989 -0.2371  0.1576
  208loPI   C3B 3327  17.623   1.120   8.970 -0.1072 -0.0077  0.1587
  208loPI   C4B 3328  17.663   0.994   8.508 -0.0960  0.0093 -0.0084
  209loPI    C1 3329   0.806   4.270  10.761 -0.2228 -0.1312  0.0946
  209loPI    C2 3330   0.494   4.490  10.641 -0.0423  0.1668  0.1607
  209loPI    C3 3331   0.582   4.462  11.031 -0.0781 -0.0444  0.1547
  209loPI   PO4 3332   0.792   4.088  10.638 -0.1311  0.1214  0.0388
  209loPI   GL1 3333   0.865   3.854  10.217 -0.1354  0.1671 -0.0817
  209loPI   GL2 3334   0.994   3.521  10.236 -0.1961  0.1234 -0.0005
  209loPI   C1A 3335   0.591   3.904   9.846 -0.0001 -0.0236 -0.3453
  209loPI   C2A 3336   0.551   4.065   9.450 -0.0333 -0.0742  0.0132
  209loPI   C3A 3337   0.524   4.216   9.076  0.0968  0.2530  0.3020
  209loPI   C4A 3338   0.496   4.364   8.602 -0.1736 -0.1339  0.0419
  209loPI   C5A 3339   0.624   4.595   8.162  0.0549  0.3009 -0.1325
  209loPI   C6A 3340   0.942   4.847   8.006 -0.0551 -0.1213  0.1750
  209loPI   C1B 3341   0.872   3.488   9.806 -0.0322  0.1147  0.2598
  209loPI   C2B 3342   0.778   3.563   9.421 -0.0216  0.1728 -0.4505
  209loPI   C3B 3343   0.850   3.753   8.989  0.0613 -0.2521  0.2726
  209loPI   C4B 3344   0.890   4.071   8.612  0.1301 -0.0279  0.2367
  210loPI    C1 3345  13.446  10.523  11.095  0.0892  0.0540  0.0326
  210loPI    C2 3346  13.402  10.213  11.344  0.0336  0.1045  0.0862
  210loPI    C3 3347  13.738  10.430  11.352  0.1575 -0.0771 -0.0911
  210loPI   PO4 3348  13.385  10.445  10.773  0.5687  0.0718  0.0674
  210loPI   GL1 3349  13.306  10.365  10.359 -0.1122  0.2913  0.0144
  210loPI   GL2 3350  13.080  10.097  10.204 -0.4461 -0.1335  0.0191
  210loPI   C1A 3351  13.430  10.456   9.995 -0.1963  0.1760  0.1172
  210loPI   C2A 3352  13.401  10.493   9.512  0.4790  0.2304 -0.0234
  210loPI   C3A 3353  13.405  10.660   9.107 -0.0032  0.2452 -0.1113
  210loPI   C4A 3354  13.390  10.608   8.631 -0.1584  0.0099 -0.1309
  210loPI   C5A 3355  13.423  10.865   8.284 -0.0803  0.1644 -0.2160
  210loPI   C6A 3356  13.202  10.534   8.020 -0.2926 -0.3950 -0.1951
  210loPI   C1B 3357  13.021  10.140   9.858  0.1195 -0.2076 -0.0559
  210loPI   C2B 3358  12.987  10.142   9.355 -0.1825  0.2105 -0.1308
  210loPI   C3B 3359  13.009  10.217   8.877 -0.1042  0.0731  0.2523
  210loPI   C4B 3360  12.974  10.335   8.427 -0.1436  0.0612  0.0661
  211loPI    C1 3361   6.878   5.615  10.618  0.0714  0.2149  0.1506
  211loPI    C2 3362   7.056   5.263  10.552 -0.0600  0.2245 -0.2886
  211loPI    C3 3363   6.805   5.305  10.860  0.3409  0.0838  0.0680
  211loPI   PO4 3364   6.847   5.674  10.364 -0.0024 -0.0344  0.0658
  211loPI   GL1 3365   6.948   5.986  10.231  0.1115 -0.0466  0.1994
  211loPI   GL2 3366   7.242   6.152  10.190 -0.2201  0.1070 -0.2624
  211loPI   C1A 3367   6.907   5.847   9.805  0.0678 -0.1486 -0.2835
  211loPI   C2A 3368   6.888   5.848   9.446  0.1685  0.0686  0.0161
  211loPI   C3A 3369   6.865   5.853   9.035 -0.0152 -0.0306 -0.0418
  211loPI   C4A 3370   6.983   5.817   8.574  0.1265  0.0202  0.3133
  211loPI   C5A 3371   7.028   5.837   8.207 -0.0530  0.1282  0.0362
  211loPI   C6A 3372   6.884   6.174   7.812 -0.1003  0.0092  0.0752
  211loPI   C1B 3373   7.588   6.035  10.249  0.0656 -0.0285  0.1755
  211loPI   C2B 3374   7.856   5.712  10.102 -0.1585 -0.0219 -0.3027
  211loPI   C3B 3375   7.887   5.620   9.638  0.1590  0.1861 -0.1146
  211loPI   C4B 3376   7.847   5.588   9.204 -0.2116 -0.2175 -0.2635
  212loPI    C1 3377   3.437   6.044  10.884  0.0293  0.1478  0.1595
  212loPI    C2 3378   3.458   6.240  11.232 -0.0451 -0.0202  0.2601
  212loPI    C3 3379   3.634   5.883  11.192  0.0428  0.0403  0.0956
  212loPI   PO4 3380   3.502   6.310  10.681 -0.4178  0.1723 -0.0637
  212loPI   GL1 3381   3.464   6.431  10.280 -0.0188 -0.1791 -0.0959
  212loPI   GL2 3382   3.837   6.412  10.361  0.1924 -0.3822  0.4818
  212loPI   C1A 3383   3.360   6.390   9.904  0.0691  0.1441 -0.0491
  212loPI   C2A 3384   3.372   6.402   9.419 -0.2410 -0.0432  0.0899
  212loPI   C3A 3385   3.445   6.411   9.061  0.1756  0.3361  0.2047
  212loPI   C4A 3386   3.474   6.459   8.611  0.1112 -0.3936  0.0742
  212loPI   C5A 3387   3.220   6.520   8.151 -0.1103  0.2095 -0.1808
  212loPI   C6A 3388   2.854   6.312   8.067 -0.2045  0.2002 -0.0722
  212loPI   C1B 3389   3.867   6.276   9.827 -0.2208 -0.2013 -0.1477
  212loPI   C2B 3390   3.959   6.329   9.388 -0.1957  0.3669  0.1748
  212loPI   C3B 3391   4.024   6.296   8.889 -0.0970 -0.2941  0.0367
  212loPI   C4B 3392   4.055   6.428   8.488  0.1876  0.2810 -0.0798
  213loPI    C1 3393   4.635  17.081  10.591  0.1249 -0.1284  0.1142
  213loPI    C2 3394   4.367  17.371  10.528  0.1876 -0.0709  0.1120
  213loPI    C3 3395   4.535  17.328  10.888  0.0708 -0.1955  0.1522
  213loPI   PO4 3396   4.681  16.995  10.341  0.1447  0.0384  0.2701
  213loPI   GL1 3397   4.679  17.140   9.931 -0.1345  0.0737 -0.0286
  213loPI   GL2 3398   4.955  16.977   9.901 -0.1770  0.0478  0.3355
  213loPI   C1A 3399   4.708  17.297   9.551 -0.2736 -0.1862 -0.0066
  213loPI   C2A 3400   4.747  17.300   9.051 -0.1059  0.1568  0.0309
  213loPI   C3A 3401   4.721  17.304   8.592  0.2545  0.1541 -0.0467
  213loPI   C4A 3402   4.705  17.285   8.143 -0.1150  0.1363  0.0784
  213loPI   C5A 3403   5.027  17.467   7.867 -0.0632 -0.2442 -0.2473
  213loPI   C6A 3404   5.501  17.377   7.985 -0.0679  0.1157  0.0519
  213loPI   C1B 3405   5.244  16.857   9.569 -0.3738  0.0303 -0.0752
  213loPI   C2B 3406   5.218  16.944   9.173 -0.0086  0.0692  0.1686
  213loPI   C3B 3407   5.412  17.013   8.712 -0.0447  0.0577  0.1229
  213loPI   C4B 3408   5.212  17.177   8.384 -0.3644  0.3060  0.1331
  214loPI    C1 3409  10.511  16.926  10.459 -0.0633 -0.0444 -0.1753
  214loPI    C2 3410  10.588  16.921  10.851  0.1103 -0.2263 -0.2098
  214loPI    C3 3411  10.685  17.242  10.632 -0.3741  0.0521 -0.0324
  214loPI   PO4 3412  10.150  16.861  10.372  0.3241 -0.0947  0.4382
  214loPI   GL1 3413   9.904  16.969  10.071 -0.1384 -0.0313 -0.1157
  214loPI   GL2 3414   9.690  16.734   9.949  0.0452 -0.0900 -0.3034
  214loPI   C1A 3415  10.117  17.028   9.670  0.1547 -0.0336 -0.1475
  214loPI   C2A 3416  10.185  16.967   9.269 -0.0668  0.3063  0.2123
  214loPI   C3A 3417  10.281  16.892   8.874  0.1516 -0.0732 -0.1651
  214loPI   C4A 3418  10.241  16.934   8.447  0.0097  0.0166  0.0076
  214loPI   C5A 3419  10.041  17.033   8.033 -0.0197  0.2429  0.1634
  214loPI   C6A 3420  10.164  17.451   7.722  0.2497  0.1176 -0.2077
  214loPI   C1B 3421   9.821  16.674   9.539 -0.1078  0.1664 -0.1662
  214loPI   C2B 3422   9.857  16.582   9.067  0.2150 -0.0612  0.1151
  214loPI   C3B 3423   9.877  16.717   8.701  0.3423 -0.0621  0.0763
  214loPI   C4B 3424   9.791  16.636   8.226  0.0726  0.2677  0.0735
  215loPI    C1 3425  17.974  15.307  11.450 -0.2087  0.0586  0.1726
  215loPI    C2 3426  18.042  14.919  11.522 -0.2447  0.0666  0.2515
  215loPI    C3 3427  18.149  15.194  11.792  0.0735  0.1381  0.0573
  215loPI   PO4 3428  17.986  15.276  11.164  0.0848 -0.1370 -0.0557
  215loPI   GL1 3429  17.830  15.298  10.777  0.0864 -0.0729  0.1472
  215loPI   GL2 3430  17.761  14.978  10.658 -0.3293  0.1539 -0.0684
  215loPI   C1A 3431  17.879  15.553  10.436 -0.2146  0.0822  0.0401
  215loPI   C2A 3432  17.980  15.410   9.958  0.2086 -0.0424 -0.1123
  215loPI   C3A 3433  17.890  15.446   9.591  0.0745 -0.1293 -0.1853
  215loPI   C4A 3434  17.908  15.479   9.151  0.2355 -0.0522 -0.2045
  215loPI   C5A 3435  17.967  15.559   8.706 -0.1625 -0.0778  0.1353
  215loPI   C6A 3436  18.018  15.503   8.209 -0.0804  0.2026  0.0086
  215loPI   C1B 3437  17.763  15.055  10.258 -0.0431  0.0115  0.0325
  215loPI   C2B 3438  17.797  14.935   9.783  0.1368  0.0359  0.0624
  215loPI   C3B 3439  17.748  14.923   9.329  0.1424  0.1598  0.1379
  215loPI   C4B 3440  17.888  15.041   8.904  0.0096  0.0219 -0.2941
  216loPI    C1 3441  11.897   3.823  10.596  0.0088 -0.1196 -0.2651
  216loPI    C2 3442  12.048   3.703  10.947  0.2836 -0.1081 -0.3772
  216loPI    C3 3443  11.908   4.076  10.906  0.0240 -0.1849 -0.2121
  216loPI   PO4 3444  11.721   3.664  10.495 -0.1450  0.1012 -0.0475
  216loPI   GL1 3445  11.543   3.555  10.154  0.1608 -0.0722 -0.2817
  216loPI   GL2 3446  11.291   3.349  10.039  0.0343 -0.0258 -0.0361
  216loPI   C1A 3447  11.337   3.810   9.914  0.1769  0.2649 -0.0929
  216loPI   C2A 3448  11.153   4.135   9.638  0.3847  0.4513  0.1301
  216loPI   C3A 3449  11.197   4.294   9.215  0.1822 -0.0187  0.0524
  216loPI   C4A 3450  11.222   4.190   8.752 -0.1432  0.1030  0.0087
  216loPI   C5A 3451  11.186   4.214   8.392  0.0392  0.0557  0.0026
  216loPI   C6A 3452  11.064   4.326   8.035 -0.1143 -0.0097  0.0325
  216loPI   C1B 3453  11.181   3.366   9.625  0.0083  0.2737 -0.0944
  216loPI   C2B 3454  11.095   3.660   9.343 -0.1808  0.1507  0.2277
  216loPI   C3B 3455  11.231   3.733   8.977  0.1643 -0.0118  0.3046
  216loPI   C4B 3456  11.156   3.717   8.519  0.1608 -0.1995 -0.1157
  217loPI    C1 3457  16.343   7.712  10.446 -0.0627  0.1426  0.3003
  217loPI    C2 3458  16.388   7.590  10.824 -0.1643 -0.1599  0.2175
  217loPI    C3 3459  16.022   7.666  10.681 -0.1237 -0.0175  0.1877
  217loPI   PO4 3460  16.530   7.927  10.413 -0.0289  0.2334  0.3140
  217loPI   GL1 3461  16.658   8.068  10.051 -0.0496 -0.1542  0.2000
  217loPI   GL2 3462  16.759   7.881   9.898  0.0897 -0.2278 -0.0430
  217loPI   C1A 3463  16.269   8.171   9.752  0.2063  0.2814  0.1131
  217loPI   C2A 3464  16.102   8.071   9.290  0.0901  0.1480  0.0763
  217loPI   C3A 3465  16.110   8.174   8.966  0.0294 -0.0750 -0.0485
  217loPI   C4A 3466  16.194   8.236   8.590 -0.0087 -0.1068  0.1984
  217loPI   C5A 3467  16.229   8.313   8.181 -0.1367 -0.1946  0.1331
  217loPI   C6A 3468  16.123   8.412   7.831 -0.0399  0.0591  0.1440
  217loPI   C1B 3469  16.671   7.899   9.445  0.1220  0.1619 -0.3977
  217loPI   C2B 3470  16.649   8.080   9.103  0.2863  0.0354 -0.0984
  217loPI   C3B 3471  16.552   8.009   8.709 -0.2900  0.0908 -0.1747
  217loPI   C4B 3472  16.802   7.949   8.351  0.0221 -0.0023  0.1925
  218loPI    C1 3473  12.060   0.899  10.869  0.1108  0.0991  0.0785
  218loPI    C2 3474  11.735   0.910  11.101  0.1133  0.0259  0.0857
  218loPI    C3 3475  12.074   0.751  11.240  0.0796 -0.1333 -0.0111
  218loPI   PO4 3476  11.935   0.824  10.585 -0.0895 -0.0644  0.0969
  218loPI   GL1 3477  11.883   0.850  10.188  0.0256 -0.0282 -0.0593
  218loPI   GL2 3478  11.783   0.643   9.926  0.1912 -0.1157  0.0096
  218loPI   C1A 3479  11.797   1.099   9.739 -0.2920  0.0132  0.0250
  218loPI   C2A 3480  11.952   1.204   9.356 -0.2763 -0.0590  0.2810
  218loPI   C3A 3481  12.045   1.252   8.902  0.1321 -0.1737 -0.1730
  218loPI   C4A 3482  12.113   1.199   8.465 -0.1293 -0.2553 -0.0097
  218loPI   C5A 3483  11.731   1.170   8.181  0.3748  0.2840  0.0864
  218loPI   C6A 3484  11.393   1.427   7.937  0.2225 -0.0639  0.0200
  218loPI   C1B 3485  11.547   0.607   9.570 -0.2919 -0.0623 -0.3299
  218loPI   C2B 3486  11.479   0.451   9.172  0.2147  0.0850 -0.1005
  218loPI   C3B 3487  11.521   0.112   8.931 -0.0901  0.2982 -0.2544
  218loPI   C4B 3488  11.515  -0.163   8.749  0.1339  0.1469  0.1152
  219loPI    C1 3489  11.979  14.256  10.605  0.3294  0.2828  0.3122
  219loPI    C2 3490  11.688  14.139  10.853 -0.0545  0.1707 -0.1758
  219loPI    C3 3491  12.004  13.903  10.791 -0.1141  0.0546 -0.0435
  219loPI   PO4 3492  11.827  14.241  10.357 -0.2751  0.2272 -0.0413
  219loPI   GL1 3493  12.066  14.168  10.015 -0.0204 -0.5398  0.2511
  219loPI   GL2 3494  11.819  14.481   9.926 -0.2595 -0.1050  0.2120
  219loPI   C1A 3495  12.202  14.324   9.681  0.1143  0.1958  0.2064
  219loPI   C2A 3496  12.183  14.418   9.199 -0.0604  0.0784 -0.2099
  219loPI   C3A 3497  12.232  14.374   8.856 -0.0080  0.1297 -0.2723
  219loPI   C4A 3498  12.504  14.417   8.491 -0.2974  0.0198 -0.2436
  219loPI   C5A 3499  12.873  14.295   8.288  0.0527  0.1825  0.2186
  219loPI   C6A 3500  13.130  14.155   7.900  0.2422  0.0304 -0.1698
  219loPI   C1B 3501  11.749  14.563   9.501 -0.3989  0.0002  0.1775
  219loPI   C2B 3502  11.727  14.668   9.079 -0.1238 -0.0525 -0.0412
  219loPI   C3B 3503  11.799  14.635   8.715  0.1083  0.0255  0.0747
  219loPI   C4B 3504  11.776  14.761   8.367 -0.0868  0.0568 -0.2233
  220loPI    C1 3505   4.113  12.603  10.901 -0.1405  0.1049 -0.3346
  220loPI    C2 3506   3.767  12.482  10.741 -0.3155  0.1735 -0.0172
  220loPI    C3 3507   3.816  12.479  11.138  0.1194 -0.0182 -0.0658
  220loPI   PO4 3508   4.279  12.604  10.759 -0.1614 -0.1411 -0.2148
  220loPI   GL1 3509   4.154  12.604  10.326 -0.2414 -0.1692 -0.5286
  220loPI   GL2 3510   4.435  12.707  10.229  0.0966  0.1663 -0.3851
  220loPI   C1A 3511   3.970  12.722   9.929  0.0471  0.1364  0.1255
  220loPI   C2A 3512   3.907  12.752   9.459 -0.0288  0.2516 -0.1146
  220loPI   C3A 3513   3.965  12.708   8.955  0.1217  0.1024  0.0621
  220loPI   C4A 3514   3.799  12.608   8.541 -0.0371  0.1364 -0.0488
  220loPI   C5A 3515   3.507  12.850   8.298  0.1515  0.2442  0.0176
  220loPI   C6A 3516   3.108  13.109   8.206  0.3472  0.0444  0.2094
  220loPI   C1B 3517   4.569  12.644   9.860  0.2186 -0.1074 -0.0094
  220loPI   C2B 3518   4.361  12.542   9.529  0.0930 -0.0382  0.0076
  220loPI   C3B 3519   4.438  12.517   9.071  0.0471 -0.0370 -0.0346
  220loPI   C4B 3520   4.330  12.506   8.681  0.3716  0.1806  0.1207
  221loPI    C1 3521  17.240  16.810  10.922 -0.1594 -0.3089 -0.1467
  221loPI    C2 3522  17.558  16.773  10.681 -0.1700 -0.2152 -0.1758
  221loPI    C3 3523  17.562  16.607  11.046  0.0155  0.0052 -0.0755
  221loPI   PO4 3524  16.979  16.817  10.722  0.0026 -0.1390 -0.0016
  221loPI   GL1 3525  16.802  16.682  10.351 -0.3186 -0.0450  0.3044
  221loPI   GL2 3526  16.866  16.284  10.296 -0.2834  0.2285  0.2121
  221loPI   C1A 3527  16.713  16.923   9.900  0.1888  0.0081 -0.1071
  221loPI   C2A 3528  16.844  16.969   9.523 -0.0970 -0.1240 -0.0645
  221loPI   C3A 3529  16.815  16.907   9.074  0.1169  0.0387  0.0823
  221loPI   C4A 3530  16.768  16.923   8.659  0.2459  0.0759  0.1253
  221loPI   C5A 3531  16.620  16.965   8.220 -0.0712  0.0628  0.0616
  221loPI   C6A 3532  16.491  16.611   7.903 -0.0548  0.2847 -0.1805
  221loPI   C1B 3533  17.052  16.100   9.902  0.1306  0.0610  0.0480
  221loPI   C2B 3534  17.156  16.139   9.534  0.3427 -0.0291 -0.0448
  221loPI   C3B 3535  17.098  16.104   9.188  0.0046 -0.3032 -0.0720
  221loPI   C4B 3536  17.143  16.097   8.705  0.2852  0.1454  0.0050
  222loPI    C1 3537  17.285   0.296  10.483 -0.0424 -0.0308  0.2265
  222loPI    C2 3538  17.471   0.451  10.802  0.1228 -0.2743  0.2509
  222loPI    C3 3539  17.074   0.403  10.806  0.0983 -0.0763  0.3348
  222loPI   PO4 3540  17.482   0.080  10.395  0.0566  0.2411  0.1882
  222loPI   GL1 3541  17.495  -0.204  10.106  0.2667  0.0889  0.1415
  222loPI   GL2 3542  17.244  -0.545  10.038  0.1762 -0.0591  0.1533
  222loPI   C1A 3543  17.731  -0.640   9.962  0.1017 -0.0865  0.1788
  222loPI   C2A 3544  17.856  -0.754   9.468 -0.0118  0.2100 -0.1037
  222loPI   C3A 3545  17.878  -0.730   9.024  0.2661  0.0608 -0.1549
  222loPI   C4A 3546  17.876  -0.780   8.510  0.0385  0.1573 -0.1506
  222loPI   C5A 3547  17.572  -0.996   8.272 -0.4725  0.3506 -0.0503
  222loPI   C6A 3548  17.429  -0.888   7.808 -0.0911 -0.2602 -0.1952
  222loPI   C1B 3549  17.462  -0.468   9.542 -0.2614  0.1149 -0.3362
  222loPI   C2B 3550  17.508  -0.459   9.064  0.3277 -0.1291  0.4363
  222loPI   C3B 3551  17.347  -0.464   8.574  0.3899 -0.0061 -0.2194
  222loPI   C4B 3552  17.354  -0.597   8.169  0.2492  0.0159  0.2567
  223loPI    C1 3553   9.363  11.178  10.892 -0.0356 -0.2543 -0.1624
  223loPI    C2 3554   9.073  10.959  11.061 -0.0552 -0.2202 -0.1515
  223loPI    C3 3555   9.457  10.869  11.128 -0.0599 -0.0422  0.1298
  223loPI   PO4 3556   9.182  11.436  10.725  0.1510  0.1980  0.2857
  223loPI   GL1 3557   9.208  11.635  10.361  0.3527 -0.1926  0.0320
  223loPI   GL2 3558   9.433  11.390  10.256 -0.2260  0.2078 -0.0749
  223loPI   C1A 3559   8.946  11.413  10.001 -0.1356  0.0213  0.0694
  223loPI   C2A 3560   8.773  11.539   9.636 -0.0253 -0.4111  0.3452
  223loPI   C3A 3561   8.679  11.531   9.265  0.1345  0.2596 -0.1044
  223loPI   C4A 3562   8.572  11.494   8.828 -0.1493  0.1100  0.2969
  223loPI   C5A 3563   8.471  11.680   8.425 -0.1306 -0.0542  0.0633
  223loPI   C6A 3564   8.667  11.511   8.054  0.1601 -0.0862  0.1354
  223loPI   C1B 3565   9.767  11.370   9.923  0.4108 -0.0930  0.0257
  223loPI   C2B 3566  10.035  11.413   9.631  0.2871  0.4408 -0.0334
  223loPI   C3B 3567  10.103  11.444   9.229 -0.1857 -0.0267 -0.4302
  223loPI   C4B 3568  10.000  11.493   8.799  0.0450  0.1202  0.0434
  224loPI    C1 3569   2.868   8.663  10.723 -0.0332  0.0539 -0.0209
  224loPI    C2 3570   3.175   8.684  10.979 -0.1540  0.3213  0.1059
  224loPI    C3 3571   2.811   8.585  11.111 -0.1666  0.2141 -0.0071
  224loPI   PO4 3572   2.832   8.906  10.617  0.0057  0.1065 -0.0301
  224loPI   GL1 3573   2.835   9.021  10.220 -0.2210 -0.0512  0.2514
  224loPI   GL2 3574   2.914   8.761  10.148  0.0301  0.1564 -0.0432
  224loPI   C1A 3575   2.589   8.837   9.813  0.2307 -0.3007 -0.3190
  224loPI   C2A 3576   2.500   8.618   9.386 -0.1341 -0.2605 -0.0857
  224loPI   C3A 3577   2.303   8.747   8.961  0.2361  0.0062 -0.1856
  224loPI   C4A 3578   2.322   8.885   8.575  0.2433  0.1022  0.2612
  224loPI   C5A 3579   1.986   8.998   8.272 -0.2283  0.3518 -0.1705
  224loPI   C6A 3580   1.709   8.898   7.830  0.2703  0.0864 -0.1290
  224loPI   C1B 3581   3.016   8.494   9.915  0.0253 -0.2244  0.1826
  224loPI   C2B 3582   2.985   8.506   9.346 -0.0988  0.0261  0.0495
  224loPI   C3B 3583   2.773   8.517   8.910 -0.3000 -0.4015  0.1880
  224loPI   C4B 3584   2.832   8.722   8.527 -0.2739 -0.0078  0.0301
  225loPI    C1 3585   2.654   0.201  10.853 -0.2034 -0.2913  0.0971
  225loPI    C2 3586   2.657   0.243  11.251 -0.2773 -0.0043  0.0692
  225loPI    C3 3587   2.460   0.506  11.023 -0.2604 -0.1838 -0.1566
  225loPI   PO4 3588   2.656  -0.011  10.742  0.0887  0.2509  0.1480
  225loPI   GL1 3589   2.752  -0.272  10.384 -0.0208 -0.0854 -0.2333
  225loPI   GL2 3590   3.031  -0.144  10.358 -0.3441  0.0370 -0.2455
  225loPI   C1A 3591   2.671  -0.323   9.932  0.0548  0.1631  0.0836
  225loPI   C2A 3592   2.573  -0.295   9.479  0.2693  0.0634 -0.1181
  225loPI   C3A 3593   2.559  -0.255   9.062 -0.1991  0.2953 -0.2703
  225loPI   C4A 3594   2.617  -0.249   8.620  0.0762  0.2443 -0.1118
  225loPI   C5A 3595   2.778  -0.019   8.247  0.1964 -0.2914 -0.3477
  225loPI   C6A 3596   3.106   0.257   8.339 -0.1323  0.2001  0.0207
  225loPI   C1B 3597   3.074  -0.066   9.947 -0.2228  0.0286  0.1734
  225loPI   C2B 3598   3.043  -0.054   9.535 -0.3059  0.0733  0.0462
  225loPI   C3B 3599   3.025  -0.038   9.080 -0.0546  0.2880  0.2588
  225loPI   C4B 3600   3.114  -0.082   8.673 -0.0447  0.0472 -0.1214
  226loPI    C1 3601  17.479  11.632  10.529  0.1663  0.0671 -0.0047
  226loPI    C2 3602  17.749  11.682  10.820 -0.0045 -0.1570  0.1963
  226loPI    C3 3603  17.368  11.606  10.912 -0.0747 -0.1627 -0.0877
  226loPI   PO4 3604  17.486  11.753  10.368 -0.0524  0.1049  0.0525
  226loPI   GL1 3605  17.585  11.605  10.021  0.0473 -0.0100 -0.0048
  226loPI   GL2 3606  17.439  11.273  10.128  0.0449 -0.0399  0.0061
  226loPI   C1A 3607  17.757  11.480   9.615 -0.1366  0.0210  0.0453
  226loPI   C2A 3608  18.015  11.595   9.278  0.2660 -0.1074 -0.1578
  226loPI   C3A 3609  18.037  11.781   8.934  0.1111  0.2418 -0.0744
  226loPI   C4A 3610  17.986  11.770   8.477  0.0787 -0.0982  0.0008
  226loPI   C5A 3611  17.845  12.084   8.205 -0.1091 -0.0839 -0.0872
  226loPI   C6A 3612  17.817  12.409   7.974  0.0745  0.0913 -0.0358
  226loPI   C1B 3613  17.411  11.135   9.721 -0.1337  0.4329 -0.1033
  226loPI   C2B 3614  17.251  11.148   9.224  0.3393 -0.1952 -0.0463
  226loPI   C3B 3615  17.383  11.100   8.809  0.0883 -0.2021  0.0201
  226loPI   C4B 3616  17.270  11.153   8.416 -0.0719 -0.2676 -0.0781
  227loPI    C1 3617  12.523   1.294  10.884  0.0026 -0.1085  0.0034
  227loPI    C2 3618  12.348   1.158  11.216 -0.2803 -0.1302 -0.1510
  227loPI    C3 3619  12.156   1.420  10.983  0.0404  0.1202 -0.1397
  227loPI   PO4 3620  12.571   1.069  10.762  0.0926  0.2083  0.3791
  227loPI   GL1 3621  12.478   0.952  10.361 -0.1852  0.2948  0.0864
  227loPI   GL2 3622  12.721   0.881  10.222  0.2127 -0.1655  0.1399
  227loPI   C1A 3623  12.309   0.886   9.956  0.2104 -0.2984 -0.1276
  227loPI   C2A 3624  12.244   0.841   9.570  0.1881 -0.1030 -0.1356
  227loPI   C3A 3625  12.405   0.659   9.204  0.2005  0.2060 -0.0465
  227loPI   C4A 3626  12.558   0.582   8.774  0.0028 -0.1103 -0.1132
  227loPI   C5A 3627  12.651   0.441   8.273 -0.0700  0.2535 -0.0279
  227loPI   C6A 3628  12.648   0.067   7.989  0.2632  0.2805 -0.3318
  227loPI   C1B 3629  12.836   0.739   9.773  0.1099  0.1848 -0.2399
  227loPI   C2B 3630  12.926   0.480   9.406  0.1075  0.0008 -0.0157
  227loPI   C3B 3631  12.955   0.399   9.040 -0.0363  0.1944  0.1420
  227loPI   C4B 3632  13.073   0.480   8.673  0.1456 -0.0743 -0.1194
  228loPI    C1 3633   8.327  15.895  10.530  0.1380  0.1681 -0.1069
  228loPI    C2 3634   8.680  15.741  10.420  0.1453  0.0131  0.1277
  228loPI    C3 3635   8.503  15.617  10.757 -0.0836  0.1666  0.0664
  228loPI   PO4 3636   8.146  15.831  10.319 -0.3256 -0.0318  0.2327
  228loPI   GL1 3637   8.307  15.839   9.896 -0.0154 -0.1327  0.3631
  228loPI   GL2 3638   8.488  16.143  10.011  0.3800  0.0750 -0.1347
  228loPI   C1A 3639   8.291  15.887   9.393  0.1486 -0.1002  0.0849
  228loPI   C2A 3640   8.135  15.921   8.936  0.0541 -0.0222  0.3288
  228loPI   C3A 3641   8.014  15.858   8.472 -0.1157 -0.1143  0.1842
  228loPI   C4A 3642   7.762  15.743   8.157  0.0486 -0.0555 -0.0511
  228loPI   C5A 3643   7.349  15.783   8.047 -0.0404  0.1147  0.1212
  228loPI   C6A 3644   6.998  16.054   7.838  0.0742 -0.1162  0.0809
  228loPI   C1B 3645   8.456  16.322   9.581  0.1994 -0.1439  0.1191
  228loPI   C2B 3646   8.559  16.330   9.115  0.0516  0.1131 -0.1128
  228loPI   C3B 3647   8.496  16.277   8.714  0.1140 -0.1968  0.1703
  228loPI   C4B 3648   8.511  16.162   8.294  0.1369 -0.1718  0.0511
  229loPI    C1 3649   1.115  13.554  10.882 -0.2553  0.0565 -0.1369
  229loPI    C2 3650   1.436  13.597  11.117 -0.2117 -0.1887 -0.1493
  229loPI    C3 3651   1.068  13.644  11.269 -0.1720  0.0880 -0.1340
  229loPI   PO4 3652   1.123  13.366  10.773  0.0313 -0.0712  0.2351
  229loPI   GL1 3653   1.126  13.327  10.348 -0.0262  0.5015 -0.1228
  229loPI   GL2 3654   0.872  13.123  10.368 -0.1164 -0.1017 -0.3137
  229loPI   C1A 3655   1.322  13.649  10.164  0.2416  0.0565 -0.0581
  229loPI   C2A 3656   1.320  13.735   9.693  0.0768  0.0009 -0.1656
  229loPI   C3A 3657   1.303  13.630   9.201  0.2164 -0.0030  0.0197
  229loPI   C4A 3658   1.276  13.685   8.752  0.0565  0.3123  0.1409
  229loPI   C5A 3659   1.072  13.853   8.354 -0.2018  0.1870  0.0924
  229loPI   C6A 3660   1.342  14.170   8.064  0.0490  0.0114  0.0680
  229loPI   C1B 3661   0.738  13.031  10.021  0.0359 -0.3358  0.2434
  229loPI   C2B 3662   0.740  13.086   9.661 -0.3327 -0.0984 -0.1094
  229loPI   C3B 3663   0.738  13.013   9.244 -0.4245  0.1447  0.2137
  229loPI   C4B 3664   0.668  12.965   8.845  0.1381 -0.1060  0.0186
  230loPI    C1 3665  12.418   4.515  10.842  0.0121  0.2646 -0.1242
  230loPI    C2 3666  12.533   4.609  11.214  0.2329 -0.0423 -0.1113
  230loPI    C3 3667  12.163   4.472  11.148  0.0086  0.5249 -0.0883
  230loPI   PO4 3668  12.441   4.690  10.695  0.0543  0.1939 -0.0250
  230loPI   GL1 3669  12.426   4.547  10.289 -0.1391 -0.2183  0.0608
  230loPI   GL2 3670  12.119   4.438  10.182  0.0703 -0.2137  0.2537
  230loPI   C1A 3671  12.329   4.822   9.910  0.2858 -0.0498 -0.2456
  230loPI   C2A 3672  12.247   5.073   9.513 -0.0303 -0.0270  0.0360
  230loPI   C3A 3673  12.357   5.145   9.098  0.0514 -0.0738 -0.0612
  230loPI   C4A 3674  12.409   5.150   8.684  0.0563 -0.3102 -0.0330
  230loPI   C5A 3675  12.499   5.386   8.391  0.0870  0.0010 -0.0193
  230loPI   C6A 3676  12.136   5.629   8.115 -0.0616  0.0076 -0.1530
  230loPI   C1B 3677  11.972   4.509   9.705 -0.1620  0.0102 -0.1743
  230loPI   C2B 3678  12.007   4.714   9.264  0.1388  0.1345 -0.0227
  230loPI   C3B 3679  12.010   4.844   8.802 -0.0168 -0.2125 -0.0392
  230loPI   C4B 3680  11.895   4.859   8.349  0.2228  0.0589 -0.0819
  231loPI    C1 3681  16.702   2.402  10.715 -0.2051 -0.0024  0.2127
  231loPI    C2 3682  16.776   2.718  10.949  0.0572  0.1869 -0.1169
  231loPI    C3 3683  16.965   2.372  11.016 -0.1510  0.1266  0.1791
  231loPI   PO4 3684  16.720   2.532  10.467  0.0930 -0.0265  0.0302
  231loPI   GL1 3685  16.842   2.663  10.056  0.0654  0.1031  0.0064
  231loPI   GL2 3686  16.631   2.538   9.963  0.0527 -0.0385 -0.1662
  231loPI   C1A 3687  17.049   2.367   9.671  0.2720  0.0523 -0.0892
  231loPI   C2A 3688  17.029   2.279   9.360 -0.3513  0.1966 -0.0527
  231loPI   C3A 3689  16.952   2.193   8.879 -0.0940  0.0703  0.1062
  231loPI   C4A 3690  16.865   2.129   8.422  0.0029 -0.0665  0.1728
  231loPI   C5A 3691  17.180   2.159   8.091 -0.0549  0.1168  0.2368
  231loPI   C6A 3692  17.438   2.528   8.149 -0.1980 -0.3394  0.0457
  231loPI   C1B 3693  16.678   2.658   9.500 -0.1853 -0.0688 -0.1035
  231loPI   C2B 3694  16.632   2.524   9.103 -0.2475 -0.1706  0.0567
  231loPI   C3B 3695  16.579   2.492   8.654  0.0363 -0.2143  0.0751
  231loPI   C4B 3696  16.588   2.650   8.198  0.4068  0.2375 -0.1341
  232loPI    C1 3697  14.066  13.260  10.485  0.0122  0.0002  0.1222
  232loPI    C2 3698  13.821  13.575  10.458  0.1677  0.1037 -0.1037
  232loPI    C3 3699  13.681  13.224  10.589 -0.0813  0.1838 -0.1503
  232loPI   PO4 3700  14.138  13.236  10.266 -0.2519  0.2961  0.2595
  232loPI   GL1 3701  14.306  12.911  10.077 -0.0207  0.2960  0.2613
  232loPI   GL2 3702  14.264  12.617  10.128 -0.0562 -0.3323 -0.1758
  232loPI   C1A 3703  14.283  12.770   9.659  0.3657 -0.0534  0.0026
  232loPI   C2A 3704  14.286  12.530   9.254 -0.2041  0.0865  0.0080
  232loPI   C3A 3705  14.323  12.627   8.853  0.3294  0.1077 -0.1015
  232loPI   C4A 3706  14.278  12.870   8.484 -0.4176  0.2732 -0.0174
  232loPI   C5A 3707  14.259  12.847   8.084  0.1713 -0.1991  0.0969
  232loPI   C6A 3708  14.145  12.499   7.732  0.4087  0.1204 -0.0120
  232loPI   C1B 3709  13.953  12.476   9.823  0.1562  0.0036  0.1508
  232loPI   C2B 3710  13.815  12.377   9.487 -0.0099  0.0094  0.0171
  232loPI   C3B 3711  13.959  12.253   9.094  0.0788 -0.0487 -0.2192
  232loPI   C4B 3712  14.042  12.279   8.664  0.0129 -0.0182 -0.2306
  233loPI    C1 3713  13.723   3.147  10.141  0.0860 -0.0661  0.0354
  233loPI    C2 3714  13.784   2.887  10.439 -0.1173 -0.0814  0.0649
  233loPI    C3 3715  13.752   3.278  10.518 -0.0747 -0.0753  0.0518
  233loPI   PO4 3716  13.988   2.994   9.991  0.0858  0.0348 -0.2068
  233loPI   GL1 3717  14.352   2.709   9.905  0.1526 -0.1920  0.2638
  233loPI   GL2 3718  14.436   2.396   9.903  0.1231 -0.0158 -0.2861
  233loPI   C1A 3719  14.385   2.887   9.457  0.0772  0.1100  0.0725
  233loPI   C2A 3720  14.349   3.060   9.052 -0.0701  0.2134  0.3729
  233loPI   C3A 3721  14.217   3.137   8.650 -0.1419  0.3353  0.1376
  233loPI   C4A 3722  14.198   3.268   8.259  0.0104  0.2355 -0.1964
  233loPI   C5A 3723  14.096   3.162   7.967 -0.0659 -0.0257  0.1154
  233loPI   C6A 3724  13.861   3.113   7.623 -0.1473 -0.0259 -0.1323
  233loPI   C1B 3725  14.373   2.352   9.469  0.0733  0.2850  0.1043
  233loPI   C2B 3726  14.346   2.393   9.064 -0.3213 -0.1598  0.1438
  233loPI   C3B 3727  14.306   2.627   8.682  0.2265 -0.0228 -0.1847
  233loPI   C4B 3728  14.036   2.548   8.328  0.0911  0.2715  0.3440
  234loPI    C1 3729  16.000   2.052  10.419 -0.0434 -0.0247 -0.0410
  234loPI    C2 3730  16.165   1.758  10.635  0.2293  0.0047 -0.2050
  234loPI    C3 3731  16.196   2.138  10.757  0.0163 -0.0177 -0.0772
  234loPI   PO4 3732  15.855   1.905  10.218  0.2681  0.0484 -0.3274
  234loPI   GL1 3733  15.897   1.538  10.043 -0.2136 -0.1287 -0.0344
  234loPI   GL2 3734  15.797   1.148  10.051 -0.0280  0.1820 -0.2048
  234loPI   C1A 3735  15.951   1.506   9.594 -0.0977  0.0907  0.0469
  234loPI   C2A 3736  15.934   1.448   9.206  0.2183 -0.0361 -0.0859
  234loPI   C3A 3737  16.002   1.429   8.725 -0.0090 -0.1541 -0.0241
  234loPI   C4A 3738  16.009   1.247   8.308  0.0374 -0.1592  0.2951
  234loPI   C5A 3739  16.132   1.073   7.937  0.1474 -0.1212 -0.3866
  234loPI   C6A 3740  16.570   0.937   7.589  0.1104 -0.1025 -0.0869
  234loPI   C1B 3741  15.814   1.032   9.631 -0.1376 -0.0733  0.0436
  234loPI   C2B 3742  15.829   0.916   9.247  0.1404  0.1057  0.1707
  234loPI   C3B 3743  15.862   0.901   8.750  0.1558 -0.1315  0.1794
  234loPI   C4B 3744  15.816   0.779   8.240  0.0913 -0.1803 -0.0513
  235loPI    C1 3745   3.279  10.936  10.512 -0.0172 -0.0025 -0.0413
  235loPI    C2 3746   2.902  10.938  10.379  0.0312  0.1717 -0.1786
  235loPI    C3 3747   3.050  11.260  10.564  0.0392  0.0173  0.0891
  235loPI   PO4 3748   3.455  10.876  10.323 -0.0957 -0.1153 -0.0966
  235loPI   GL1 3749   3.375  11.167  10.062  0.2678  0.1055 -0.1031
  235loPI   GL2 3750   3.312  11.453  10.177 -0.1943  0.1339 -0.0462
  235loPI   C1A 3751   3.110  11.125   9.710 -0.0457 -0.1041  0.0044
  235loPI   C2A 3752   3.058  11.159   9.391  0.1865 -0.0732  0.0100
  235loPI   C3A 3753   3.059  11.083   8.971  0.3782 -0.1275 -0.2012
  235loPI   C4A 3754   2.816  11.070   8.616 -0.0222 -0.0589 -0.1756
  235loPI   C5A 3755   2.420  11.178   8.360  0.2900 -0.0644  0.0577
  235loPI   C6A 3756   2.062  11.357   8.126  0.0033  0.1236 -0.2148
  235loPI   C1B 3757   3.332  11.587   9.742  0.2461  0.2045  0.0362
  235loPI   C2B 3758   3.273  11.610   9.387 -0.0324  0.4294  0.2700
  235loPI   C3B 3759   3.237  11.569   8.967  0.2742  0.2858 -0.1548
  235loPI   C4B 3760   3.172  11.408   8.543  0.1162  0.0401  0.2773
  236loPI    C1 3761   3.134   4.421  10.558  0.0537 -0.0133  0.0714
  236loPI    C2 3762   3.331   4.768  10.553  0.0825 -0.0303  0.0209
  236loPI    C3 3763   3.327   4.546  10.885 -0.0374  0.0762  0.0914
  236loPI   PO4 3764   3.130   4.345  10.314 -0.0631 -0.2948 -0.0153
  236loPI   GL1 3765   3.063   4.240   9.871 -0.1525  0.0299  0.1348
  236loPI   GL2 3766   3.404   4.343   9.894  0.0709 -0.0762  0.1497
  236loPI   C1A 3767   3.243   4.045   9.472 -0.0365  0.2525  0.0859
  236loPI   C2A 3768   3.146   3.786   9.216  0.0402  0.1288 -0.1856
  236loPI   C3A 3769   3.142   3.699   8.797  0.0161 -0.1128  0.0312
  236loPI   C4A 3770   3.061   3.841   8.434  0.0793 -0.0214  0.1774
  236loPI   C5A 3771   2.898   3.997   7.989 -0.2686  0.1829 -0.1733
  236loPI   C6A 3772   2.897   3.905   7.606 -0.0893 -0.0017 -0.0091
  236loPI   C1B 3773   3.547   4.430   9.454 -0.0430 -0.2876  0.1635
  236loPI   C2B 3774   3.462   4.542   9.071  0.4392 -0.2762 -0.0833
  236loPI   C3B 3775   3.702   4.642   8.785 -0.0411  0.0421  0.1611
  236loPI   C4B 3776   3.918   4.719   8.373  0.1423  0.2185 -0.0619
  237loPI    C1 3777   6.383  16.240  10.820 -0.0198  0.0667 -0.1004
  237loPI    C2 3778   6.459  16.441  11.158  0.1671 -0.0535 -0.0699
  237loPI    C3 3779   6.185  16.150  11.155  0.2535 -0.1363  0.0103
  237loPI   PO4 3780   6.443  16.444  10.623  0.1772  0.1866  0.0403
  237loPI   GL1 3781   6.607  16.485  10.186  0.1481  0.1220  0.0576
  237loPI   GL2 3782   6.507  16.090  10.158 -0.1941  0.0079 -0.0598
  237loPI   C1A 3783   6.517  16.493   9.818  0.0670  0.0220 -0.3068
  237loPI   C2A 3784   6.308  16.421   9.383  0.2179  0.3408  0.2322
  237loPI   C3A 3785   6.113  16.440   8.951  0.1491 -0.0698  0.0193
  237loPI   C4A 3786   6.106  16.466   8.513  0.0074  0.2173  0.0980
  237loPI   C5A 3787   5.818  16.499   8.105  0.0644 -0.1032  0.0168
  237loPI   C6A 3788   5.736  16.565   7.742  0.0735  0.0871  0.0229
  237loPI   C1B 3789   6.345  16.015   9.730  0.3209  0.2992  0.0129
  237loPI   C2B 3790   6.219  15.900   9.313  0.2176 -0.2182 -0.1655
  237loPI   C3B 3791   6.115  15.907   8.882  0.1090 -0.1199  0.2227
  237loPI   C4B 3792   5.772  16.127   8.688 -0.2453 -0.3909 -0.0044
  238loPI    C1 3793   0.129  18.057  10.712 -0.0967 -0.2407  0.0517
  238loPI    C2 3794  -0.170  18.317  10.653  0.0487 -0.0677  0.0678
  238loPI    C3 3795  -0.139  18.122  11.001  0.0145 -0.0074  0.1049
  238loPI   PO4 3796   0.295  18.206  10.480  0.1001  0.0830 -0.1635
  238loPI   GL1 3797   0.052  18.542  10.261 -0.5011  0.1134 -0.0341
  238loPI   GL2 3798  -0.201  18.290  10.138 -0.2597  0.3259 -0.0534
  238loPI   C1A 3799   0.379  18.627   9.938 -0.1796 -0.0052  0.1292
  238loPI   C2A 3800   0.405  18.553   9.459 -0.2453 -0.2390 -0.1540
  238loPI   C3A 3801   0.359  18.491   9.046 -0.1147 -0.3608  0.1902
  238loPI   C4A 3802   0.484  18.412   8.635  0.2378  0.0197 -0.0017
  238loPI   C5A 3803   0.719  18.225   8.248  0.0642 -0.0000  0.2902
  238loPI   C6A 3804   1.006  18.506   7.954  0.0916 -0.1459 -0.3100
  238loPI   C1B 3805  -0.028  18.374   9.798 -0.1401  0.0060  0.0768
  238loPI   C2B 3806  -0.026  18.359   9.329  0.1854 -0.0033  0.2571
  238loPI   C3B 3807  -0.128  18.252   8.869 -0.1699 -0.1401 -0.0316
  238loPI   C4B 3808  -0.181  18.304   8.448  0.0301 -0.0576  0.1912
  239loPI    C1 3809   0.449  16.529  10.891  0.0729 -0.1436 -0.0779
  239loPI    C2 3810   0.253  16.798  11.113  0.3331  0.0091 -0.0291
  239loPI    C3 3811   0.554  16.588  11.272  0.1978 -0.2406 -0.0967
  239loPI   PO4 3812   0.406  16.562  10.669 -0.2770 -0.0939 -0.1521
  239loPI   GL1 3813   0.152  16.528  10.262  0.0126 -0.0532  0.1006
  239loPI   GL2 3814   0.408  16.563  10.152 -0.0599  0.2497  0.3051
  239loPI   C1A 3815  -0.033  16.424   9.941 -0.2620 -0.2589  0.1318
  239loPI   C2A 3816  -0.028  16.494   9.533 -0.0079 -0.6234 -0.0910
  239loPI   C3A 3817   0.006  16.522   9.075 -0.1355  0.0295  0.0924
  239loPI   C4A 3818   0.012  16.407   8.664 -0.0339 -0.0541 -0.1712
  239loPI   C5A 3819  -0.015  16.054   8.382 -0.0544  0.0388 -0.1922
  239loPI   C6A 3820   0.272  15.845   8.305 -0.0111 -0.0032  0.1090
  239loPI   C1B 3821   0.437  16.599   9.732 -0.0039  0.0466  0.1331
  239loPI   C2B 3822   0.438  16.678   9.295  0.1252 -0.2008 -0.2064
  239loPI   C3B 3823   0.563  16.631   8.794 -0.0461 -0.0347 -0.0852
  239loPI   C4B 3824   0.499  16.580   8.322 -0.1251  0.1325  0.1917
  240loPI    C1 3825   3.431   5.767  10.478 -0.1109 -0.0142  0.0776
  240loPI    C2 3826   3.525   5.549  10.799 -0.0528  0.1489  0.1730
  240loPI    C3 3827   3.374   5.371  10.474  0.4251 -0.0992  0.0781
  240loPI   PO4 3828   3.562   5.915  10.338 -0.2537 -0.1002 -0.1877
  240loPI   GL1 3829   3.585   5.880   9.967  0.0776 -0.1186  0.0290
  240loPI   GL2 3830   3.461   5.519   9.996  0.0026 -0.1283  0.0621
  240loPI   C1A 3831   3.519   5.941   9.506  0.0203  0.1700 -0.2136
  240loPI   C2A 3832   3.624   5.857   9.066  0.1430  0.0170 -0.2319
  240loPI   C3A 3833   3.649   5.991   8.669  0.1637 -0.0870 -0.1363
  240loPI   C4A 3834   3.659   6.220   8.208 -0.0471  0.0620 -0.1103
  240loPI   C5A 3835   3.769   6.299   7.812  0.0629 -0.0195  0.3819
  240loPI   C6A 3836   4.064   6.457   7.563 -0.1820  0.0325 -0.0145
  240loPI   C1B 3837   3.191   5.539   9.643  0.1604 -0.0599 -0.1264
  240loPI   C2B 3838   3.223   5.499   9.211 -0.0371 -0.0327  0.3418
  240loPI   C3B 3839   2.978   5.239   8.793 -0.0039 -0.1886 -0.1913
  240loPI   C4B 3840   2.714   4.963   8.424 -0.1028 -0.0719 -0.0276
  241loPI    C1 3841  12.035   1.707  10.372 -0.3831  0.0423  0.0293
  241loPI    C2 3842  11.890   1.369  10.214  0.0509 -0.1423  0.0145
  241loPI    C3 3843  12.158   1.353  10.512  0.1671  0.1859 -0.0680
  241loPI   PO4 3844  12.071   1.831  10.163 -0.0900  0.0161 -0.2547
  241loPI   GL1 3845  12.126   1.728   9.812 -0.2069  0.1512  0.3001
  241loPI   GL2 3846  11.851   1.616   9.682 -0.1439  0.2125 -0.2562
  241loPI   C1A 3847  12.237   1.664   9.380  0.2238  0.2530  0.3427
  241loPI   C2A 3848  12.321   1.706   8.982  0.1937 -0.1017  0.0802
  241loPI   C3A 3849  12.222   1.690   8.558  0.1854  0.0485  0.2025
  241loPI   C4A 3850  12.122   1.602   8.111  0.0475 -0.0914  0.1343
  241loPI   C5A 3851  11.718   1.874   7.913 -0.2953  0.3112  0.1068
  241loPI   C6A 3852  11.285   2.088   7.864 -0.0553 -0.1613  0.0945
  241loPI   C1B 3853  11.746   1.603   9.227 -0.1917  0.0822  0.1515
  241loPI   C2B 3854  11.595   1.489   8.932  0.1958  0.2199 -0.0535
  241loPI   C3B 3855  11.573   1.116   8.746  0.0682 -0.2771 -0.0712
  241loPI   C4B 3856  11.595   0.628   8.740  0.0670  0.2149 -0.0374
  242loPI    C1 3857  13.424   7.223  10.560 -0.0364  0.0937 -0.4441
  242loPI    C2 3858  13.801   7.332  10.483 -0.0082  0.2033 -0.1639
  242loPI    C3 3859  13.697   7.221  10.853 -0.2373  0.1108 -0.2542
  242loPI   PO4 3860  13.237   7.342  10.412  0.1181 -0.2711 -0.2436
  242loPI   GL1 3861  13.164   7.350  10.031  0.0535  0.0540 -0.1327
  242loPI   GL2 3862  13.010   7.596  10.001 -0.1166  0.2131  0.2062
  242loPI   C1A 3863  13.111   7.343   9.563 -0.1196 -0.0695  0.2971
  242loPI   C2A 3864  13.079   7.370   9.113 -0.1378  0.0999  0.1077
  242loPI   C3A 3865  13.076   7.333   8.663 -0.1003 -0.2106  0.0907
  242loPI   C4A 3866  12.793   7.296   8.294  0.2916  0.2980 -0.0366
  242loPI   C5A 3867  12.528   7.508   8.162 -0.2226  0.0990 -0.0992
  242loPI   C6A 3868  12.107   7.613   8.093  0.0276  0.0960 -0.0239
  242loPI   C1B 3869  12.989   7.849   9.629 -0.0726  0.1095 -0.1889
  242loPI   C2B 3870  12.964   7.908   9.180  0.0682  0.0763  0.0818
  242loPI   C3B 3871  13.015   7.861   8.738 -0.0498  0.1083 -0.1282
  242loPI   C4B 3872  13.053   7.728   8.339  0.0320  0.3658 -0.1915
  243loPI    C1 3873   4.233   6.177  10.741 -0.1344 -0.3154  0.2298
  243loPI    C2 3874   3.922   6.304  10.957 -0.2686  0.0471 -0.1625
  243loPI    C3 3875   3.906   5.949  10.774 -0.4329  0.0429 -0.1415
  243loPI   PO4 3876   4.305   6.397  10.633  0.0809 -0.0933  0.0357
  243loPI   GL1 3877   4.620   6.670  10.493 -0.1583  0.0392  0.2447
  243loPI   GL2 3878   4.363   6.884  10.348  0.2461 -0.1146  0.2514
  243loPI   C1A 3879   4.725   6.519  10.111  0.1584  0.2084  0.4463
  243loPI   C2A 3880   4.792   6.551   9.689  0.0815  0.1402  0.2198
  243loPI   C3A 3881   4.919   6.535   9.287 -0.2645 -0.2771 -0.0967
  243loPI   C4A 3882   5.024   6.486   8.854  0.1491 -0.3478 -0.0782
  243loPI   C5A 3883   4.972   6.644   8.456  0.2270  0.1971 -0.2826
  243loPI   C6A 3884   4.849   6.521   8.006 -0.1788 -0.0125 -0.1252
  243loPI   C1B 3885   4.314   6.728   9.956 -0.1879  0.1719  0.3537
  243loPI   C2B 3886   4.325   6.679   9.563  0.4022 -0.2384  0.1669
  243loPI   C3B 3887   4.335   6.695   9.286 -0.1634 -0.2201  0.1125
  243loPI   C4B 3888   4.451   6.703   8.834 -0.1523  0.0173  0.0532
  244loPI    C1 3889   2.776   9.945  10.404 -0.2167 -0.0188  0.1003
  244loPI    C2 3890   2.708  10.122  10.756  0.0760  0.1529  0.0735
  244loPI    C3 3891   2.958   9.811  10.734  0.0565  0.1413  0.0171
  244loPI   PO4 3892   2.837  10.103  10.260 -0.1252  0.0507 -0.0314
  244loPI   GL1 3893   2.855  10.422   9.978 -0.1151 -0.0467 -0.0671
  244loPI   GL2 3894   2.795  10.582  10.106  0.2063  0.0113  0.0237
  244loPI   C1A 3895   2.882  10.169   9.523  0.1489  0.2293 -0.0665
  244loPI   C2A 3896   3.136   9.956   9.229  0.1658  0.0030  0.0374
  244loPI   C3A 3897   3.361  10.135   8.986  0.0954  0.0107  0.2063
  244loPI   C4A 3898   3.281  10.182   8.497 -0.0410  0.2576  0.0357
  244loPI   C5A 3899   3.164  10.319   8.051  0.0303 -0.0317 -0.1314
  244loPI   C6A 3900   3.025  10.694   7.876 -0.0316  0.2572  0.2622
  244loPI   C1B 3901   2.660  10.916   9.702 -0.0607 -0.4832 -0.2660
  244loPI   C2B 3902   2.350  10.963   9.607 -0.3528 -0.0719  0.2198
  244loPI   C3B 3903   2.107  11.089   9.342  0.0184  0.1846 -0.1166
  244loPI   C4B 3904   2.179  11.157   8.881  0.2516 -0.1396  0.0080
  245loPI    C1 3905  11.864  12.795  10.769 -0.2257  0.2187  0.0258
  245loPI    C2 3906  11.569  12.808  10.499 -0.2906 -0.1029  0.0765
  245loPI    C3 3907  11.483  12.758  10.886 -0.1762 -0.0507  0.1090
  245loPI   PO4 3908  12.066  12.620  10.543  0.0342  0.0099 -0.3109
  245loPI   GL1 3909  12.195  12.754  10.165  0.1894  0.2778 -0.1846
  245loPI   GL2 3910  11.878  12.802  10.053  0.2023 -0.2037 -0.1306
  245loPI   C1A 3911  12.510  12.780   9.919  0.0483 -0.1403  0.0081
  245loPI   C2A 3912  12.522  12.843   9.444 -0.4098 -0.1525 -0.1632
  245loPI   C3A 3913  12.487  12.804   8.960  0.0693  0.0247  0.1706
  245loPI   C4A 3914  12.467  12.791   8.468 -0.0146 -0.1371  0.2456
  245loPI   C5A 3915  12.425  13.122   8.139 -0.1920 -0.2754  0.0472
  245loPI   C6A 3916  12.821  13.323   8.092  0.0707 -0.0965  0.0705
  245loPI   C1B 3917  11.569  12.868   9.751 -0.1364  0.2148  0.0625
  245loPI   C2B 3918  11.415  12.741   9.314 -0.0727 -0.1216 -0.3212
  245loPI   C3B 3919  11.460  12.749   8.905 -0.3310 -0.1369  0.0941
  245loPI   C4B 3920  11.454  12.871   8.526 -0.0436  0.0722 -0.2548
  246loPI    C1 3921  15.647   9.628  10.479 -0.0705 -0.0490 -0.1473
  246loPI    C2 3922  15.755   9.524  10.849 -0.0702  0.0101 -0.1307
  246loPI    C3 3923  16.028   9.537  10.557 -0.0468  0.0827 -0.1061
  246loPI   PO4 3924  15.318   9.645  10.581 -0.0048  0.1245 -0.0883
  246loPI   GL1 3925  15.133   9.789  10.250 -0.0394 -0.1634 -0.4943
  246loPI   GL2 3926  15.404   9.913   9.973 -0.3412  0.1856  0.0913
  246loPI   C1A 3927  14.925   9.936   9.841 -0.1090  0.0181  0.0271
  246loPI   C2A 3928  14.783  10.066   9.387  0.1254  0.0854 -0.0084
  246loPI   C3A 3929  14.881  10.091   8.918 -0.2671 -0.0128 -0.0533
  246loPI   C4A 3930  15.004  10.121   8.499  0.0177 -0.1587  0.0106
  246loPI   C5A 3931  15.107   9.838   8.182 -0.1739  0.2270 -0.1744
  246loPI   C6A 3932  15.371   9.579   8.109 -0.1727  0.0527 -0.0189
  246loPI   C1B 3933  15.330   9.768   9.627  0.2477 -0.0424 -0.2349
  246loPI   C2B 3934  15.243   9.917   9.359  0.1296  0.0664 -0.0845
  246loPI   C3B 3935  15.329   9.936   8.975  0.3450  0.2097 -0.1349
  246loPI   C4B 3936  15.479   9.783   8.564  0.2847  0.0249  0.1641
  247loPI    C1 3937  13.669   5.301  10.661  0.1068  0.1554 -0.1073
  247loPI    C2 3938  13.403   5.213  10.946 -0.0952  0.4871 -0.1894
  247loPI    C3 3939  13.615   4.921  10.775 -0.0438  0.2728  0.2264
  247loPI   PO4 3940  13.599   5.433  10.477  0.0948  0.0672 -0.0842
  247loPI   GL1 3941  13.566   5.427  10.110  0.1738 -0.1430 -0.1143
  247loPI   GL2 3942  13.332   5.362   9.973  0.1632 -0.0490 -0.2502
  247loPI   C1A 3943  13.429   5.798   9.855  0.3021  0.3970 -0.2003
  247loPI   C2A 3944  13.359   5.852   9.409 -0.1616 -0.3121 -0.0389
  247loPI   C3A 3945  13.279   5.836   8.916  0.0299 -0.1495  0.1233
  247loPI   C4A 3946  13.252   5.941   8.516  0.2037  0.0314 -0.1634
  247loPI   C5A 3947  13.037   6.120   8.025  0.1112  0.1640  0.2828
  247loPI   C6A 3948  12.644   6.359   7.854  0.0904  0.1801 -0.1345
  247loPI   C1B 3949  13.032   5.501   9.625  0.1018 -0.0968  0.0296
  247loPI   C2B 3950  12.871   5.539   9.096  0.0449 -0.1816 -0.0815
  247loPI   C3B 3951  12.852   5.582   8.668 -0.4558  0.0103  0.1427
  247loPI   C4B 3952  12.945   5.518   8.244  0.2482  0.0622  0.2727
  248loPI    C1 3953  12.925   6.430  10.794  0.0412  0.3427 -0.1793
  248loPI    C2 3954  13.020   6.354  10.413  0.1048  0.3114 -0.1575
  248loPI    C3 3955  12.985   6.053  10.674 -0.0684  0.3213 -0.1680
  248loPI   PO4 3956  13.161   6.664  10.837 -0.4137  0.0556 -0.0016
  248loPI   GL1 3957  13.143   6.837  10.421 -0.1341  0.0599 -0.1534
  248loPI   GL2 3958  13.323   6.863  10.230  0.0033 -0.0019 -0.0810
  248loPI   C1A 3959  12.810   6.742  10.077 -0.1619  0.2230 -0.0355
  248loPI   C2A 3960  12.867   6.595   9.619  0.0734 -0.1756 -0.0161
  248loPI   C3A 3961  12.765   6.464   9.167 -0.1429 -0.2071  0.0173
  248loPI   C4A 3962  12.683   6.534   8.756 -0.0301  0.0307 -0.1400
  248loPI   C5A 3963  12.669   6.587   8.350  0.1990  0.1080  0.0524
  248loPI   C6A 3964  12.894   6.782   8.028 -0.3305 -0.3706 -0.1752
  248loPI   C1B 3965  13.223   6.887   9.800  0.0000 -0.0236  0.0686
  248loPI   C2B 3966  13.149   6.845   9.317 -0.0877  0.1658 -0.2451
  248loPI   C3B 3967  13.096   6.821   8.911 -0.0557 -0.0753 -0.1155
  248loPI   C4B 3968  13.162   6.877   8.461  0.1868  0.1177 -0.1071
  249loPI    C1 3969   2.747   5.142  10.555 -0.0061 -0.0067  0.3039
  249loPI    C2 3970   2.551   5.455  10.401 -0.0907 -0.1623  0.0907
  249loPI    C3 3971   2.497   5.354  10.784 -0.1180  0.0390  0.1410
  249loPI   PO4 3972   2.972   5.142  10.442  0.0997  0.2746  0.1967
  249loPI   GL1 3973   3.161   5.113  10.082 -0.2042 -0.0138  0.0256
  249loPI   GL2 3974   3.107   4.805  10.042 -0.0470  0.0027  0.1513
  249loPI   C1A 3975   3.404   5.041   9.683 -0.0720  0.1424  0.1445
  249loPI   C2A 3976   3.467   5.032   9.234 -0.1344 -0.1589  0.0199
  249loPI   C3A 3977   3.489   5.131   8.862 -0.2126 -0.4515 -0.0623
  249loPI   C4A 3978   3.681   5.133   8.425 -0.0403 -0.1425  0.2900
  249loPI   C5A 3979   3.676   5.169   8.057  0.0109 -0.0043  0.1295
  249loPI   C6A 3980   3.593   5.285   7.610 -0.0678  0.1605  0.1793
  249loPI   C1B 3981   3.106   4.633   9.564 -0.0258  0.0081  0.1489
  249loPI   C2B 3982   2.990   4.799   9.236 -0.0503  0.4517 -0.1834
  249loPI   C3B 3983   2.940   4.764   8.891  0.0076  0.0380 -0.0960
  249loPI   C4B 3984   3.255   4.794   8.556 -0.2757  0.1413 -0.1619
  250loPI    C1 3985   1.837   7.763  10.679 -0.0724  0.1496  0.1230
  250loPI    C2 3986   2.048   7.795  11.017  0.1216 -0.1627  0.0360
  250loPI    C3 3987   1.871   7.448  10.924  0.2638 -0.1502 -0.2931
  250loPI   PO4 3988   1.960   7.865  10.544  0.1486 -0.3844 -0.0848
  250loPI   GL1 3989   1.906   7.724  10.133 -0.0289  0.1704 -0.0156
  250loPI   GL2 3990   2.287   7.766  10.194 -0.2076  0.0442  0.1093
  250loPI   C1A 3991   1.834   7.977   9.844 -0.2419 -0.2005  0.3115
  250loPI   C2A 3992   1.787   7.910   9.435 -0.2151  0.0675  0.0176
  250loPI   C3A 3993   1.676   7.903   9.024 -0.2059  0.0696  0.1567
  250loPI   C4A 3994   1.304   7.833   8.763  0.1324  0.1294  0.0727
  250loPI   C5A 3995   0.917   7.921   8.560  0.1108 -0.1084 -0.0922
  250loPI   C6A 3996   0.733   7.923   8.163 -0.0122 -0.1992  0.1486
  250loPI   C1B 3997   2.259   7.761   9.765 -0.2050 -0.1180  0.0419
  250loPI   C2B 3998   2.308   7.789   9.295  0.4305  0.3129 -0.0768
  250loPI   C3B 3999   2.245   7.711   8.897 -0.0843  0.4172 -0.2084
  250loPI   C4B 4000   2.357   7.815   8.407 -0.2355  0.0682 -0.2511
  251loPI    C1 4001  12.701  15.909  10.760 -0.1383 -0.2415 -0.1142
  251loPI    C2 4002  12.955  15.748  10.496  0.1750  0.1283 -0.0474
  251loPI    C3 4003  13.006  15.683  10.887 -0.0164 -0.0436 -0.0497
  251loPI   PO4 4004  12.631  16.097  10.629  0.0086  0.0097  0.0924
  251loPI   GL1 4005  12.638  16.025  10.255  0.1959  0.0617 -0.0408
  251loPI   GL2 4006  12.522  15.715  10.311  0.0059  0.2697 -0.0255
  251loPI   C1A 4007  13.141  15.838   9.995  0.0553 -0.1055  0.2092
  251loPI   C2A 4008  13.271  15.796   9.460  0.1566 -0.2437  0.0523
  251loPI   C3A 4009  13.432  15.909   9.124 -0.0699  0.2229  0.1886
  251loPI   C4A 4010  13.439  15.752   8.654 -0.3122  0.0384 -0.1862
  251loPI   C5A 4011  13.774  15.509   8.520 -0.1931  0.1070 -0.0953
  251loPI   C6A 4012  14.140  15.452   8.209  0.3253  0.5756 -0.2142
  251loPI   C1B 4013  12.666  15.662   9.914  0.0660  0.1718  0.0915
  251loPI   C2B 4014  12.755  15.600   9.535  0.2031  0.3692  0.1044
  251loPI   C3B 4015  12.952  15.703   9.138  0.0383  0.0178  0.0294
  251loPI   C4B 4016  12.933  15.747   8.758 -0.1709 -0.2121  0.0511
  252loPI    C1 4017   4.121  10.080  10.649 -0.1823 -0.0827  0.0816
  252loPI    C2 4018   4.002   9.716  10.764  0.0465 -0.1327  0.1647
  252loPI    C3 4019   4.367   9.847  10.861 -0.0123  0.0959  0.0832
  252loPI   PO4 4020   3.958  10.053  10.361  0.1756  0.1517 -0.0439
  252loPI   GL1 4021   3.802   9.885   9.936  0.0348  0.0128  0.3182
  252loPI   GL2 4022   4.219   9.826   9.931 -0.1887 -0.1050 -0.0376
  252loPI   C1A 4023   3.560   9.541   9.701  0.2295 -0.0053 -0.0640
  252loPI   C2A 4024   3.389   9.308   9.350  0.2545 -0.1106 -0.0537
  252loPI   C3A 4025   3.270   9.218   8.893 -0.0917  0.6355  0.1213
  252loPI   C4A 4026   3.075   9.180   8.619  0.2861  0.2650  0.0121
  252loPI   C5A 4027   2.724   9.252   8.406 -0.1834 -0.1072  0.0616
  252loPI   C6A 4028   2.398   9.275   8.119  0.2052 -0.3089 -0.0114
  252loPI   C1B 4029   4.525   9.802   9.523 -0.2000 -0.1152  0.1265
  252loPI   C2B 4030   4.627   9.800   9.123  0.2020  0.1656 -0.3369
  252loPI   C3B 4031   4.682   9.520   8.641  0.2106  0.2320  0.0122
  252loPI   C4B 4032   4.731   9.415   8.274 -0.0858  0.2249 -0.1617
  253loPI    C1 4033  12.971   9.057  10.823  0.0236  0.0782  0.1405
  253loPI    C2 4034  12.612   9.098  10.651 -0.0391  0.1272  0.2817
  253loPI    C3 4035  12.692   9.286  10.995  0.1183  0.1071  0.2571
  253loPI   PO4 4036  13.188   9.108  10.657  0.2137  0.0656  0.0179
  253loPI   GL1 4037  13.308   8.878  10.400  0.0121  0.0111  0.2780
  253loPI   GL2 4038  12.971   9.001  10.246 -0.0086  0.0800  0.0051
  253loPI   C1A 4039  13.688   8.957  10.119 -0.0234  0.0597  0.1236
  253loPI   C2A 4040  13.767   8.992   9.632 -0.1318 -0.1892  0.0858
  253loPI   C3A 4041  13.779   9.016   9.110  0.2939  0.3635  0.0809
  253loPI   C4A 4042  13.691   9.033   8.627  0.0394 -0.0761 -0.1981
  253loPI   C5A 4043  13.937   8.933   8.197  0.2027 -0.0813 -0.0505
  253loPI   C6A 4044  14.300   8.716   8.131  0.1178 -0.0182 -0.2092
  253loPI   C1B 4045  12.827   9.272   9.935 -0.2938  0.1623  0.1595
  253loPI   C2B 4046  12.834   9.297   9.460  0.0166  0.0968 -0.1845
  253loPI   C3B 4047  12.840   9.336   9.083  0.1878  0.0163  0.2302
  253loPI   C4B 4048  12.765   9.292   8.607  0.0051  0.0417 -0.0515
  254loPI    C1 4049   2.557  14.230  11.046 -0.0370 -0.1599 -0.1399
  254loPI    C2 4050   2.204  14.343  11.196  0.0551 -0.1390  0.0634
  254loPI    C3 4051   2.542  14.505  11.335  0.1611 -0.3481  0.0524
  254loPI   PO4 4052   2.451  14.217  10.817 -0.1758 -0.0575 -0.1816
  254loPI   GL1 4053   2.595  14.478  10.515 -0.0831  0.0289  0.4387
  254loPI   GL2 4054   2.812  14.330  10.203  0.2792  0.0967 -0.0439
  254loPI   C1A 4055   2.376  14.432  10.093 -0.3512 -0.1304 -0.0605
  254loPI   C2A 4056   2.287  14.461   9.726  0.0147 -0.0688  0.1357
  254loPI   C3A 4057   2.263  14.443   9.351 -0.0325  0.2009  0.1242
  254loPI   C4A 4058   2.337  14.536   8.838 -0.3014  0.1237 -0.1790
  254loPI   C5A 4059   2.413  14.501   8.451 -0.1355  0.0227 -0.0023
  254loPI   C6A 4060   2.395  14.590   8.075  0.0541 -0.3616  0.1292
  254loPI   C1B 4061   2.794  14.168   9.834 -0.2273  0.0100  0.0951
  254loPI   C2B 4062   2.724  14.260   9.460  0.2897 -0.1546  0.1558
  254loPI   C3B 4063   2.744  14.166   9.019 -0.0173  0.0667  0.0651
  254loPI   C4B 4064   2.767  14.098   8.604  0.2118  0.1439  0.0812
  255loPI    C1 4065   1.799  15.102  11.132 -0.2855 -0.1291  0.1745
  255loPI    C2 4066   2.004  14.813  11.318  0.0927 -0.0934 -0.1730
  255loPI    C3 4067   2.006  15.185  11.465 -0.0531 -0.1764  0.0442
  255loPI   PO4 4068   1.836  15.020  10.854  0.4666  0.1425 -0.3809
  255loPI   GL1 4069   1.783  14.850  10.466 -0.0774 -0.0290 -0.0133
  255loPI   GL2 4070   1.996  14.642  10.361 -0.1271  0.1300  0.2491
  255loPI   C1A 4071   1.512  14.714  10.221  0.1995  0.1510  0.2359
  255loPI   C2A 4072   1.411  14.724   9.784 -0.0446 -0.3848  0.0653
  255loPI   C3A 4073   1.441  14.637   9.372  0.7147  0.2296 -0.1791
  255loPI   C4A 4074   1.489  14.650   8.895  0.1297  0.3102 -0.0153
  255loPI   C5A 4075   1.593  14.555   8.434  0.1092 -0.2576 -0.1173
  255loPI   C6A 4076   1.927  14.310   8.159  0.0738  0.0195 -0.1172
  255loPI   C1B 4077   1.927  14.742   9.916 -0.0510  0.0446 -0.1634
  255loPI   C2B 4078   1.931  14.813   9.497 -0.1593 -0.0708  0.0228
  255loPI   C3B 4079   2.051  14.805   9.104  0.2593 -0.1681  0.0962
  255loPI   C4B 4080   2.002  14.794   8.622 -0.0339  0.0584  0.4963
  256loPI    C1 4081  16.450   9.094  10.452 -0.1442  0.1555 -0.2787
  256loPI    C2 4082  16.200   9.108  10.764  0.0777 -0.1466 -0.0822
  256loPI    C3 4083  16.517   9.352  10.750  0.0630 -0.1270 -0.0753
  256loPI   PO4 4084  16.169   9.102  10.257 -0.4471 -0.3666  0.0236
  256loPI   GL1 4085  16.046   8.985   9.867  0.1227 -0.2721 -0.0406
  256loPI   GL2 4086  16.069   8.689   9.893 -0.0189 -0.0877  0.4377
  256loPI   C1A 4087  15.969   9.040   9.539  0.2908  0.0494  0.4654
  256loPI   C2A 4088  15.814   9.128   9.149  0.2191  0.1686  0.2596
  256loPI   C3A 4089  15.951   9.194   8.727 -0.1772  0.0590 -0.1566
  256loPI   C4A 4090  16.124   9.262   8.323  0.3655  0.1554  0.1241
  256loPI   C5A 4091  16.333   9.277   8.003 -0.0692  0.1648  0.1765
  256loPI   C6A 4092  16.732   9.270   8.072  0.2010  0.0405 -0.1897
  256loPI   C1B 4093  16.119   8.582   9.488  0.0775  0.2763  0.1279
  256loPI   C2B 4094  15.948   8.642   9.090 -0.2633  0.2489 -0.1953
  256loPI   C3B 4095  15.999   8.666   8.697  0.2537 -0.0287  0.1319
  256loPI   C4B 4096  16.044   8.725   8.321  0.2285  0.1663  0.0001
  257loPI    C1 4097  10.918   2.358  10.901  0.0578 -0.1281  0.0911
  257loPI    C2 4098  10.533   2.257  10.861 -0.0183  0.0771  0.2845
  257loPI    C3 4099  10.752   2.096  11.154  0.2246 -0.5376 -0.2128
  257loPI   PO4 4100  10.929   2.433  10.587 -0.1841  0.0291 -0.0617
  257loPI   GL1 4101  10.995   2.380  10.117  0.1235 -0.0098  0.1641
  257loPI   GL2 4102  10.847   2.648  10.084 -0.0010  0.1856  0.1656
  257loPI   C1A 4103  11.071   2.310   9.724 -0.0845 -0.0989  0.0992
  257loPI   C2A 4104  11.028   2.285   9.331 -0.3758 -0.1107  0.0980
  257loPI   C3A 4105  10.907   2.261   8.895 -0.3017 -0.2978 -0.2091
  257loPI   C4A 4106  10.838   2.100   8.538 -0.0104  0.1922 -0.3769
  257loPI   C5A 4107  10.862   2.180   8.116 -0.0319 -0.0976 -0.1116
  257loPI   C6A 4108  10.603   2.116   7.771 -0.0587 -0.0694  0.2744
  257loPI   C1B 4109  10.691   2.582   9.657  0.0354 -0.2633 -0.2024
  257loPI   C2B 4110  10.610   2.614   9.248  0.0532 -0.0400  0.0141
  257loPI   C3B 4111  10.473   2.451   8.774 -0.0268  0.1240  0.1125
  257loPI   C4B 4112  10.447   2.379   8.363 -0.0133  0.0487 -0.1125
  258loPI    C1 4113   7.580   6.323  10.687 -0.1723  0.0000 -0.0780
  258loPI    C2 4114   7.532   6.255  11.078 -0.1132  0.0520 -0.0613
  258loPI    C3 4115   7.679   5.968  10.842  0.0721  0.0983 -0.0037
  258loPI   PO4 4116   7.775   6.556  10.694 -0.0519 -0.0706  0.1812
  258loPI   GL1 4117   7.961   6.919  10.438  0.1674  0.0712 -0.3068
  258loPI   GL2 4118   8.249   7.002  10.352 -0.0311  0.1882  0.1307
  258loPI   C1A 4119   8.038   6.839   9.926 -0.2508 -0.0858 -0.1707
  258loPI   C2A 4120   8.161   6.907   9.601  0.2740  0.1357  0.1237
  258loPI   C3A 4121   8.141   6.958   9.162 -0.1220  0.1959  0.1378
  258loPI   C4A 4122   8.104   6.905   8.707  0.1305  0.2607 -0.1304
  258loPI   C5A 4123   7.899   6.821   8.383  0.1255 -0.1217 -0.1036
  258loPI   C6A 4124   7.664   7.170   8.062  0.2208  0.0844 -0.4474
  258loPI   C1B 4125   8.377   7.259  10.056 -0.0076  0.2523  0.1611
  258loPI   C2B 4126   8.489   7.273   9.710  0.3162 -0.0845 -0.1084
  258loPI   C3B 4127   8.476   7.284   9.250 -0.1759 -0.0169 -0.0069
  258loPI   C4B 4128   8.469   7.204   8.925  0.2128 -0.2034 -0.0401
  259loPI    C1 4129   5.604  11.798  11.035  0.2412 -0.0183  0.0435
  259loPI    C2 4130   5.548  12.079  11.314 -0.1086 -0.0056 -0.0355
  259loPI    C3 4131   5.597  11.697  11.422  0.1753  0.0562  0.0619
  259loPI   PO4 4132   5.445  11.954  10.770  0.3807 -0.0223 -0.1730
  259loPI   GL1 4133   5.580  11.987  10.348 -0.1151  0.2168 -0.1368
  259loPI   GL2 4134   5.361  11.725  10.292  0.1276 -0.1664 -0.3238
  259loPI   C1A 4135   5.636  12.097   9.986 -0.0056  0.1125  0.0412
  259loPI   C2A 4136   5.666  12.096   9.536  0.0747 -0.5237 -0.0918
  259loPI   C3A 4137   5.838  12.141   9.159 -0.0969 -0.2864 -0.1515
  259loPI   C4A 4138   5.631  12.234   8.805 -0.2751  0.0844  0.0169
  259loPI   C5A 4139   5.337  12.414   8.497 -0.0801 -0.1037 -0.1681
  259loPI   C6A 4140   5.242  12.836   8.377  0.2098 -0.2048  0.2334
  259loPI   C1B 4141   5.368  11.685   9.929 -0.1018  0.0740 -0.0958
  259loPI   C2B 4142   5.333  11.690   9.517 -0.2169  0.3049  0.0850
  259loPI   C3B 4143   5.315  12.025   9.112  0.0488  0.2562 -0.0236
  259loPI   C4B 4144   5.271  11.910   8.640 -0.0963 -0.1225  0.1100
  260loPI    C1 4145   9.263   1.752  10.640 -0.0216  0.1460  0.2088
  260loPI    C2 4146   9.316   1.411  10.842  0.0670 -0.0044 -0.0631
  260loPI    C3 4147   9.374   1.763  11.024 -0.2425 -0.1265  0.2833
  260loPI   PO4 4148   9.388   1.804  10.449 -0.0042 -0.0080  0.1867
  260loPI   GL1 4149   9.304   1.805  10.031  0.0042  0.0536  0.0994
  260loPI   GL2 4150   9.294   1.551   9.948 -0.1557  0.1098  0.0066
  260loPI   C1A 4151   9.727   1.790   9.793 -0.3194  0.1310  0.0861
  260loPI   C2A 4152   9.689   1.783   9.283 -0.1428  0.1230  0.2010
  260loPI   C3A 4153   9.617   1.719   8.827 -0.1000  0.2783  0.2631
  260loPI   C4A 4154   9.536   1.614   8.414  0.1502  0.2100 -0.1077
  260loPI   C5A 4155   9.455   1.645   7.991 -0.1216  0.1358  0.1822
  260loPI   C6A 4156   9.591   1.276   7.716  0.0393  0.2506  0.4705
  260loPI   C1B 4157   9.329   1.588   9.536  0.2142  0.3056  0.3050
  260loPI   C2B 4158   9.211   1.442   9.046  0.2290 -0.0628 -0.1441
  260loPI   C3B 4159   9.167   1.372   8.635 -0.2259  0.1522 -0.1060
  260loPI   C4B 4160   9.167   1.217   8.170  0.2695 -0.1263  0.0555
  261loPI    C1 4161  12.406   6.218  10.715  0.1632 -0.0551 -0.0616
  261loPI    C2 4162  12.604   6.192  11.061  0.1234 -0.1998 -0.0488
  261loPI    C3 4163  12.249   6.014  11.021 -0.0971  0.2178 -0.0088
  261loPI   PO4 4164  12.529   6.125  10.511 -0.1647  0.0031 -0.1015
  261loPI   GL1 4165  12.547   6.301   9.974 -0.0705  0.3511 -0.2340
  261loPI   GL2 4166  12.232   6.031  10.107 -0.0606  0.0002 -0.0094
  261loPI   C1A 4167  12.392   6.218   9.568  0.2435 -0.0764 -0.1636
  261loPI   C2A 4168  12.294   6.216   9.055 -0.1749  0.4034  0.1399
  261loPI   C3A 4169  12.273   6.262   8.595 -0.1359  0.1824 -0.0071
  261loPI   C4A 4170  12.324   6.236   8.238  0.1467 -0.0604 -0.1552
  261loPI   C5A 4171  12.539   5.921   8.088 -0.1020  0.0481  0.1794
  261loPI   C6A 4172  12.584   5.514   7.853  0.1601  0.2322 -0.1187
  261loPI   C1B 4173  12.517   5.790   9.800 -0.0750  0.0559 -0.0181
  261loPI   C2B 4174  12.505   5.647   9.352  0.0404  0.0910  0.2545
  261loPI   C3B 4175  12.355   5.738   8.978  0.0080 -0.3500 -0.4367
  261loPI   C4B 4176  12.388   5.796   8.603  0.3123 -0.0463 -0.0588
  262loPI    C1 4177  17.379  14.678  10.873 -0.2026 -0.1050 -0.1343
  262loPI    C2 4178  17.457  14.463  11.201 -0.2456 -0.0729 -0.1029
  262loPI    C3 4179  17.092  14.615  11.144 -0.1615  0.1633 -0.0254
  262loPI   PO4 4180  17.459  14.499  10.663  0.1271 -0.0169 -0.0268
  262loPI   GL1 4181  17.709  14.578  10.357 -0.0913 -0.3489  0.1319
  262loPI   GL2 4182  18.014  14.651  10.347  0.3955 -0.2525  0.0053
  262loPI   C1A 4183  17.643  14.402   9.963 -0.0585  0.1256  0.1763
  262loPI   C2A 4184  17.671  14.407   9.541 -0.1868 -0.0456  0.0702
  262loPI   C3A 4185  17.674  14.439   9.149  0.1846  0.1771  0.1723
  262loPI   C4A 4186  17.815  14.557   8.641  0.0584  0.0221  0.0894
  262loPI   C5A 4187  18.025  14.683   8.246  0.1396  0.0715  0.0534
  262loPI   C6A 4188  18.464  14.570   8.128 -0.2213 -0.0799 -0.1460
  262loPI   C1B 4189  18.109  14.561   9.950 -0.0344  0.1731  0.1488
  262loPI   C2B 4190  18.123  14.630   9.442 -0.3310  0.1778 -0.2839
  262loPI   C3B 4191  18.244  14.650   9.033  0.0670  0.1812 -0.0710
  262loPI   C4B 4192  18.391  14.680   8.649  0.2155 -0.1644 -0.0116
  263loPI    C1 4193   7.047  11.834  10.803 -0.0780  0.0314  0.0594
  263loPI    C2 4194   6.690  11.696  10.919  0.0708 -0.0970  0.3756
  263loPI    C3 4195   6.791  12.076  10.991 -0.0952  0.0101  0.0635
  263loPI   PO4 4196   7.022  11.669  10.556 -0.0251  0.0759  0.1791
  263loPI   GL1 4197   7.013  11.747  10.187 -0.3240  0.0708 -0.0622
  263loPI   GL2 4198   6.759  11.572  10.095  0.0699  0.2174  0.1013
  263loPI   C1A 4199   6.900  11.851   9.693 -0.0305  0.2951 -0.0304
  263loPI   C2A 4200   6.742  11.752   9.228 -0.0002 -0.3353  0.1126
  263loPI   C3A 4201   6.525  11.518   8.940 -0.1181 -0.2701 -0.0401
  263loPI   C4A 4202   6.593  11.461   8.498  0.0325 -0.2728  0.1824
  263loPI   C5A 4203   6.989  11.533   8.348 -0.0372 -0.1448  0.0756
  263loPI   C6A 4204   7.165  11.671   7.942  0.1820 -0.3201  0.0035
  263loPI   C1B 4205   6.514  11.530   9.735  0.0451 -0.1945 -0.2614
  263loPI   C2B 4206   6.271  11.336   9.433 -0.1860 -0.0559 -0.1132
  263loPI   C3B 4207   6.033  11.309   9.070 -0.0439 -0.0004 -0.1546
  263loPI   C4B 4208   5.972  11.349   8.613 -0.1581 -0.2019 -0.1635
  264loPI    C1 4209   2.811   3.846  10.731 -0.2425 -0.2008  0.0236
  264loPI    C2 4210   2.683   4.217  10.657  0.2058 -0.0443  0.0048
  264loPI    C3 4211   2.838   4.127  11.015  0.0887 -0.2184  0.0129
  264loPI   PO4 4212   2.573   3.719  10.658 -0.2594 -0.0576  0.1654
  264loPI   GL1 4213   2.382   3.575  10.300 -0.1585 -0.3051 -0.2726
  264loPI   GL2 4214   2.302   3.304  10.199 -0.0349  0.4531 -0.0078
  264loPI   C1A 4215   2.344   3.738   9.860 -0.2368 -0.2318 -0.1116
  264loPI   C2A 4216   2.204   3.558   9.404  0.1095  0.0344 -0.1572
  264loPI   C3A 4217   2.168   3.342   9.087 -0.0168  0.0170  0.1856
  264loPI   C4A 4218   2.193   3.267   8.739 -0.0104 -0.1195 -0.1243
  264loPI   C5A 4219   2.227   3.051   8.275 -0.1905 -0.0235 -0.1757
  264loPI   C6A 4220   2.255   2.688   8.161 -0.1333  0.0036 -0.3615
  264loPI   C1B 4221   2.166   3.147   9.841  0.0522 -0.2952  0.0785
  264loPI   C2B 4222   2.210   3.000   9.436 -0.0770  0.2277 -0.0653
  264loPI   C3B 4223   2.321   2.864   9.067  0.0202 -0.0976 -0.1881
  264loPI   C4B 4224   2.235   2.764   8.672  0.0946 -0.0423  0.3313
  265loPI    C1 4225  15.366  12.129  11.001 -0.1225  0.1564  0.0516
  265loPI    C2 4226  15.359  11.730  11.019  0.2985  0.1290 -0.2348
  265loPI    C3 4227  15.650  11.933  11.202  0.1092  0.3053 -0.1245
  265loPI   PO4 4228  15.353  12.215  10.740 -0.0319 -0.0435 -0.2748
  265loPI   GL1 4229  15.594  12.165  10.303 -0.1854  0.1815 -0.1369
  265loPI   GL2 4230  15.381  12.331  10.259  0.1053 -0.0730  0.0855
  265loPI   C1A 4231  15.664  12.017   9.916  0.2341  0.2351 -0.1428
  265loPI   C2A 4232  15.433  11.938   9.549  0.1496 -0.1751  0.1273
  265loPI   C3A 4233  15.330  11.792   9.114 -0.1502 -0.0366 -0.0851
  265loPI   C4A 4234  15.402  11.752   8.661 -0.0964  0.1058 -0.2765
  265loPI   C5A 4235  15.601  11.587   8.350  0.0410  0.3127 -0.2827
  265loPI   C6A 4236  16.011  11.406   8.243  0.0814 -0.1066  0.0416
  265loPI   C1B 4237  15.244  12.328   9.833  0.2205 -0.1551  0.1175
  265loPI   C2B 4238  15.452  12.511   9.535 -0.1551 -0.0526  0.1228
  265loPI   C3B 4239  15.799  12.792   9.385 -0.1616  0.1410  0.1786
  265loPI   C4B 4240  16.177  12.968   9.570  0.0884  0.0714  0.1169
  266loPI    C1 4241   7.907  16.315  10.644 -0.0939 -0.0609 -0.0603
  266loPI    C2 4242   8.240  16.464  10.807  0.0594 -0.1472 -0.2900
  266loPI    C3 4243   7.998  16.231  11.024  0.0534  0.0633 -0.0671
  266loPI   PO4 4244   7.878  16.515  10.445 -0.1270  0.1040  0.0966
  266loPI   GL1 4245   7.830  16.479  10.054  0.0380  0.0394  0.1756
  266loPI   GL2 4246   8.001  16.230  10.056 -0.0165 -0.1269  0.0337
  266loPI   C1A 4247   7.569  16.511   9.694 -0.2862 -0.0787  0.1306
  266loPI   C2A 4248   7.306  16.479   9.305 -0.0154  0.0344  0.0708
  266loPI   C3A 4249   7.080  16.388   9.025  0.0039 -0.4294  0.2197
  266loPI   C4A 4250   7.258  16.453   8.618 -0.0947  0.0496  0.1399
  266loPI   C5A 4251   7.481  16.709   8.328  0.2467  0.0364 -0.1149
  266loPI   C6A 4252   7.754  16.948   7.975 -0.1356 -0.0403  0.1018
  266loPI   C1B 4253   7.949  16.147   9.575  0.2216 -0.0396 -0.1413
  266loPI   C2B 4254   7.800  16.179   9.231 -0.2175 -0.1493  0.1319
  266loPI   C3B 4255   7.729  16.193   8.724 -0.2720  0.1538 -0.1327
  266loPI   C4B 4256   7.603  16.164   8.368  0.0990 -0.0055 -0.0652
  267loPI    C1 4257  10.285  17.609  10.684  0.2819 -0.1644  0.0417
  267loPI    C2 4258  10.201  17.225  10.757  0.2335 -0.1613  0.0036
  267loPI    C3 4259  10.372  17.450  11.040  0.1066 -0.1662  0.0845
  267loPI   PO4 4260  10.150  17.719  10.521  0.1617  0.0088  0.1405
  267loPI   GL1 4261  10.047  17.760  10.229  0.0929 -0.1379 -0.2420
  267loPI   GL2 4262   9.782  17.667  10.063  0.0092 -0.1310 -0.2690
  267loPI   C1A 4263  10.281  17.726   9.766 -0.1373  0.1266 -0.3173
  267loPI   C2A 4264  10.234  17.619   9.410 -0.2096  0.0691 -0.3013
  267loPI   C3A 4265  10.323  17.405   9.077  0.1042 -0.1868  0.3526
  267loPI   C4A 4266  10.213  17.399   8.638  0.0408  0.1035 -0.0122
  267loPI   C5A 4267  10.162  17.625   8.325  0.2097  0.1177 -0.0419
  267loPI   C6A 4268  10.140  18.185   8.101  0.3481 -0.2187  0.0329
  267loPI   C1B 4269   9.827  17.863   9.656  0.4329  0.0374  0.2430
  267loPI   C2B 4270   9.808  17.791   9.269  0.0088  0.0528 -0.1122
  267loPI   C3B 4271   9.726  17.679   8.817  0.3215 -0.1712 -0.0816
  267loPI   C4B 4272   9.577  17.597   8.391  0.2050  0.1816  0.1680
  268loPI    C1 4273   9.520   8.612  10.720  0.1276 -0.0117 -0.1155
  268loPI    C2 4274   9.302   8.619  11.055 -0.0396 -0.0550 -0.2224
  268loPI    C3 4275   9.671   8.774  11.053 -0.0057 -0.1295  0.0034
  268loPI   PO4 4276   9.414   8.603  10.464 -0.0071  0.1646  0.0530
  268loPI   GL1 4277   9.230   8.428  10.173  0.1687 -0.0919 -0.3192
  268loPI   GL2 4278   9.538   8.734  10.029 -0.2610 -0.0024  0.0302
  268loPI   C1A 4279   9.194   8.353   9.760  0.3228  0.1030  0.1196
  268loPI   C2A 4280   9.250   8.407   9.351 -0.1424 -0.0835 -0.0322
  268loPI   C3A 4281   9.293   8.421   8.928  0.0711 -0.0106 -0.1337
  268loPI   C4A 4282   9.220   8.382   8.614 -0.1386 -0.2463  0.0081
  268loPI   C5A 4283   9.045   8.248   8.225  0.2499 -0.0744 -0.0732
  268loPI   C6A 4284   8.788   7.844   8.277 -0.0821 -0.1773  0.1431
  268loPI   C1B 4285   9.591   8.699   9.610  0.1414 -0.2720  0.0253
  268loPI   C2B 4286   9.592   8.738   9.143 -0.0783  0.0570  0.2965
  268loPI   C3B 4287   9.577   8.788   8.726 -0.3772  0.0046 -0.2607
  268loPI   C4B 4288   9.403   8.767   8.372  0.2073  0.0760  0.3988
  269loPI    C1 4289   5.385   2.811  10.951 -0.1362 -0.0151  0.0073
  269loPI    C2 4290   5.183   3.006  11.236 -0.0811 -0.0744  0.0872
  269loPI    C3 4291   5.376   3.211  10.953  0.1363 -0.0067  0.2815
  269loPI   PO4 4292   5.258   2.658  10.729  0.2505 -0.0637 -0.0166
  269loPI   GL1 4293   5.205   2.645  10.271  0.0650  0.1073 -0.1986
  269loPI   GL2 4294   4.896   2.698  10.258 -0.0132  0.0176 -0.2859
  269loPI   C1A 4295   5.227   2.504   9.758  0.0010 -0.0327 -0.0389
  269loPI   C2A 4296   5.288   2.507   9.296 -0.0178  0.1388 -0.0246
  269loPI   C3A 4297   4.936   2.590   9.077  0.0017 -0.3088 -0.0069
  269loPI   C4A 4298   4.783   2.677   8.671  0.0084 -0.0091 -0.1000
  269loPI   C5A 4299   4.627   2.690   8.324  0.0903  0.0151  0.0454
  269loPI   C6A 4300   4.350   2.368   8.103  0.0718 -0.0238  0.1082
  269loPI   C1B 4301   4.781   2.381   9.915  0.2469 -0.3036 -0.1582
  269loPI   C2B 4302   4.938   2.107   9.590 -0.0277  0.1295 -0.0690
  269loPI   C3B 4303   4.961   2.044   9.248 -0.1933 -0.0308 -0.0591
  269loPI   C4B 4304   4.875   2.124   8.923  0.0259 -0.1452 -0.0056
  270loPI    C1 4305   1.407  16.471  10.863  0.1783 -0.0240  0.0442
  270loPI    C2 4306   1.505  16.560  11.241 -0.0939 -0.0285  0.1182
  270loPI    C3 4307   1.255  16.258  11.165 -0.0088 -0.0536 -0.0698
  270loPI   PO4 4308   1.639  16.376  10.696 -0.0800  0.1524 -0.2042
  270loPI   GL1 4309   1.606  16.171  10.382  0.1830 -0.0997 -0.0586
  270loPI   GL2 4310   1.901  16.122  10.267 -0.1038 -0.2102  0.0348
  270loPI   C1A 4311   1.559  16.445  10.029  0.1200  0.0649 -0.0074
  270loPI   C2A 4312   1.409  16.430   9.586  0.1175  0.4512  0.2845
  270loPI   C3A 4313   1.397  16.446   9.120 -0.1598 -0.0344  0.0223
  270loPI   C4A 4314   1.456  16.497   8.705  0.1031  0.2736  0.1040
  270loPI   C5A 4315   1.494  16.680   8.338 -0.2568 -0.0877 -0.3845
  270loPI   C6A 4316   1.631  17.081   8.131  0.1771  0.0836  0.1256
  270loPI   C1B 4317   1.795  16.114   9.809 -0.1929  0.0248  0.0222
  270loPI   C2B 4318   1.698  16.095   9.344  0.1863  0.2469 -0.0692
  270loPI   C3B 4319   1.798  16.196   8.934  0.1715  0.3447  0.3361
  270loPI   C4B 4320   2.077  15.990   8.559  0.0377 -0.0792 -0.5107
  271loPI    C1 4321  12.193   2.858  10.434  0.0951 -0.0432 -0.0735
  271loPI    C2 4322  12.433   2.834  10.754  0.0662  0.0745 -0.0425
  271loPI    C3 4323  12.119   2.588  10.720  0.0677  0.0636  0.0213
  271loPI   PO4 4324  12.334   2.836  10.178  0.0593 -0.0674 -0.0868
  271loPI   GL1 4325  12.390   2.719   9.811 -0.1055  0.0437 -0.1233
  271loPI   GL2 4326  12.611   2.901   9.645 -0.3053 -0.0930 -0.1555
  271loPI   C1A 4327  12.157   2.533   9.457 -0.1088  0.3886 -0.6061
  271loPI   C2A 4328  12.014   2.488   9.032 -0.0714 -0.3074 -0.0596
  271loPI   C3A 4329  11.779   2.506   8.694 -0.2732  0.1735  0.1696
  271loPI   C4A 4330  11.533   2.774   8.422 -0.1050  0.1125  0.0603
  271loPI   C5A 4331  11.701   3.038   8.102  0.0713 -0.2419 -0.1705
  271loPI   C6A 4332  12.154   3.231   8.105  0.0997  0.3750  0.1411
  271loPI   C1B 4333  12.495   2.804   9.234  0.1681 -0.0038 -0.1357
  271loPI   C2B 4334  12.502   2.698   8.902  0.3691  0.0342  0.0570
  271loPI   C3B 4335  12.273   2.440   8.614  0.1383 -0.1338  0.1001
  271loPI   C4B 4336  12.009   2.253   8.357 -0.1032  0.2800 -0.2985
  272loPI    C1 4337  17.575   7.720  10.687  0.1408 -0.2180 -0.1969
  272loPI    C2 4338  17.564   7.380  10.897  0.2464 -0.1135 -0.0194
  272loPI    C3 4339  17.904   7.589  10.872  0.1107  0.1275  0.1126
  272loPI   PO4 4340  17.517   7.648  10.382 -0.0244  0.0384  0.0435
  272loPI   GL1 4341  17.303   7.670   9.944  0.0569  0.1095  0.0362
  272loPI   GL2 4342  17.452   7.340   9.928  0.0003 -0.1253  0.1631
  272loPI   C1A 4343  17.177   7.811   9.484  0.1029  0.1037 -0.2944
  272loPI   C2A 4344  17.190   7.777   9.123  0.1946 -0.3995 -0.0682
  272loPI   C3A 4345  17.141   7.856   8.720 -0.3031 -0.1911  0.0689
  272loPI   C4A 4346  17.256   7.794   8.216  0.1859 -0.3072  0.0670
  272loPI   C5A 4347  16.970   7.939   7.856 -0.0384  0.1072 -0.3841
  272loPI   C6A 4348  16.865   7.710   7.529 -0.1279 -0.0519 -0.0498
  272loPI   C1B 4349  17.300   7.313   9.505 -0.1632  0.0116 -0.0048
  272loPI   C2B 4350  17.283   7.288   9.066 -0.0003 -0.0284 -0.0242
  272loPI   C3B 4351  17.349   7.331   8.609  0.3520 -0.0669  0.2836
  272loPI   C4B 4352  17.214   7.290   8.180  0.1072 -0.1728  0.2067
  273loPI    C1 4353   4.563   3.551  10.687  0.0705  0.1542 -0.0572
  273loPI    C2 4354   4.435   3.272  10.944  0.1155  0.0017 -0.1984
  273loPI    C3 4355   4.223   3.607  10.889  0.0811  0.0135  0.0005
  273loPI   PO4 4356   4.568   3.388  10.479 -0.0713  0.1000  0.0262
  273loPI   GL1 4357   4.746   3.194  10.204 -0.1631 -0.0615 -0.1627
  273loPI   GL2 4358   5.104   3.129  10.021  0.0588 -0.1015  0.1312
  273loPI   C1A 4359   4.525   3.037   9.907  0.1128  0.0951  0.1153
  273loPI   C2A 4360   4.455   2.896   9.466 -0.1455 -0.0582 -0.3029
  273loPI   C3A 4361   4.455   2.885   9.043 -0.1472 -0.2057 -0.3167
  273loPI   C4A 4362   4.514   3.069   8.638 -0.0412 -0.0423  0.1118
  273loPI   C5A 4363   4.333   3.091   8.276 -0.2668 -0.0770 -0.0437
  273loPI   C6A 4364   4.033   2.926   8.112  0.0975  0.0142 -0.0489
  273loPI   C1B 4365   4.987   2.990   9.684  0.2086  0.1074 -0.3568
  273loPI   C2B 4366   4.914   3.067   9.225  0.0420 -0.1192 -0.1260
  273loPI   C3B 4367   4.976   3.260   8.776  0.0883 -0.0978 -0.0513
  273loPI   C4B 4368   4.816   3.455   8.357  0.0620  0.1630  0.0303
  274loPI    C1 4369   5.058   6.116  11.075  0.1976 -0.1486 -0.1267
  274loPI    C2 4370   4.695   6.021  10.935  0.0829  0.1427 -0.0354
  274loPI    C3 4371   4.804   5.906  11.302  0.0547  0.1191 -0.0345
  274loPI   PO4 4372   5.135   6.317  10.851 -0.1882 -0.1892  0.1319
  274loPI   GL1 4373   5.092   6.595  10.521 -0.0604 -0.1659  0.0926
  274loPI   GL2 4374   5.432   6.549  10.400  0.0332  0.3114  0.1315
  274loPI   C1A 4375   5.180   6.752  10.066 -0.0938 -0.1882 -0.1918
  274loPI   C2A 4376   5.156   6.883   9.641 -0.2942 -0.0123 -0.1478
  274loPI   C3A 4377   5.329   6.954   9.253 -0.0175 -0.2368  0.0506
  274loPI   C4A 4378   5.380   6.814   8.682 -0.0255  0.1059 -0.1236
  274loPI   C5A 4379   5.387   7.187   8.405  0.2295  0.0315 -0.0957
  274loPI   C6A 4380   5.448   7.376   7.984  0.1575  0.0051  0.1240
  274loPI   C1B 4381   5.364   6.431   9.843  0.0323 -0.1941  0.0610
  274loPI   C2B 4382   5.436   6.479   9.405  0.2318 -0.1045 -0.0605
  274loPI   C3B 4383   5.473   6.394   8.956  0.0529  0.0116  0.1518
  274loPI   C4B 4384   5.457   6.378   8.524 -0.2227 -0.0039  0.1738
  275loPI    C1 4385   9.875   6.472  10.983 -0.0193  0.4416 -0.0419
  275loPI    C2 4386   9.679   6.495  11.332  0.1102 -0.0047  0.0680
  275loPI    C3 4387  10.067   6.592  11.313  0.1159 -0.0292  0.0595
  275loPI   PO4 4388   9.758   6.630  10.788 -0.1469  0.1299 -0.0633
  275loPI   GL1 4389   9.740   6.547  10.336  0.1095 -0.0167  0.2016
  275loPI   GL2 4390   9.571   6.439  10.170 -0.0536 -0.1841 -0.0614
  275loPI   C1A 4391   9.959   6.807  10.030 -0.3179 -0.0392 -0.5797
  275loPI   C2A 4392  10.090   6.810   9.657 -0.2085 -0.1263  0.0500
  275loPI   C3A 4393  10.033   6.708   9.224 -0.0292 -0.0977 -0.1842
  275loPI   C4A 4394  10.024   6.677   8.780 -0.1089 -0.2285 -0.0415
  275loPI   C5A 4395   9.902   6.503   8.352  0.1135 -0.0981  0.0744
  275loPI   C6A 4396  10.233   6.421   7.987  0.1330  0.0073  0.0228
  275loPI   C1B 4397   9.542   6.492   9.734 -0.0959  0.1263  0.0473
  275loPI   C2B 4398   9.641   6.435   9.439 -0.0551  0.0864  0.1815
  275loPI   C3B 4399   9.634   6.450   9.107 -0.1960 -0.3319  0.1373
  275loPI   C4B 4400   9.476   6.418   8.743 -0.0535 -0.0358  0.1326
  276loPI    C1 4401  13.886  14.527  10.688 -0.1027 -0.1871 -0.0777
  276loPI    C2 4402  13.664  14.406  10.998 -0.1172 -0.4088 -0.1728
  276loPI    C3 4403  14.055  14.322  10.986 -0.0081  0.0418  0.0283
  276loPI   PO4 4404  13.845  14.435  10.494  0.1108 -0.0592  0.1723
  276loPI   GL1 4405  13.954  14.660  10.050 -0.1063  0.1675  0.1181
  276loPI   GL2 4406  13.886  14.294   9.933  0.5635  0.1453  0.1957
  276loPI   C1A 4407  13.974  14.674   9.609  0.0201 -0.0129 -0.4902
  276loPI   C2A 4408  13.920  14.505   9.235  0.0887  0.0331 -0.0379
  276loPI   C3A 4409  13.849  14.264   8.832  0.0223  0.2288  0.2142
  276loPI   C4A 4410  13.774  14.094   8.381 -0.1176 -0.0259 -0.0100
  276loPI   C5A 4411  13.427  13.771   8.274  0.2067  0.0357  0.1999
  276loPI   C6A 4412  13.406  13.310   8.124  0.0503 -0.0618  0.0430
  276loPI   C1B 4413  13.767  14.153   9.605 -0.2712  0.0547  0.2357
  276loPI   C2B 4414  13.773  13.992   9.206 -0.0323  0.0156  0.2408
  276loPI   C3B 4415  14.000  13.709   8.855  0.0334 -0.2793 -0.1651
  276loPI   C4B 4416  13.892  13.605   8.517 -0.0034 -0.1047  0.1676
  277loPI    C1 4417   9.557  15.932  10.624 -0.0043  0.1673 -0.2458
  277loPI    C2 4418   9.824  16.187  10.469 -0.0003  0.2716 -0.0703
  277loPI    C3 4419   9.883  16.032  10.833 -0.0635  0.1128 -0.1266
  277loPI   PO4 4420   9.347  16.097  10.609  0.0364 -0.3767 -0.1570
  277loPI   GL1 4421   9.030  16.016  10.205 -0.1178 -0.0531 -0.0422
  277loPI   GL2 4422   9.379  15.889  10.011  0.1194 -0.1277  0.2192
  277loPI   C1A 4423   8.963  15.975   9.742  0.0250  0.3361 -0.1882
  277loPI   C2A 4424   8.884  16.018   9.382 -0.0943  0.4074 -0.2049
  277loPI   C3A 4425   9.000  16.147   8.921  0.2730  0.3586  0.0626
  277loPI   C4A 4426   8.929  15.871   8.442 -0.1254 -0.4492  0.0438
  277loPI   C5A 4427   8.665  15.723   8.114  0.1817 -0.1248 -0.0382
  277loPI   C6A 4428   8.239  15.716   8.012  0.1199 -0.0703 -0.0634
  277loPI   C1B 4429   9.545  15.854   9.595 -0.3043 -0.0345 -0.1437
  277loPI   C2B 4430   9.436  15.923   9.179  0.0672 -0.2368  0.0817
  277loPI   C3B 4431   9.367  15.822   8.681 -0.1466  0.2276  0.0528
  277loPI   C4B 4432   9.485  15.425   8.425 -0.1335 -0.4105 -0.3395
  278loPI    C1 4433  13.927   1.671  10.391  0.0831 -0.1019  0.0316
  278loPI    C2 4434  13.971   2.054  10.495 -0.0888 -0.0947  0.0795
  278loPI    C3 4435  13.775   1.802  10.736 -0.2846 -0.1315 -0.1149
  278loPI   PO4 4436  14.072   1.580  10.252  0.1097 -0.1504  0.2000
  278loPI   GL1 4437  14.237   1.188  10.044  0.0573 -0.0727 -0.0851
  278loPI   GL2 4438  13.970   1.248   9.874 -0.4128 -0.0341 -0.1260
  278loPI   C1A 4439  14.393   0.991   9.641  0.4207  0.0313  0.1004
  278loPI   C2A 4440  14.473   1.027   9.226 -0.0108 -0.0683 -0.0476
  278loPI   C3A 4441  14.499   1.016   8.783  0.1150 -0.0072 -0.4764
  278loPI   C4A 4442  14.322   1.028   8.376  0.0138 -0.1997  0.1012
  278loPI   C5A 4443  14.552   1.004   7.976 -0.0127 -0.0626  0.1035
  278loPI   C6A 4444  14.887   0.636   7.938 -0.1492 -0.0376 -0.1860
  278loPI   C1B 4445  14.044   1.305   9.427 -0.0885  0.0922 -0.0317
  278loPI   C2B 4446  14.118   1.340   9.104  0.3940  0.2031  0.1727
  278loPI   C3B 4447  14.103   1.313   8.682  0.1694 -0.2573 -0.0341
  278loPI   C4B 4448  14.096   1.471   8.304  0.1911  0.4018  0.1227
  279loPI    C1 4449  18.077  14.793  10.987  0.0016  0.0452 -0.1345
  279loPI    C2 4450  18.090  14.496  11.255  0.2313  0.0481 -0.1411
  279loPI    C3 4451  17.887  14.448  10.914  0.3702 -0.1492 -0.1978
  279loPI   PO4 4452  18.330  14.906  11.081 -0.0289 -0.2175  0.0989
  279loPI   GL1 4453  18.414  15.171  10.766 -0.3724  0.1725 -0.0859
  279loPI   GL2 4454  18.166  15.161  10.482  0.0101  0.0575  0.0700
  279loPI   C1A 4455  18.449  15.518  10.401 -0.1608  0.3291  0.0390
  279loPI   C2A 4456  18.455  15.563  10.048 -0.0663  0.0221 -0.0889
  279loPI   C3A 4457  18.377  15.592   9.634  0.2104 -0.3116 -0.2777
  279loPI   C4A 4458  18.345  15.655   9.163 -0.2638 -0.4608 -0.1337
  279loPI   C5A 4459  18.418  15.619   8.760  0.0368  0.3983  0.0583
  279loPI   C6A 4460  18.537  15.369   8.408  0.3145  0.1377  0.0052
  279loPI   C1B 4461  18.327  15.066  10.081  0.1011  0.1679  0.1401
  279loPI   C2B 4462  18.276  15.072   9.618  0.3051 -0.0197  0.1895
  279loPI   C3B 4463  18.271  15.115   9.255 -0.0192 -0.2732 -0.0666
  279loPI   C4B 4464  18.412  15.121   8.872  0.0319 -0.1043  0.0468
  280loPI    C1 4465  15.995   0.104  10.758 -0.0031 -0.1992  0.0724
  280loPI    C2 4466  15.787   0.386  10.951  0.1765 -0.0429  0.0397
  280loPI    C3 4467  15.687   0.001  10.993 -0.0117  0.0174  0.1584
  280loPI   PO4 4468  15.984   0.167  10.467  0.0349 -0.1076 -0.0670
  280loPI   GL1 4469  16.069  -0.156  10.184 -0.1332  0.0918  0.1247
  280loPI   GL2 4470  16.130  -0.449  10.150  0.0746  0.0004  0.1591
  280loPI   C1A 4471  16.055   0.152   9.770  0.1778  0.2620  0.1631
  280loPI   C2A 4472  16.105   0.058   9.337  0.1340  0.1716  0.1362
  280loPI   C3A 4473  16.150   0.063   8.905  0.1225 -0.0567 -0.0532
  280loPI   C4A 4474  16.186   0.029   8.514 -0.2151  0.0881  0.3175
  280loPI   C5A 4475  15.948   0.071   8.102 -0.1142 -0.1768 -0.3995
  280loPI   C6A 4476  15.861  -0.314   7.810 -0.2514  0.0305  0.0840
  280loPI   C1B 4477  16.099  -0.320   9.684 -0.0859  0.0132 -0.6369
  280loPI   C2B 4478  16.089  -0.410   9.214 -0.1656 -0.3291 -0.0304
  280loPI   C3B 4479  16.019  -0.487   8.802 -0.1002  0.1204  0.2773
  280loPI   C4B 4480  16.017  -0.450   8.349  0.0653  0.0831  0.0703
  281loPI    C1 4481  15.430   2.014  10.505 -0.1912 -0.2152  0.1831
  281loPI    C2 4482  15.653   2.304  10.667 -0.2189 -0.0280 -0.1061
  281loPI    C3 4483  15.698   1.926  10.789  0.0336  0.0528  0.0592
  281loPI   PO4 4484  15.276   2.133  10.298  0.0795  0.2223  0.1712
  281loPI   GL1 4485  15.353   2.055   9.922  0.1696  0.0674 -0.3374
  281loPI   GL2 4486  15.428   1.747   9.998  0.1218  0.0171  0.0574
  281loPI   C1A 4487  15.184   2.110   9.396 -0.0129  0.0258  0.2146
  281loPI   C2A 4488  15.217   2.345   9.079  0.2749  0.0283  0.1931
  281loPI   C3A 4489  15.221   2.783   8.891 -0.1549  0.2297 -0.0210
  281loPI   C4A 4490  15.155   2.854   8.423 -0.2920  0.1251 -0.2745
  281loPI   C5A 4491  15.066   2.741   8.000  0.2238  0.0728 -0.0615
  281loPI   C6A 4492  14.895   2.441   7.830 -0.0566 -0.0801 -0.0566
  281loPI   C1B 4493  15.517   1.734   9.583  0.1230  0.0144 -0.0492
  281loPI   C2B 4494  15.463   1.719   9.099  0.1334  0.0193  0.2888
  281loPI   C3B 4495  15.512   1.691   8.749  0.2028  0.0918 -0.2491
  281loPI   C4B 4496  15.512   1.799   8.257 -0.0094  0.5092 -0.1766
  282loPI    C1 4497   0.818  15.052  11.278  0.1282  0.1349 -0.0310
  282loPI    C2 4498   1.103  15.107  11.553  0.1449 -0.1205  0.0049
  282loPI    C3 4499   1.043  14.744  11.397  0.0708  0.0027 -0.2589
  282loPI   PO4 4500   0.840  15.145  11.107 -0.1262  0.2319 -0.0678
  282loPI   GL1 4501   1.083  14.990  10.737 -0.0807 -0.5111  0.2441
  282loPI   GL2 4502   0.785  15.200  10.639 -0.0755 -0.1304  0.2270
  282loPI   C1A 4503   1.051  14.794  10.395 -0.0830 -0.0657 -0.0208
  282loPI   C2A 4504   0.996  14.588  10.025 -0.1245  0.0875 -0.1226
  282loPI   C3A 4505   0.904  14.501   9.540 -0.3652  0.0580  0.0971
  282loPI   C4A 4506   1.025  14.450   9.093  0.1984  0.1991  0.0997
  282loPI   C5A 4507   1.016  14.440   8.709 -0.1093  0.0396 -0.2543
  282loPI   C6A 4508   1.109  14.571   8.342 -0.1056 -0.1950 -0.0923
  282loPI   C1B 4509   0.665  15.191  10.179  0.1683  0.0645  0.1519
  282loPI   C2B 4510   0.688  15.279   9.676  0.1088  0.1519  0.1037
  282loPI   C3B 4511   0.682  15.301   9.220 -0.0440 -0.1315  0.1969
  282loPI   C4B 4512   0.799  15.341   8.766 -0.1945 -0.0609  0.3530
  283loPI    C1 4513   3.588  17.650  11.141 -0.1768 -0.1887 -0.0543
  283loPI    C2 4514   3.585  17.430  11.475 -0.0040 -0.0725  0.0253
  283loPI    C3 4515   3.276  17.670  11.390  0.0064 -0.0088  0.1647
  283loPI   PO4 4516   3.592  17.501  10.963  0.1177 -0.0646  0.0174
  283loPI   GL1 4517   3.822  17.533  10.662  0.2722 -0.0147  0.1197
  283loPI   GL2 4518   3.713  17.373  10.411  0.1007 -0.3307 -0.1652
  283loPI   C1A 4519   4.063  17.765  10.345  0.3450  0.1446  0.0425
  283loPI   C2A 4520   3.986  17.842   9.953 -0.1134 -0.0241  0.1990
  283loPI   C3A 4521   3.962  18.063   9.561  0.1903 -0.2095 -0.0550
  283loPI   C4A 4522   3.974  17.892   9.149 -0.1155  0.0612 -0.1432
  283loPI   C5A 4523   4.102  17.911   8.677  0.0301  0.1827 -0.3154
  283loPI   C6A 4524   3.872  17.872   8.319 -0.0735  0.0779  0.2328
  283loPI   C1B 4525   3.506  17.314   9.929 -0.1807 -0.1215 -0.0406
  283loPI   C2B 4526   3.444  17.203   9.440 -0.1157  0.0826  0.0423
  283loPI   C3B 4527   3.324  17.200   9.050 -0.0402 -0.1675  0.0178
  283loPI   C4B 4528   3.354  17.149   8.648 -0.2674  0.1744 -0.3604
  284loPI    C1 4529  14.216  14.123  10.579 -0.0338 -0.0884 -0.0300
  284loPI    C2 4530  14.254  13.726  10.604 -0.0004 -0.0849 -0.0272
  284loPI    C3 4531  14.439  13.963  10.869  0.0472 -0.0642 -0.0789
  284loPI   PO4 4532  14.302  14.172  10.297 -0.0182 -0.2139 -0.0191
  284loPI   GL1 4533  14.596  14.089  10.003  0.1220 -0.0678 -0.2363
  284loPI   GL2 4534  14.344  14.162   9.786  0.1639  0.0014  0.1837
  284loPI   C1A 4535  14.770  14.332   9.725 -0.2273  0.6060  0.1121
  284loPI   C2A 4536  14.914  14.553   9.413  0.1097 -0.3501 -0.1814
  284loPI   C3A 4537  14.876  14.516   9.038 -0.0195  0.1520 -0.0383
  284loPI   C4A 4538  14.625  14.701   8.728  0.1545  0.0549 -0.2588
  284loPI   C5A 4539  14.406  14.916   8.491  0.0152 -0.0729  0.3041
  284loPI   C6A 4540  14.116  14.883   8.278 -0.1955 -0.0678 -0.0343
  284loPI   C1B 4541  14.351  14.310   9.407  0.1252  0.3193  0.0194
  284loPI   C2B 4542  14.337  14.342   8.926 -0.1683 -0.0628 -0.1440
  284loPI   C3B 4543  14.221  14.453   8.497 -0.1401  0.0612  0.0694
  284loPI   C4B 4544  14.083  14.385   8.062  0.1433  0.1257  0.1462
  285loPI    C1 4545   8.942   3.981  10.648 -0.1661 -0.1075  0.1529
  285loPI    C2 4546   9.333   3.970  10.733 -0.0488  0.2549 -0.3006
  285loPI    C3 4547   9.068   4.053  11.021  0.1917 -0.1098  0.0364
  285loPI   PO4 4548   8.949   4.180  10.397  0.1584  0.0528  0.2630
  285loPI   GL1 4549   9.031   4.186  10.024 -0.1338  0.3977 -0.0901
  285loPI   GL2 4550   8.744   4.020   9.954  0.3699 -0.1694  0.0038
  285loPI   C1A 4551   8.995   4.139   9.599 -0.1795 -0.0006  0.2263
  285loPI   C2A 4552   9.053   4.100   9.244  0.0543  0.0200  0.0794
  285loPI   C3A 4553   9.001   4.113   8.867  0.3568  0.1312  0.1227
  285loPI   C4A 4554   9.156   4.170   8.444  0.0758  0.2073 -0.1084
  285loPI   C5A 4555   9.381   4.160   8.176  0.1626  0.0500  0.2452
  285loPI   C6A 4556   9.714   4.096   8.013  0.0546 -0.3319 -0.0568
  285loPI   C1B 4557   8.612   3.806   9.583 -0.2621 -0.1189  0.0380
  285loPI   C2B 4558   8.602   3.752   9.187  0.0360 -0.1447  0.2929
  285loPI   C3B 4559   8.518   3.688   8.799 -0.1097 -0.2208 -0.0303
  285loPI   C4B 4560   8.521   3.689   8.409 -0.1219  0.0518  0.4565
  286loPI    C1 4561   2.259   4.405  10.463  0.0475  0.0396  0.0258
  286loPI    C2 4562   2.374   4.075  10.269  0.0439  0.1538 -0.1742
  286loPI    C3 4563   2.187   4.045  10.621  0.1323 -0.0529 -0.1429
  286loPI   PO4 4564   2.221   4.595  10.253  0.0962  0.1293  0.0665
  286loPI   GL1 4565   2.377   4.641   9.908 -0.0111 -0.2603 -0.2854
  286loPI   GL2 4566   2.613   4.441   9.883  0.2059  0.0148 -0.1181
  286loPI   C1A 4567   2.322   4.681   9.474 -0.0779  0.0454  0.0588
  286loPI   C2A 4568   2.512   4.628   9.114  0.1082 -0.0909  0.1222
  286loPI   C3A 4569   2.526   4.529   8.649  0.1949 -0.2196  0.1581
  286loPI   C4A 4570   2.339   4.586   8.278  0.0132 -0.2626  0.1929
  286loPI   C5A 4571   2.427   4.770   7.842  0.0439  0.0063  0.0534
  286loPI   C6A 4572   2.096   4.974   7.625 -0.3938  0.1636  0.0005
  286loPI   C1B 4573   2.616   4.283   9.556 -0.1707 -0.3157 -0.3499
  286loPI   C2B 4574   2.845   4.301   9.244 -0.2776  0.3413 -0.3817
  286loPI   C3B 4575   2.749   4.053   8.893  0.3492 -0.0141 -0.0854
  286loPI   C4B 4576   2.537   4.083   8.444 -0.0141  0.0088 -0.0159
  287loPI    C1 4577   5.526   1.411  10.911 -0.2587  0.1321 -0.1535
  287loPI    C2 4578   5.745   1.722  10.787 -0.0950  0.0769 -0.0074
  287loPI    C3 4579   5.558   1.736  11.141  0.1421 -0.0961  0.1278
  287loPI   PO4 4580   5.421   1.355  10.606  0.0443  0.1137 -0.1623
  287loPI   GL1 4581   5.494   1.102  10.363 -0.1839 -0.1192  0.0379
  287loPI   GL2 4582   5.129   1.089  10.294  0.4101 -0.0212  0.0641
  287loPI   C1A 4583   5.754   1.070   9.940 -0.1528  0.1270 -0.2078
  287loPI   C2A 4584   5.695   1.143   9.473 -0.1247  0.2072 -0.3900
  287loPI   C3A 4585   5.642   1.286   8.994  0.2310  0.0397  0.1761
  287loPI   C4A 4586   5.732   1.642   8.804 -0.1426 -0.0745 -0.0515
  287loPI   C5A 4587   5.808   2.034   8.670 -0.0462 -0.2393 -0.2770
  287loPI   C6A 4588   6.055   2.414   8.638 -0.2256  0.2582  0.0214
  287loPI   C1B 4589   5.313   1.191   9.889  0.1463  0.1490 -0.0873
  287loPI   C2B 4590   5.178   1.257   9.404  0.0878  0.1824 -0.0675
  287loPI   C3B 4591   5.169   1.232   9.064  0.0164 -0.2846  0.0312
  287loPI   C4B 4592   5.212   0.976   8.678 -0.2144 -0.4377  0.3879
  288loPI    C1 4593   8.795   3.490  10.586 -0.1715  0.1956 -0.0289
  288loPI    C2 4594   8.449   3.304  10.659 -0.1146  0.0815 -0.0478
  288loPI    C3 4595   8.655   3.469  10.960 -0.0758 -0.0443 -0.0048
  288loPI   PO4 4596   8.700   3.629  10.305 -0.1565  0.0587 -0.3778
  288loPI   GL1 4597   8.828   3.457   9.905  0.1894  0.3727  0.0343
  288loPI   GL2 4598   9.022   3.640   9.874 -0.0570 -0.0965 -0.0045
  288loPI   C1A 4599   9.036   3.260   9.373  0.0637 -0.1533  0.0900
  288loPI   C2A 4600   9.085   3.025   8.968 -0.3625  0.1856  0.3861
  288loPI   C3A 4601   9.038   3.188   8.544 -0.0660  0.1617 -0.0831
  288loPI   C4A 4602   8.847   3.331   8.165 -0.2077  0.0656  0.0234
  288loPI   C5A 4603   8.501   3.484   7.935 -0.0520  0.0720  0.0306
  288loPI   C6A 4604   8.324   3.494   7.546 -0.0807 -0.0251  0.1040
  288loPI   C1B 4605   9.171   3.693   9.464 -0.2760  0.0598  0.0883
  288loPI   C2B 4606   9.079   3.552   9.020  0.1137 -0.2137  0.2430
  288loPI   C3B 4607   9.052   3.697   8.553 -0.1366  0.0483 -0.0741
  288loPI   C4B 4608   9.108   3.772   8.058  0.3332 -0.1882  0.0626
  289loPI    C1 4609   1.233  14.264  11.327 -0.2645  0.1797 -0.0863
  289loPI    C2 4610   1.173  14.012  11.631  0.0368 -0.0135 -0.1834
  289loPI    C3 4611   1.226  14.402  11.703 -0.1743 -0.0144 -0.0123
  289loPI   PO4 4612   1.334  14.125  11.118 -0.1618 -0.0508 -0.2492
  289loPI   GL1 4613   1.223  13.992  10.717  0.2033  0.1772 -0.0017
  289loPI   GL2 4614   1.022  13.928  10.470 -0.1881  0.0790 -0.0000
  289loPI   C1A 4615   1.363  14.223  10.261  0.1293  0.1252 -0.1700
  289loPI   C2A 4616   1.342  14.247   9.754 -0.3491  0.1327 -0.1612
  289loPI   C3A 4617   1.265  14.128   9.380  0.2069 -0.0687 -0.0459
  289loPI   C4A 4618   1.385  14.152   8.930 -0.1713  0.2177  0.0252
  289loPI   C5A 4619   1.549  14.014   8.470 -0.0012  0.0746  0.2717
  289loPI   C6A 4620   1.655  13.711   8.171 -0.1163  0.0475  0.2636
  289loPI   C1B 4621   0.890  14.082  10.088 -0.1333 -0.1800 -0.0550
  289loPI   C2B 4622   0.819  14.032   9.672  0.1225  0.0442 -0.1329
  289loPI   C3B 4623   0.826  13.961   9.239 -0.1194 -0.0730  0.0148
  289loPI   C4B 4624   0.914  13.980   8.803  0.1959 -0.1925  0.2267
  290loPI    C1 4625   2.551  15.829  11.023  0.0203  0.0369  0.0377
  290loPI    C2 4626   2.507  16.223  10.973  0.0388  0.0852  0.3778
  290loPI    C3 4627   2.873  16.066  11.007  0.0698 -0.0507 -0.3938
  290loPI   PO4 4628   2.455  15.729  10.827  0.0838  0.0779  0.0634
  290loPI   GL1 4629   2.536  15.938  10.447 -0.0920 -0.1005  0.4193
  290loPI   GL2 4630   2.711  15.924  10.361 -0.0533 -0.0842  0.1259
  290loPI   C1A 4631   2.932  16.238  10.136  0.1457 -0.1787  0.2259
  290loPI   C2A 4632   3.047  16.144   9.673  0.2612 -0.2315 -0.0181
  290loPI   C3A 4633   3.040  16.063   9.205  0.3136  0.1968 -0.1861
  290loPI   C4A 4634   3.182  16.239   8.856 -0.2569  0.3091 -0.0394
  290loPI   C5A 4635   3.298  16.094   8.409  0.0649  0.1014 -0.0572
  290loPI   C6A 4636   3.604  16.032   8.043 -0.2216  0.1220 -0.3500
  290loPI   C1B 4637   2.725  15.792   9.924  0.1130  0.0175  0.4079
  290loPI   C2B 4638   2.622  15.910   9.444 -0.0132 -0.1732  0.4242
  290loPI   C3B 4639   2.592  16.006   8.952 -0.2555  0.0494  0.0180
  290loPI   C4B 4640   2.819  15.927   8.732 -0.2141 -0.0330 -0.0550
  291loPI    C1 4641   8.059  10.227  10.877 -0.1647 -0.0599 -0.0458
  291loPI    C2 4642   8.141  10.600  10.758  0.1631 -0.0948  0.0593
  291loPI    C3 4643   7.911  10.538  11.080  0.3249  0.0224  0.1990
  291loPI   PO4 4644   8.209  10.075  10.697 -0.3557  0.2804  0.0446
  291loPI   GL1 4645   8.488   9.928  10.334 -0.0718 -0.0590  0.4171
  291loPI   GL2 4646   8.516   9.598  10.276 -0.2738  0.1483  0.1462
  291loPI   C1A 4647   8.719  10.084   9.859  0.0234 -0.0915 -0.0964
  291loPI   C2A 4648   8.730   9.978   9.446 -0.1352  0.0938  0.1779
  291loPI   C3A 4649   9.014   9.892   9.170  0.0150 -0.0971 -0.1591
  291loPI   C4A 4650   8.955   9.668   8.719  0.1303 -0.0892  0.0403
  291loPI   C5A 4651   9.170   9.646   8.285 -0.2574  0.1122 -0.0479
  291loPI   C6A 4652   9.303   9.990   7.990  0.0088 -0.1097 -0.0322
  291loPI   C1B 4653   8.584   9.576   9.803 -0.0737  0.0781  0.1590
  291loPI   C2B 4654   8.528   9.587   9.257  0.3122  0.1847  0.2289
  291loPI   C3B 4655   8.464   9.645   8.823 -0.1374  0.1976 -0.2056
  291loPI   C4B 4656   8.457   9.802   8.459 -0.1504 -0.2092 -0.2254
  292loPI    C1 4657  14.845   2.273  10.756  0.0528 -0.1287 -0.0137
  292loPI    C2 4658  15.137   2.034  10.889  0.2248  0.0202 -0.1188
  292loPI    C3 4659  15.178   2.432  10.910  0.0227  0.0425 -0.1218
  292loPI   PO4 4660  14.774   2.202  10.479  0.0471 -0.3053 -0.1814
  292loPI   GL1 4661  14.781   2.013  10.002  0.0735 -0.1469 -0.0418
  292loPI   GL2 4662  14.971   1.774   9.821 -0.4736 -0.2801 -0.1035
  292loPI   C1A 4663  14.801   2.235   9.631  0.0195 -0.1122 -0.0410
  292loPI   C2A 4664  14.728   2.099   9.232  0.0473 -0.0304 -0.1948
  292loPI   C3A 4665  14.692   2.055   8.835  0.2334  0.2532 -0.0567
  292loPI   C4A 4666  14.466   2.210   8.406  0.0072  0.2151 -0.1230
  292loPI   C5A 4667  14.450   2.366   8.028  0.3053 -0.3051  0.0589
  292loPI   C6A 4668  14.184   2.642   7.901  0.0238 -0.1750  0.1145
  292loPI   C1B 4669  15.012   1.646   9.378  0.0540 -0.1454 -0.1326
  292loPI   C2B 4670  15.026   1.710   8.917 -0.3100  0.2087 -0.2704
  292loPI   C3B 4671  15.097   2.040   8.638 -0.3611 -0.1463  0.0759
  292loPI   C4B 4672  14.976   2.324   8.328 -0.1577  0.0513  0.0639
  293loPI    C1 4673   9.055  10.458  11.036 -0.1338  0.0587 -0.0118
  293loPI    C2 4674   9.048  10.591  11.413 -0.0342 -0.0495  0.0292
  293loPI    C3 4675   9.375  10.409  11.272 -0.1685 -0.2528 -0.0244
  293loPI   PO4 4676   8.986  10.563  10.788  0.1221  0.2517 -0.1778
  293loPI   GL1 4677   8.834  10.625  10.350  0.3981 -0.0003  0.4938
  293loPI   GL2 4678   8.544  10.395  10.518 -0.0998  0.1677  0.2553
  293loPI   C1A 4679   8.993  10.570   9.828  0.1196  0.0978  0.1701
  293loPI   C2A 4680   9.169  10.784   9.417  0.2123  0.1095  0.1319
  293loPI   C3A 4681   9.270  10.811   9.054  0.0737  0.2552 -0.0372
  293loPI   C4A 4682   9.278  11.111   8.772 -0.1300 -0.0876 -0.2800
  293loPI   C5A 4683   9.467  11.570   8.635 -0.1392 -0.0736 -0.1022
  293loPI   C6A 4684   9.652  12.051   8.703 -0.2186  0.1645 -0.0212
  293loPI   C1B 4685   8.311  10.555  10.256 -0.5378 -0.1204 -0.5341
  293loPI   C2B 4686   8.421  10.558   9.811  0.0016  0.2334  0.1061
  293loPI   C3B 4687   8.620  10.540   9.512  0.3005 -0.0423 -0.1192
  293loPI   C4B 4688   8.816  10.573   9.070  0.0092  0.0235 -0.0533
  294loPI    C1 4689   2.841   1.740  10.650 -0.1269 -0.1020  0.0763
  294loPI    C2 4690   2.932   1.906  11.002 -0.3543  0.0158  0.0814
  294loPI    C3 4691   2.877   1.510  10.975 -0.0710 -0.0289  0.1219
  294loPI   PO4 4692   2.592   2.011  10.524 -0.2021  0.2192 -0.1748
  294loPI   GL1 4693   2.661   2.338  10.125  0.0910  0.0100 -0.1061
  294loPI   GL2 4694   2.980   2.484  10.070  0.0349  0.1085  0.1716
  294loPI   C1A 4695   2.509   2.301   9.718 -0.1286  0.2015  0.1791
  294loPI   C2A 4696   2.597   2.184   9.246 -0.0100 -0.1672 -0.0739
  294loPI   C3A 4697   2.566   2.071   8.829  0.1833 -0.2327  0.1488
  294loPI   C4A 4698   2.540   2.052   8.317 -0.0732  0.0739  0.2601
  294loPI   C5A 4699   2.270   2.114   8.086  0.3724 -0.0115 -0.1031
  294loPI   C6A 4700   1.891   2.373   8.017 -0.2074 -0.0252  0.3211
  294loPI   C1B 4701   3.078   2.436   9.563 -0.1356  0.1316  0.2030
  294loPI   C2B 4702   3.079   2.266   9.142 -0.1821  0.2001  0.2741
  294loPI   C3B 4703   3.076   2.248   8.694  0.1666  0.2758 -0.1534
  294loPI   C4B 4704   3.075   2.190   8.265 -0.0473 -0.3823 -0.2527
  295loPI    C1 4705  13.159  16.166  10.752 -0.0062  0.2396 -0.0732
  295loPI    C2 4706  12.878  16.259  11.021  0.0924  0.1088  0.0771
  295loPI    C3 4707  13.243  16.148  11.143  0.1080 -0.0482 -0.1080
  295loPI   PO4 4708  13.162  16.385  10.522  0.0758  0.2503  0.2359
  295loPI   GL1 4709  13.038  16.341  10.081 -0.0373 -0.1404 -0.1193
  295loPI   GL2 4710  13.056  16.730  10.140 -0.0683  0.2302 -0.0425
  295loPI   C1A 4711  12.994  16.232   9.612 -0.0349  0.0749 -0.2956
  295loPI   C2A 4712  13.059  16.250   9.242 -0.1251  0.0426  0.2964
  295loPI   C3A 4713  13.133  16.231   8.835 -0.0611  0.0281  0.0200
  295loPI   C4A 4714  13.194  16.433   8.400  0.3215 -0.2502  0.2047
  295loPI   C5A 4715  13.083  16.766   8.134 -0.1424 -0.2305 -0.1136
  295loPI   C6A 4716  13.092  17.212   8.099 -0.1904  0.2155 -0.0134
  295loPI   C1B 4717  13.121  16.709   9.715 -0.0065 -0.0056 -0.3050
  295loPI   C2B 4718  13.172  16.697   9.351  0.0489  0.1733 -0.1570
  295loPI   C3B 4719  13.136  16.745   8.998 -0.1295  0.2071  0.0305
  295loPI   C4B 4720  13.109  16.876   8.609 -0.0166  0.2358  0.2379
  296loPI    C1 4721  17.534  17.583  10.814 -0.0948 -0.1803  0.1860
  296loPI    C2 4722  17.201  17.649  10.603  0.1017 -0.0803 -0.0986
  296loPI    C3 4723  17.286  17.280  10.732 -0.1049 -0.1109 -0.0463
  296loPI   PO4 4724  17.704  17.814  10.605 -0.0768 -0.1631  0.1070
  296loPI   GL1 4725  18.106  17.784  10.329  0.1949 -0.0531  0.2062
  296loPI   GL2 4726  18.079  17.466  10.365 -0.1400  0.0027 -0.0449
  296loPI   C1A 4727  17.962  17.832   9.906 -0.1811 -0.2181 -0.2146
  296loPI   C2A 4728  17.861  17.897   9.466 -0.4347  0.1371 -0.2616
  296loPI   C3A 4729  17.983  17.844   9.120  0.1041  0.1942  0.2919
  296loPI   C4A 4730  17.835  17.802   8.643  0.2813 -0.1927  0.0830
  296loPI   C5A 4731  18.064  17.654   8.143 -0.0759  0.4288 -0.2870
  296loPI   C6A 4732  18.527  17.371   8.151  0.2236  0.2000  0.0337
  296loPI   C1B 4733  18.273  17.472   9.970  0.2123  0.0585  0.1005
  296loPI   C2B 4734  18.342  17.552   9.522  0.2714 -0.1150 -0.1450
  296loPI   C3B 4735  18.359  17.502   9.100 -0.2810  0.0085  0.0162
  296loPI   C4B 4736  18.322  17.500   8.688  0.0479 -0.0583 -0.0203
  297loPI    C1 4737   8.356  14.171  10.813 -0.0513 -0.0802 -0.2080
  297loPI    C2 4738   8.234  14.320  10.463 -0.1821  0.2048 -0.0444
  297loPI    C3 4739   8.376  14.564  10.745 -0.0687 -0.0238  0.0994
  297loPI   PO4 4740   8.504  13.889  10.764 -0.0470  0.0081  0.0398
  297loPI   GL1 4741   8.513  13.746  10.353  0.2408 -0.0300  0.0891
  297loPI   GL2 4742   8.252  13.841  10.307  0.1834  0.1356  0.0656
  297loPI   C1A 4743   8.778  13.720  10.030 -0.0136 -0.0904 -0.0683
  297loPI   C2A 4744   9.025  13.741   9.615 -0.1968 -0.2513  0.2448
  297loPI   C3A 4745   9.134  13.557   9.248  0.1046 -0.0020  0.1524
  297loPI   C4A 4746   9.066  13.650   8.802  0.2248  0.2944  0.1985
  297loPI   C5A 4747   8.964  13.411   8.458  0.0572  0.0842  0.0311
  297loPI   C6A 4748   8.918  13.001   8.288 -0.1581 -0.1962 -0.2458
  297loPI   C1B 4749   8.350  13.781   9.721  0.1408 -0.0544 -0.2430
  297loPI   C2B 4750   8.225  13.668   9.341 -0.2014  0.0253  0.1638
  297loPI   C3B 4751   8.105  13.638   8.900  0.1653  0.0265  0.3292
  297loPI   C4B 4752   8.027  13.465   8.503  0.2190  0.3002  0.2111
  298loPI    C1 4753   8.078   9.167  10.992 -0.3929  0.0025  0.5197
  298loPI    C2 4754   8.326   9.351  11.246  0.0699 -0.0159  0.0978
  298loPI    C3 4755   8.292   8.952  11.253 -0.1479  0.0039  0.3240
  298loPI   PO4 4756   7.934   9.313  10.831  0.0854 -0.0593 -0.1299
  298loPI   GL1 4757   7.720   9.442  10.384 -0.1300  0.0904 -0.2410
  298loPI   GL2 4758   7.925   9.693  10.579 -0.3023  0.1771 -0.1952
  298loPI   C1A 4759   7.543   9.464   9.951 -0.3258  0.1037  0.2060
  298loPI   C2A 4760   7.466   9.451   9.431 -0.2588  0.0431  0.0207
  298loPI   C3A 4761   7.670   9.432   8.968 -0.1673  0.2342  0.2354
  298loPI   C4A 4762   7.789   9.195   8.587  0.2160  0.2223 -0.0777
  298loPI   C5A 4763   7.563   9.120   8.150  0.0671 -0.1209 -0.1281
  298loPI   C6A 4764   7.187   9.227   7.915  0.0580 -0.1738  0.1616
  298loPI   C1B 4765   8.019   9.689  10.074  0.0030 -0.1365 -0.1106
  298loPI   C2B 4766   7.942   9.658   9.542 -0.4916  0.0791  0.3550
  298loPI   C3B 4767   7.939   9.826   9.147  0.1941 -0.3053 -0.2065
  298loPI   C4B 4768   7.923   9.744   8.685  0.0423 -0.1778  0.0453
  299loPI    C1 4769  12.396   0.207  10.610 -0.0525 -0.0260 -0.1238
  299loPI    C2 4770  12.260   0.497  10.370  0.1099  0.0740 -0.0962
  299loPI    C3 4771  12.473   0.590  10.696  0.0354 -0.0696 -0.0053
  299loPI   PO4 4772  12.523  -0.040  10.429  0.0777  0.1010 -0.0068
  299loPI   GL1 4773  12.745  -0.071  10.113  0.2283 -0.0151  0.3097
  299loPI   GL2 4774  12.775   0.321  10.159 -0.2075  0.0726  0.0727
  299loPI   C1A 4775  12.802   0.056   9.737 -0.3113 -0.1388 -0.2673
  299loPI   C2A 4776  12.916  -0.034   9.302 -0.1324 -0.0660  0.1538
  299loPI   C3A 4777  12.942  -0.089   8.861 -0.0227  0.0869  0.1231
  299loPI   C4A 4778  12.944   0.031   8.425  0.0685 -0.0315  0.0217
  299loPI   C5A 4779  13.118   0.167   8.108  0.1082  0.1958  0.1962
  299loPI   C6A 4780  13.033   0.068   7.745  0.2246  0.1670  0.2292
  299loPI   C1B 4781  12.472   0.404   9.938 -0.0337 -0.4587 -0.2186
  299loPI   C2B 4782  12.442   0.311   9.500 -0.2613 -0.2114 -0.0510
  299loPI   C3B 4783  12.482   0.176   9.066  0.3464 -0.1462 -0.0648
  299loPI   C4B 4784  12.449   0.095   8.582 -0.3377  0.1037  0.1791
  300loPI    C1 4785  14.545   3.784  10.650 -0.3734 -0.0885  0.1153
  300loPI    C2 4786  14.412   3.718  11.021 -0.3206 -0.0522  0.1409
  300loPI    C3 4787  14.616   4.052  10.939  0.0126 -0.2443  0.1709
  300loPI   PO4 4788  14.558   3.640  10.453 -0.3083 -0.4667 -0.0818
  300loPI   GL1 4789  14.491   3.628   9.992 -0.1660  0.0375 -0.1115
  300loPI   GL2 4790  14.920   3.581   9.964  0.0194  0.0308  0.4686
  300loPI   C1A 4791  14.520   3.548   9.547 -0.2411 -0.1606 -0.0080
  300loPI   C2A 4792  14.409   3.535   9.016  0.3123  0.0501  0.1825
  300loPI   C3A 4793  14.452   3.649   8.550  0.1126 -0.3977 -0.1890
  300loPI   C4A 4794  14.512   4.052   8.324  0.0461 -0.0564  0.0147
  300loPI   C5A 4795  14.539   4.490   8.060  0.1864 -0.0666 -0.2245
  300loPI   C6A 4796  14.457   4.738   7.620 -0.1597  0.2686 -0.0632
  300loPI   C1B 4797  14.934   3.770   9.542 -0.4869  0.3326  0.1822
  300loPI   C2B 4798  15.203   3.973   9.302 -0.1806  0.3059  0.1720
  300loPI   C3B 4799  15.297   4.062   8.909 -0.0986  0.0818  0.1187
  300loPI   C4B 4800  15.426   3.915   8.480 -0.1022 -0.2830  0.1389
  301loPI    C1 4801  12.407   9.628  10.881 -0.1373 -0.0365 -0.1246
  301loPI    C2 4802  12.180   9.877  11.096  0.0949  0.1585 -0.1009
  301loPI    C3 4803  12.323   9.542  11.262  0.0786  0.1899 -0.0229
  301loPI   PO4 4804  12.324   9.646  10.627  0.1655 -0.0865 -0.2625
  301loPI   GL1 4805  12.485   9.382  10.263  0.1088 -0.1190 -0.0729
  301loPI   GL2 4806  12.128   9.389  10.234  0.0406 -0.0466  0.1704
  301loPI   C1A 4807  12.357   9.176   9.823  0.1653 -0.2190 -0.0890
  301loPI   C2A 4808  12.368   9.103   9.338  0.0735  0.1134  0.1603
  301loPI   C3A 4809  12.407   9.050   8.910  0.0161 -0.3625  0.1183
  301loPI   C4A 4810  12.470   8.937   8.509  0.1439 -0.0930  0.2484
  301loPI   C5A 4811  12.390   8.757   8.155 -0.0387 -0.1613 -0.0277
  301loPI   C6A 4812  12.190   8.603   7.906 -0.0663  0.0505 -0.1165
  301loPI   C1B 4813  12.033   9.579   9.863 -0.0667  0.1546 -0.0785
  301loPI   C2B 4814  12.097   9.542   9.468  0.0220  0.0597  0.1383
  301loPI   C3B 4815  12.174   9.565   9.038 -0.0792  0.1870 -0.2851
  301loPI   C4B 4816  12.299   9.446   8.539 -0.1380 -0.4194 -0.0882
  302loPI    C1 4817   6.852   7.885  10.881  0.0811  0.1225 -0.1309
  302loPI    C2 4818   6.925   7.543  11.075 -0.1895  0.0121 -0.2175
  302loPI    C3 4819   7.061   7.890  11.221 -0.1635 -0.0989  0.0270
  302loPI   PO4 4820   6.627   7.822  10.775  0.0828 -0.0377 -0.0440
  302loPI   GL1 4821   6.327   7.970  10.401  0.2998  0.0499  0.0460
  302loPI   GL2 4822   6.637   8.069  10.382 -0.1414  0.1043  0.0757
  302loPI   C1A 4823   6.479   8.008   9.928 -0.1811  0.1155 -0.3044
  302loPI   C2A 4824   6.566   7.939   9.377 -0.1452 -0.2028 -0.2489
  302loPI   C3A 4825   6.544   7.989   8.940  0.1977 -0.1119 -0.0906
  302loPI   C4A 4826   6.270   8.027   8.553 -0.2106  0.1654  0.1653
  302loPI   C5A 4827   5.813   8.093   8.519  0.1514  0.3054 -0.1154
  302loPI   C6A 4828   5.637   8.452   8.265 -0.0704  0.1712 -0.1256
  302loPI   C1B 4829   6.756   8.345  10.115  0.2256 -0.2556 -0.0730
  302loPI   C2B 4830   6.876   8.208   9.725  0.2854  0.0937 -0.0626
  302loPI   C3B 4831   6.981   8.262   9.321  0.0356  0.2041  0.2474
  302loPI   C4B 4832   7.072   8.247   8.830  0.1307  0.0026  0.0894
  303loPI    C1 4833   7.022  14.776  10.867  0.1083 -0.1652 -0.0038
  303loPI    C2 4834   6.709  14.871  10.636  0.0711 -0.1126  0.0680
  303loPI    C3 4835   6.661  14.623  10.946  0.1006 -0.1046  0.0790
  303loPI   PO4 4836   7.166  14.660  10.691  0.0961  0.1115  0.1287
  303loPI   GL1 4837   7.366  14.648  10.255 -0.0912  0.4288 -0.4055
  303loPI   GL2 4838   7.597  14.630  10.113  0.2631  0.0223 -0.1958
  303loPI   C1A 4839   7.175  14.637   9.801 -0.1660 -0.1361 -0.0938
  303loPI   C2A 4840   7.213  14.631   9.411  0.2163  0.3229 -0.1354
  303loPI   C3A 4841   7.405  14.580   9.062 -0.1857 -0.1055 -0.0581
  303loPI   C4A 4842   7.231  14.683   8.620 -0.0854  0.0933 -0.0910
  303loPI   C5A 4843   7.072  14.738   8.241  0.2264  0.1945  0.0099
  303loPI   C6A 4844   6.928  15.111   8.126  0.0865  0.0619 -0.0908
  303loPI   C1B 4845   7.683  14.560   9.676 -0.2607  0.1336 -0.0579
  303loPI   C2B 4846   7.843  14.530   9.241 -0.1070 -0.0034 -0.0768
  303loPI   C3B 4847   7.707  14.574   8.710  0.1606 -0.1410 -0.0820
  303loPI   C4B 4848   7.654  14.785   8.313  0.1445 -0.1230  0.0951
  304loPI    C1 4849   1.737  13.296  10.710 -0.1633 -0.2014  0.0681
  304loPI    C2 4850   1.550  13.630  10.595 -0.0715 -0.2228 -0.1497
  304loPI    C3 4851   1.929  13.647  10.722 -0.1257 -0.2199  0.0142
  304loPI   PO4 4852   1.523  13.091  10.693  0.2773  0.0679 -0.0026
  304loPI   GL1 4853   1.419  12.834  10.410  0.1730 -0.1109 -0.0805
  304loPI   GL2 4854   1.626  12.683  10.409  0.1918  0.1824 -0.1765
  304loPI   C1A 4855   1.208  12.921  10.066 -0.0402  0.1711  0.0835
  304loPI   C2A 4856   1.183  13.255   9.817 -0.2116  0.1898 -0.5935
  304loPI   C3A 4857   1.211  13.112   9.338  0.2099 -0.3644  0.0759
  304loPI   C4A 4858   1.178  13.187   8.943 -0.1213  0.0193  0.0664
  304loPI   C5A 4859   1.168  13.270   8.503 -0.0668  0.1124 -0.2179
  304loPI   C6A 4860   1.346  13.348   8.200  0.0445 -0.0406  0.0284
  304loPI   C1B 4861   1.666  12.690   9.941  0.3316 -0.0072 -0.2179
  304loPI   C2B 4862   1.430  12.750   9.672  0.1954 -0.3448 -0.0218
  304loPI   C3B 4863   1.563  12.736   9.265  0.0724 -0.0321  0.0791
  304loPI   C4B 4864   1.578  12.855   8.905  0.2216  0.1641 -0.1133
  305loPI    C1 4865   0.308  12.326  10.542 -0.0381 -0.0114  0.0519
  305loPI    C2 4866   0.029  12.590  10.651  0.0037  0.0413  0.0318
  305loPI    C3 4867   0.197  12.353  10.925 -0.2932 -0.2179 -0.0047
  305loPI   PO4 4868   0.191  12.218  10.347  0.0589 -0.1063 -0.0849
  305loPI   GL1 4869   0.019  12.397   9.869 -0.1086 -0.2937 -0.1244
  305loPI   GL2 4870  -0.162  12.619  10.121  0.0758 -0.0335  0.0505
  305loPI   C1A 4871   0.124  12.393   9.430  0.0528  0.2727  0.3321
  305loPI   C2A 4872   0.098  12.287   9.031  0.0306 -0.2569 -0.1387
  305loPI   C3A 4873  -0.018  12.243   8.726  0.0690  0.1108  0.2908
  305loPI   C4A 4874   0.179  12.377   8.318  0.3396 -0.2179 -0.0525
  305loPI   C5A 4875   0.420  12.362   7.913  0.1587 -0.4849 -0.1052
  305loPI   C6A 4876   0.536  12.381   7.544  0.1919 -0.0465  0.3008
  305loPI   C1B 4877  -0.227  12.699   9.592 -0.1616  0.0043 -0.1930
  305loPI   C2B 4878  -0.276  12.589   9.175 -0.3453  0.1360  0.1457
  305loPI   C3B 4879  -0.282  12.746   8.782  0.0820  0.4211  0.3374
  305loPI   C4B 4880  -0.277  12.821   8.307 -0.0021  0.0834  0.0257
  306loPI    C1 4881   1.322  15.776  11.240 -0.0590 -0.1215 -0.0542
  306loPI    C2 4882   1.487  15.459  11.420  0.0127 -0.0160  0.0677
  306loPI    C3 4883   1.480  15.813  11.606 -0.1554  0.0314 -0.0270
  306loPI   PO4 4884   1.082  15.780  11.076  0.2825  0.0437 -0.1729
  306loPI   GL1 4885   0.993  15.752  10.620  0.0979  0.0561 -0.1702
  306loPI   GL2 4886   1.187  15.545  10.462 -0.0609 -0.2225  0.1156
  306loPI   C1A 4887   0.777  15.767  10.265  0.1503  0.0812  0.1993
  306loPI   C2A 4888   0.724  15.796   9.839  0.3527  0.0134  0.1155
  306loPI   C3A 4889   0.686  15.842   9.415 -0.1871 -0.0279 -0.0855
  306loPI   C4A 4890   0.785  15.808   8.997  0.3493 -0.0103 -0.0000
  306loPI   C5A 4891   0.759  15.869   8.570  0.1577 -0.0580 -0.2720
  306loPI   C6A 4892   0.737  15.715   8.236 -0.2072 -0.1786  0.0476
  306loPI   C1B 4893   1.114  15.554   9.955 -0.3106 -0.0334  0.0316
  306loPI   C2B 4894   1.112  15.511   9.455  0.1112  0.1061 -0.0809
  306loPI   C3B 4895   1.208  15.489   9.044 -0.1975 -0.2574  0.1820
  306loPI   C4B 4896   1.295  15.553   8.584  0.2191  0.0754  0.2207
  307loPI    C1 4897   6.463   6.159  10.284  0.0713 -0.0783 -0.0441
  307loPI    C2 4898   6.259   6.156  10.628 -0.0644 -0.3251 -0.1241
  307loPI    C3 4899   6.651   6.078  10.627  0.0922  0.3893  0.0614
  307loPI   PO4 4900   6.356   6.075  10.133 -0.1611 -0.2462 -0.0192
  307loPI   GL1 4901   6.399   5.949   9.759  0.2694 -0.0353  0.0299
  307loPI   GL2 4902   6.446   5.616   9.878  0.0228 -0.2827  0.1010
  307loPI   C1A 4903   6.395   6.044   9.291 -0.1897  0.1972  0.1003
  307loPI   C2A 4904   6.416   6.014   8.985  0.3875 -0.0896 -0.0445
  307loPI   C3A 4905   6.496   5.993   8.629 -0.2562 -0.2429  0.2531
  307loPI   C4A 4906   6.713   6.196   8.314 -0.0259 -0.2025  0.2787
  307loPI   C5A 4907   6.743   6.630   8.209  0.2300  0.2554 -0.2216
  307loPI   C6A 4908   6.863   7.010   8.133  0.0691  0.2177  0.1476
  307loPI   C1B 4909   6.449   5.569   9.431  0.0666 -0.1136 -0.0814
  307loPI   C2B 4910   6.529   5.539   9.041 -0.1833 -0.0889 -0.1396
  307loPI   C3B 4911   6.585   5.488   8.608  0.0828 -0.4820 -0.0214
  307loPI   C4B 4912   6.782   5.386   8.211 -0.1334  0.1825  0.0381
  308loPI    C1 4913   5.731  14.371  10.731 -0.0120  0.3044 -0.2267
  308loPI    C2 4914   5.552  14.226  10.403 -0.1102  0.1004 -0.0851
  308loPI    C3 4915   5.823  14.005  10.599 -0.2922  0.0874  0.1571
  308loPI   PO4 4916   5.745  14.679  10.626 -0.3231 -0.0865  0.1745
  308loPI   GL1 4917   5.793  14.845  10.156  0.0574  0.1727  0.0829
  308loPI   GL2 4918   5.536  14.602  10.073  0.0501 -0.2519 -0.0649
  308loPI   C1A 4919   5.938  14.669   9.753 -0.0917  0.0356 -0.1350
  308loPI   C2A 4920   5.855  14.328   9.489  0.0564  0.0827  0.2343
  308loPI   C3A 4921   5.894  14.180   9.040  0.2430 -0.2408  0.1770
  308loPI   C4A 4922   5.776  14.192   8.645 -0.0428 -0.0800  0.4492
  308loPI   C5A 4923   5.740  14.065   8.193  0.1337  0.3575  0.2037
  308loPI   C6A 4924   5.618  14.225   7.792 -0.0409 -0.1045 -0.2186
  308loPI   C1B 4925   5.655  14.201   9.952 -0.0119 -0.0183 -0.0041
  308loPI   C2B 4926   5.897  13.894   9.684 -0.0941  0.0110  0.1989
  308loPI   C3B 4927   6.150  13.860   9.321  0.0568  0.0931 -0.0056
  308loPI   C4B 4928   6.250  13.559   9.028  0.2067 -0.1379  0.0242
  309loPI    C1 4929   4.334   6.909  10.886  0.0050  0.0934 -0.2596
  309loPI    C2 4930   3.999   7.112  10.964 -0.0475 -0.0762 -0.0333
  309loPI    C3 4931   3.990   6.799  10.715 -0.0782 -0.1437  0.0524
  309loPI   PO4 4932   4.505   7.042  10.775  0.2141  0.0095 -0.2253
  309loPI   GL1 4933   4.481   7.374  10.500  0.3291 -0.2656  0.0910
  309loPI   GL2 4934   4.580   7.592  10.249  0.1265  0.0430  0.3831
  309loPI   C1A 4935   4.227   7.243  10.081 -0.2438 -0.0894 -0.1577
  309loPI   C2A 4936   4.115   7.219   9.661 -0.0993 -0.2037 -0.1790
  309loPI   C3A 4937   4.208   7.188   9.305 -0.1301 -0.1404  0.1424
  309loPI   C4A 4938   4.265   7.180   9.001 -0.2160  0.3836 -0.0700
  309loPI   C5A 4939   4.408   7.269   8.677  0.1117 -0.2255  0.2486
  309loPI   C6A 4940   4.615   7.403   8.342 -0.3458 -0.1819 -0.1968
  309loPI   C1B 4941   4.552   7.550   9.761  0.0109  0.2478  0.1529
  309loPI   C2B 4942   4.653   7.565   9.337 -0.2230  0.2688 -0.0794
  309loPI   C3B 4943   4.713   7.566   8.906  0.0884 -0.2750 -0.2583
  309loPI   C4B 4944   5.033   7.667   8.552  0.1870  0.4538 -0.0395
  310loPI    C1 4945  16.752   7.013  10.521 -0.1366 -0.1765  0.1308
  310loPI    C2 4946  16.392   7.185  10.554 -0.0329  0.1003 -0.1338
  310loPI    C3 4947  16.536   6.962  10.854 -0.2469  0.3278  0.1437
  310loPI   PO4 4948  16.758   6.905  10.329  0.2564  0.0573 -0.0007
  310loPI   GL1 4949  16.383   6.848  10.102 -0.2094  0.1779 -0.0067
  310loPI   GL2 4950  16.278   6.609  10.023 -0.3287  0.2708 -0.2124
  310loPI   C1A 4951  16.501   7.056   9.736 -0.0167 -0.3898  0.0634
  310loPI   C2A 4952  16.410   7.060   9.371  0.1484 -0.0412 -0.2166
  310loPI   C3A 4953  16.322   7.101   9.027  0.1458 -0.0747  0.2332
  310loPI   C4A 4954  16.313   7.048   8.596 -0.0111 -0.0608 -0.1117
  310loPI   C5A 4955  16.293   7.248   8.117  0.2426  0.2486 -0.2287
  310loPI   C6A 4956  16.154   6.934   7.912  0.2364 -0.0570  0.1468
  310loPI   C1B 4957  16.117   6.687   9.690  0.0558 -0.0899 -0.1799
  310loPI   C2B 4958  16.056   6.711   9.311  0.4195 -0.0369 -0.0268
  310loPI   C3B 4959  15.959   6.752   8.862 -0.1604 -0.3761 -0.1581
  310loPI   C4B 4960  15.906   6.879   8.359 -0.0645  0.1053 -0.0077
  311loPI    C1 4961   2.401   9.697  10.589 -0.0237  0.2145 -0.1324
  311loPI    C2 4962   2.564   9.332  10.593  0.1178  0.2756 -0.2407
  311loPI    C3 4963   2.581   9.563  10.919 -0.2620  0.0612 -0.0624
  311loPI   PO4 4964   2.307   9.692  10.299  0.0402 -0.4204 -0.2388
  311loPI   GL1 4965   2.080   9.758  10.045  0.3015 -0.1214 -0.0171
  311loPI   GL2 4966   1.786   9.447  10.048 -0.1594 -0.3429 -0.0248
  311loPI   C1A 4967   2.060   9.429   9.643  0.0718 -0.0770 -0.1613
  311loPI   C2A 4968   1.982   9.300   9.222 -0.1589 -0.1392  0.3499
  311loPI   C3A 4969   1.875   8.971   8.900  0.0466  0.0674 -0.0292
  311loPI   C4A 4970   1.396   8.792   8.840  0.1388  0.2116 -0.2256
  311loPI   C5A 4971   1.163   8.396   8.638  0.0847  0.1241  0.0655
  311loPI   C6A 4972   0.665   8.328   8.503  0.0877  0.1226  0.0542
  311loPI   C1B 4973   1.660   9.147   9.684 -0.0012 -0.0422 -0.0687
  311loPI   C2B 4974   1.380   9.271   9.279 -0.1848 -0.2537 -0.0188
  311loPI   C3B 4975   0.977   9.547   9.270 -0.3443  0.1289 -0.1019
  311loPI   C4B 4976   0.619   9.477   9.276  0.0453  0.0763 -0.1916
  312loPI    C1 4977   4.221  16.942  10.777  0.0989 -0.0561 -0.0608
  312loPI    C2 4978   4.061  17.243  10.987  0.1655  0.0017 -0.0926
  312loPI    C3 4979   4.318  16.991  11.162  0.1364 -0.0161 -0.0754
  312loPI   PO4 4980   4.036  16.976  10.540 -0.1119 -0.0009  0.0604
  312loPI   GL1 4981   4.164  17.070  10.131  0.6203  0.1565  0.0922
  312loPI   GL2 4982   4.278  16.868  10.013  0.1099  0.3118  0.2162
  312loPI   C1A 4983   4.057  17.353   9.895 -0.1431  0.1440  0.1913
  312loPI   C2A 4984   3.873  17.437   9.552  0.1962  0.0531 -0.1412
  312loPI   C3A 4985   3.834  17.427   9.074  0.0245 -0.4319 -0.1868
  312loPI   C4A 4986   3.932  17.397   8.574 -0.1388  0.1826  0.1651
  312loPI   C5A 4987   3.681  17.289   8.280  0.1583  0.4849  0.0432
  312loPI   C6A 4988   3.328  17.093   8.174 -0.0574 -0.1671  0.2275
  312loPI   C1B 4989   4.303  17.008   9.585 -0.2345 -0.1711  0.0187
  312loPI   C2B 4990   4.320  17.028   9.100 -0.0867  0.0982  0.0949
  312loPI   C3B 4991   4.286  17.055   8.675  0.0679 -0.1071  0.2027
  312loPI   C4B 4992   4.337  16.935   8.298 -0.0056  0.2548  0.2031
  313loPI    C1 4993  10.019   0.144  10.730 -0.0471 -0.2059  0.1202
  313loPI    C2 4994  10.134   0.313  11.074 -0.0385 -0.0739  0.0531
  313loPI    C3 4995   9.888  -0.003  11.079 -0.0911 -0.0316  0.1779
  313loPI   PO4 4996  10.027   0.459  10.574  0.2337 -0.0782 -0.1480
  313loPI   GL1 4997  10.006   0.699  10.140  0.0921 -0.1885  0.1829
  313loPI   GL2 4998   9.694   0.512   9.958  0.0316  0.0842  0.4366
  313loPI   C1A 4999  10.111   0.647   9.753 -0.0213  0.1761 -0.0169
  313loPI   C2A 5000  10.144   0.500   9.337 -0.2126  0.0398  0.0250
  313loPI   C3A 5001  10.115   0.506   8.947  0.3715 -0.3186  0.3137
  313loPI   C4A 5002  10.216   0.449   8.497  0.1548  0.0405 -0.2637
  313loPI   C5A 5003  10.356   0.571   8.063  0.2913 -0.0051 -0.0244
  313loPI   C6A 5004  10.707   0.441   7.732  0.0183  0.1487  0.3218
  313loPI   C1B 5005   9.775   0.305   9.627 -0.1409 -0.0113 -0.0828
  313loPI   C2B 5006   9.673   0.253   9.202 -0.0877  0.3332  0.6241
  313loPI   C3B 5007   9.608   0.046   8.843 -0.0746  0.5043  0.1800
  313loPI   C4B 5008   9.612   0.026   8.396 -0.0011  0.3511 -0.1736
  314loPI    C1 5009   6.439   3.757  10.286  0.0259 -0.1297 -0.0870
  314loPI    C2 5010   6.640   3.562  10.572  0.1469 -0.1558 -0.1889
  314loPI    C3 5011   6.353   3.824  10.671  0.2922 -0.0514 -0.0395
  314loPI   PO4 5012   6.604   3.930  10.181  0.0178 -0.2448 -0.0539
  314loPI   GL1 5013   6.859   3.904   9.948 -0.1966  0.0648  0.2353
  314loPI   GL2 5014   7.174   3.995   9.953  0.0903  0.0965 -0.2405
  314loPI   C1A 5015   6.789   3.754   9.523  0.2180  0.0894  0.1236
  314loPI   C2A 5016   6.709   3.661   9.082 -0.0977 -0.3129  0.2308
  314loPI   C3A 5017   6.653   3.558   8.674  0.3772  0.1369  0.2944
  314loPI   C4A 5018   6.802   3.463   8.300  0.1785 -0.1467 -0.1405
  314loPI   C5A 5019   6.979   3.697   7.920 -0.1578  0.2226 -0.1173
  314loPI   C6A 5020   7.316   3.956   7.712 -0.1436 -0.0854  0.0801
  314loPI   C1B 5021   7.240   3.982   9.605  0.2687 -0.0451 -0.0706
  314loPI   C2B 5022   7.153   3.917   9.234  0.1278  0.2203 -0.0013
  314loPI   C3B 5023   6.994   3.919   8.770 -0.1015  0.2465  0.1936
  314loPI   C4B 5024   7.198   3.869   8.314  0.0625 -0.0329  0.1023
  315loPI    C1 5025  10.725   7.237  11.003  0.0327  0.1577  0.0802
  315loPI    C2 5026  10.415   7.319  11.242  0.1279 -0.0365  0.2741
  315loPI    C3 5027  10.699   7.593  11.182  0.0031  0.0833  0.2258
  315loPI   PO4 5028  10.536   7.093  10.817  0.0363 -0.1138 -0.1470
  315loPI   GL1 5029  10.572   7.117  10.379 -0.3581  0.1743  0.1413
  315loPI   GL2 5030  10.545   6.792  10.411  0.2247  0.1639  0.0235
  315loPI   C1A 5031  10.426   7.095   9.979  0.0912 -0.2744  0.0494
  315loPI   C2A 5032  10.555   7.142   9.583  0.0662  0.0555 -0.3001
  315loPI   C3A 5033  10.433   7.025   9.213 -0.3944 -0.1435 -0.1978
  315loPI   C4A 5034  10.357   7.017   8.726 -0.0591 -0.0461 -0.1249
  315loPI   C5A 5035  10.409   6.691   8.385 -0.4092 -0.3833  0.0150
  315loPI   C6A 5036  10.717   6.447   8.069 -0.1596  0.2096 -0.2640
  315loPI   C1B 5037  10.412   6.616  10.060 -0.0463 -0.1211  0.1304
  315loPI   C2B 5038  10.528   6.544   9.730  0.0157  0.2604  0.0016
  315loPI   C3B 5039  10.478   6.558   9.329  0.0199 -0.0866  0.2078
  315loPI   C4B 5040  10.463   6.510   8.885 -0.0980 -0.2694 -0.2119
  316loPI    C1 5041  17.856   1.525  11.042  0.0474  0.1189  0.0282
  316loPI    C2 5042  18.078   1.676  11.339  0.0585  0.0900  0.0345
  316loPI    C3 5043  17.944   1.300  11.360 -0.0990  0.1484  0.0903
  316loPI   PO4 5044  18.002   1.586  10.817  0.1158 -0.0010  0.0287
  316loPI   GL1 5045  17.937   1.499  10.397  0.5332  0.1054  0.0255
  316loPI   GL2 5046  18.138   1.751  10.296 -0.0691  0.0519  0.1445
  316loPI   C1A 5047  17.751   1.638   9.997  0.0687 -0.0081 -0.1007
  316loPI   C2A 5048  17.836   1.598   9.556 -0.2034  0.1303  0.3576
  316loPI   C3A 5049  17.795   1.611   9.119  0.0682 -0.0409  0.2780
  316loPI   C4A 5050  17.684   1.578   8.707  0.1129 -0.1078  0.0600
  316loPI   C5A 5051  17.802   1.538   8.345 -0.0942 -0.0394 -0.0681
  316loPI   C6A 5052  18.107   1.736   8.101  0.0813  0.2396 -0.1742
  316loPI   C1B 5053  18.266   1.731   9.902 -0.4514  0.2223 -0.1002
  316loPI   C2B 5054  18.291   1.813   9.528  0.0261 -0.1069  0.0755
  316loPI   C3B 5055  18.295   1.807   9.060  0.0281  0.0288  0.1630
  316loPI   C4B 5056  18.244   1.727   8.710  0.0446  0.0300 -0.2532
  317loPI    C1 5057   4.142   4.308  10.513  0.0628  0.0404 -0.1545
  317loPI    C2 5058   4.399   4.090  10.728 -0.0045  0.0437 -0.0698
  317loPI    C3 5059   4.266   4.439  10.870 -0.0776  0.0284 -0.1006
  317loPI   PO4 5060   4.096   4.173  10.318  0.1053  0.2494 -0.0262
  317loPI   GL1 5061   3.906   4.316   9.985 -0.0285  0.0772  0.2221
  317loPI   GL2 5062   3.941   4.599   9.892 -0.2187  0.1702  0.0721
  317loPI   C1A 5063   3.726   4.040   9.622 -0.0434  0.0334  0.1622
  317loPI   C2A 5064   3.689   4.039   9.162  0.1225 -0.2837 -0.1906
  317loPI   C3A 5065   3.543   4.046   8.784 -0.3043 -0.0711  0.0411
  317loPI   C4A 5066   3.199   4.168   8.840  0.2731  0.0844 -0.0821
  317loPI   C5A 5067   2.951   4.353   8.519  0.1190 -0.0296  0.1029
  317loPI   C6A 5068   2.938   4.563   8.117 -0.2039  0.3085  0.2464
  317loPI   C1B 5069   3.852   4.799   9.535 -0.0760  0.0098 -0.0341
  317loPI   C2B 5070   4.022   4.870   9.130  0.2163 -0.1346  0.0186
  317loPI   C3B 5071   4.075   5.067   8.705  0.0501  0.0272 -0.1822
  317loPI   C4B 5072   4.352   4.960   8.368  0.4610 -0.1063  0.1065
  318loPI    C1 5073   6.623   8.817  11.191 -0.2608  0.0197 -0.1946
  318loPI    C2 5074   6.568   9.213  11.214  0.0800  0.0596 -0.0031
  318loPI    C3 5075   6.479   8.980  11.527  0.0004 -0.0008 -0.0704
  318loPI   PO4 5076   6.734   8.848  10.944  0.1381  0.2541  0.1105
  318loPI   GL1 5077   6.608   8.745  10.437  0.0075 -0.3331  0.2723
  318loPI   GL2 5078   6.332   8.535  10.290 -0.3316 -0.0404  0.0866
  318loPI   C1A 5079   6.670   8.879  10.052  0.0557  0.0082 -0.1358
  318loPI   C2A 5080   6.747   8.772   9.676  0.2052 -0.0295 -0.0566
  318loPI   C3A 5081   6.812   8.836   9.225  0.3450  0.4514  0.2317
  318loPI   C4A 5082   6.879   8.944   8.838  0.1264 -0.0891 -0.0446
  318loPI   C5A 5083   7.017   9.001   8.381 -0.0944  0.1355 -0.1912
  318loPI   C6A 5084   6.761   9.105   8.142 -0.0084  0.0217 -0.1871
  318loPI   C1B 5085   6.360   8.485   9.839  0.0095 -0.2981  0.0571
  318loPI   C2B 5086   6.445   8.443   9.363  0.0772 -0.0442  0.0562
  318loPI   C3B 5087   6.564   8.494   8.984 -0.1314  0.3088 -0.0031
  318loPI   C4B 5088   6.533   8.631   8.639 -0.2047 -0.0285 -0.1808
  319loPI    C1 5089  10.270   5.248  10.695  0.1140  0.4499  0.0553
  319loPI    C2 5090  10.533   5.012  10.882 -0.0830  0.1155 -0.0820
  319loPI    C3 5091  10.327   5.284  11.090  0.0846  0.1103  0.0936
  319loPI   PO4 5092  10.032   5.068  10.535  0.0298 -0.3035 -0.0290
  319loPI   GL1 5093   9.695   5.225  10.144 -0.0393 -0.1377 -0.1714
  319loPI   GL2 5094  10.008   5.383  10.172 -0.2018 -0.1170 -0.2531
  319loPI   C1A 5095   9.754   5.411   9.719 -0.0696  0.0202  0.1072
  319loPI   C2A 5096   9.746   5.322   9.258 -0.2159 -0.2156 -0.3896
  319loPI   C3A 5097   9.765   5.186   8.868 -0.1169 -0.1238  0.3078
  319loPI   C4A 5098   9.717   5.111   8.435  0.0655  0.0740 -0.0650
  319loPI   C5A 5099   9.479   5.049   8.116 -0.0587  0.1752  0.2037
  319loPI   C6A 5100   9.308   4.816   7.743  0.0095 -0.3921  0.1257
  319loPI   C1B 5101  10.242   5.285   9.810  0.1626  0.2474 -0.1512
  319loPI   C2B 5102  10.232   5.259   9.384  0.1915 -0.0335 -0.3205
  319loPI   C3B 5103  10.241   4.953   9.086  0.0980  0.1480 -0.4074
  319loPI   C4B 5104  10.191   5.047   8.613 -0.1237  0.3098  0.1114
  320loPI    C1 5105   8.357   4.779  10.821 -0.0385  0.1909  0.0565
  320loPI    C2 5106   8.005   4.710  10.998 -0.0467 -0.0080 -0.0351
  320loPI    C3 5107   8.331   4.512  11.119  0.0680  0.2944  0.1595
  320loPI   PO4 5108   8.320   4.741  10.590 -0.5051  0.1252 -0.0397
  320loPI   GL1 5109   8.476   4.605  10.111  0.2777  0.0981  0.0283
  320loPI   GL2 5110   8.744   4.600  10.251 -0.0447  0.0735 -0.3215
  320loPI   C1A 5111   8.482   4.380   9.740 -0.1527  0.2695 -0.0215
  320loPI   C2A 5112   8.559   4.304   9.313 -0.0069 -0.0084  0.0887
  320loPI   C3A 5113   8.487   4.280   8.836 -0.0974 -0.0384 -0.1832
  320loPI   C4A 5114   8.553   4.287   8.391  0.3427 -0.2353 -0.2893
  320loPI   C5A 5115   8.200   4.314   8.035 -0.1847  0.1730  0.1411
  320loPI   C6A 5116   8.116   4.353   7.581 -0.0254  0.0906 -0.1609
  320loPI   C1B 5117   8.956   4.680   9.900  0.1855 -0.4076  0.0510
  320loPI   C2B 5118   8.900   4.661   9.425  0.0772  0.0496  0.1667
  320loPI   C3B 5119   8.861   4.698   9.015  0.1334  0.0043 -0.0460
  320loPI   C4B 5120   8.880   4.577   8.679  0.1237  0.0750 -0.0738
  321loPI    C1 5121   9.761   3.770  10.467 -0.0979 -0.0500  0.2080
  321loPI    C2 5122  10.080   3.703  10.700  0.1948  0.0391 -0.1568
  321loPI    C3 5123   9.975   4.078  10.606 -0.0720  0.0140  0.0294
  321loPI   PO4 5124   9.706   3.579  10.323 -0.0767 -0.1092 -0.1357
  321loPI   GL1 5125   9.865   3.512   9.865 -0.0228  0.0229 -0.2868
  321loPI   GL2 5126   9.829   3.290   9.718 -0.2530 -0.1969  0.2963
  321loPI   C1A 5127   9.821   3.896   9.469 -0.2648  0.3328 -0.1735
  321loPI   C2A 5128   9.518   3.859   9.178  0.2683 -0.1649  0.1233
  321loPI   C3A 5129   9.443   3.797   8.805  0.2217  0.1110 -0.3004
  321loPI   C4A 5130   9.505   3.726   8.310  0.1714  0.0226 -0.1086
  321loPI   C5A 5131   9.980   3.749   8.221  0.0108 -0.0445 -0.0353
  321loPI   C6A 5132  10.389   3.827   8.115 -0.2049  0.0636  0.1351
  321loPI   C1B 5133   9.964   3.455   9.321  0.2119 -0.1921 -0.2199
  321loPI   C2B 5134   9.978   3.613   8.983  0.1881 -0.2053  0.3837
  321loPI   C3B 5135  10.119   3.853   8.672  0.1420 -0.0063 -0.0556
  321loPI   C4B 5136  10.276   4.203   8.456  0.0585 -0.1559 -0.2423
  322loPI    C1 5137   6.243  11.461  11.050  0.0699  0.0240 -0.0285
  322loPI    C2 5138   5.926  11.346  11.265  0.0063  0.0321 -0.1172
  322loPI    C3 5139   6.258  11.473  11.450 -0.1030  0.1890 -0.0256
  322loPI   PO4 5140   6.324  11.312  10.829 -0.0335 -0.1056  0.0853
  322loPI   GL1 5141   6.315  11.333  10.343  0.0056 -0.0485 -0.0966
  322loPI   GL2 5142   6.083  11.608  10.144 -0.0208 -0.1770 -0.2525
  322loPI   C1A 5143   6.278  11.117   9.951  0.1055  0.1891  0.0161
  322loPI   C2A 5144   6.495  10.856   9.569 -0.0511 -0.0126 -0.2374
  322loPI   C3A 5145   6.419  10.937   9.172  0.0985 -0.0630  0.1406
  322loPI   C4A 5146   6.386  11.049   8.746  0.1663  0.0136  0.0457
  322loPI   C5A 5147   6.742  11.052   8.318 -0.0281  0.0789  0.0566
  322loPI   C6A 5148   6.992  10.615   8.240 -0.0351 -0.1054 -0.2382
  322loPI   C1B 5149   5.887  11.683   9.768  0.0957  0.0615  0.1893
  322loPI   C2B 5150   5.737  11.677   9.248  0.2843  0.0430  0.4157
  322loPI   C3B 5151   5.602  11.641   8.904  0.0207 -0.0734  0.0063
  322loPI   C4B 5152   5.644  11.675   8.441  0.1812 -0.1771 -0.1484
  323loPI    C1 5153  10.762   1.108  10.519  0.1446 -0.0031  0.0322
  323loPI    C2 5154  10.851   1.293  10.862 -0.1171  0.1457  0.0222
  323loPI    C3 5155  10.478   1.166  10.794  0.0165 -0.2183 -0.0524
  323loPI   PO4 5156  10.973   0.976  10.466 -0.1806  0.0474  0.0140
  323loPI   GL1 5157  11.045   0.812  10.018  0.0755 -0.4085  0.1522
  323loPI   GL2 5158  10.857   0.962   9.888  0.2562  0.0353 -0.0048
  323loPI   C1A 5159  11.210   0.993   9.543  0.0206  0.0753 -0.0789
  323loPI   C2A 5160  11.500   0.973   9.244  0.3608  0.0207 -0.0122
  323loPI   C3A 5161  11.861   0.829   9.125 -0.1553  0.0150 -0.0845
  323loPI   C4A 5162  12.089   0.775   8.763  0.0290 -0.5139 -0.0186
  323loPI   C5A 5163  12.183   0.533   8.403  0.0616  0.3175  0.1884
  323loPI   C6A 5164  12.155   0.253   8.021  0.0260  0.0955  0.0897
  323loPI   C1B 5165  10.592   0.714   9.577 -0.1229 -0.0060  0.0680
  323loPI   C2B 5166  10.530   0.688   9.137  0.2161  0.1581  0.0376
  323loPI   C3B 5167  10.588   0.620   8.757  0.1712 -0.1754  0.3036
  323loPI   C4B 5168  10.765   0.515   8.400 -0.1951 -0.0718 -0.2035
  324loPI    C1 5169   4.633   4.498  10.347  0.0387  0.2654  0.1187
  324loPI    C2 5170   4.310   4.689  10.211  0.0344  0.1154 -0.0863
  324loPI    C3 5171   4.470   4.794  10.562 -0.1733  0.2606 -0.0324
  324loPI   PO4 5172   4.593   4.282  10.255  0.1560 -0.0142 -0.1904
  324loPI   GL1 5173   4.370   4.105   9.854  0.0526  0.0421 -0.1076
  324loPI   GL2 5174   4.562   4.117   9.753 -0.1872  0.1002 -0.0246
  324loPI   C1A 5175   4.110   4.305   9.532 -0.1177 -0.0802 -0.1883
  324loPI   C2A 5176   4.081   4.354   9.142 -0.2842 -0.0381  0.0589
  324loPI   C3A 5177   4.171   4.546   8.756 -0.2800 -0.0696 -0.0863
  324loPI   C4A 5178   4.380   4.420   8.480 -0.3389  0.2299  0.0202
  324loPI   C5A 5179   4.367   4.612   8.051  0.1531 -0.0770  0.1043
  324loPI   C6A 5180   4.267   4.430   7.630 -0.1592 -0.0752  0.1375
  324loPI   C1B 5181   4.551   4.162   9.271 -0.1145  0.1712  0.0274
  324loPI   C2B 5182   4.555   4.187   8.932  0.1312 -0.2285  0.0353
  324loPI   C3B 5183   4.827   4.228   8.572  0.2021  0.1988  0.2871
  324loPI   C4B 5184   4.800   4.244   8.132 -0.4127  0.0216  0.2488
  325loPI    C1 5185  16.741   6.002  10.839  0.0600 -0.1858  0.2068
  325loPI    C2 5186  16.934   6.273  11.062 -0.0843 -0.0116  0.1222
  325loPI    C3 5187  17.068   5.897  11.044 -0.0075 -0.0005  0.4142
  325loPI   PO4 5188  16.568   6.125  10.510 -0.0706  0.2951  0.0738
  325loPI   GL1 5189  16.735   6.363  10.231  0.0513  0.2212  0.3540
  325loPI   GL2 5190  16.764   6.572   9.945 -0.0327  0.1767  0.0382
  325loPI   C1A 5191  16.733   6.083   9.858  0.0712  0.1345 -0.1070
  325loPI   C2A 5192  16.534   5.921   9.450 -0.0535 -0.2267 -0.0212
  325loPI   C3A 5193  16.524   6.031   8.987  0.0933  0.0372 -0.1385
  325loPI   C4A 5194  16.567   6.075   8.560  0.3349  0.0142 -0.0885
  325loPI   C5A 5195  16.415   6.145   8.119 -0.4349 -0.0469  0.1471
  325loPI   C6A 5196  16.258   6.430   7.781  0.0548  0.1325 -0.1420
  325loPI   C1B 5197  16.543   6.473   9.551  0.1926 -0.0087  0.2067
  325loPI   C2B 5198  16.525   6.527   9.107  0.1519 -0.0203  0.1235
  325loPI   C3B 5199  16.435   6.568   8.737  0.3573 -0.3348 -0.0175
  325loPI   C4B 5200  16.315   6.642   8.291  0.0434  0.1048 -0.0592
  326loPI    C1 5201   6.346   9.991  11.087  0.1626  0.0422 -0.2515
  326loPI    C2 5202   6.133   9.878  10.767  0.0935  0.1115 -0.2304
  326loPI    C3 5203   6.341   9.607  10.976 -0.1577  0.0041 -0.1161
  326loPI   PO4 5204   6.457  10.230  10.941 -0.0025 -0.0447 -0.2003
  326loPI   GL1 5205   6.572  10.281  10.550 -0.1842  0.0961 -0.0573
  326loPI   GL2 5206   6.460  10.077  10.434  0.0131  0.1191 -0.1765
  326loPI   C1A 5207   6.721  10.514  10.143  0.0175 -0.0368  0.0227
  326loPI   C2A 5208   6.905  10.629   9.821  0.1903  0.1251 -0.0542
  326loPI   C3A 5209   7.020  10.846   9.476  0.0565 -0.0884 -0.3750
  326loPI   C4A 5210   7.236  10.936   9.085  0.0104 -0.2861 -0.1784
  326loPI   C5A 5211   7.483  10.809   8.673  0.1751 -0.2391 -0.0333
  326loPI   C6A 5212   7.522  10.776   8.212  0.1919 -0.0564  0.0739
  326loPI   C1B 5213   6.477   9.945  10.057 -0.0894  0.2700  0.0216
  326loPI   C2B 5214   6.498   9.836   9.667  0.1185 -0.2151  0.0351
  326loPI   C3B 5215   6.480   9.848   9.270 -0.0427 -0.2395  0.2894
  326loPI   C4B 5216   6.581   9.644   8.932 -0.1268  0.4006 -0.0620
  327loPI    C1 5217   2.206   5.115  10.392  0.2949 -0.0864  0.1756
  327loPI    C2 5218   1.900   4.915  10.553  0.0558  0.0827 -0.0597
  327loPI    C3 5219   1.977   5.289  10.670  0.0520  0.1089 -0.1406
  327loPI   PO4 5220   2.144   5.115  10.107  0.2445 -0.4003 -0.2217
  327loPI   GL1 5221   2.380   5.146   9.731 -0.0051 -0.0875  0.2288
  327loPI   GL2 5222   2.633   5.063  10.021 -0.1333 -0.3480  0.0236
  327loPI   C1A 5223   2.279   5.358   9.367  0.2938  0.0354 -0.3948
  327loPI   C2A 5224   2.147   5.396   8.963  0.2659  0.3728  0.1172
  327loPI   C3A 5225   2.009   5.407   8.495  0.0588 -0.0728  0.0715
  327loPI   C4A 5226   1.729   5.321   8.060 -0.2642 -0.1534  0.0826
  327loPI   C5A 5227   1.376   5.070   8.205  0.1320 -0.0546  0.3127
  327loPI   C6A 5228   1.095   5.214   8.417  0.0328  0.1965 -0.4391
  327loPI   C1B 5229   2.883   5.133   9.721  0.0917  0.1149  0.1231
  327loPI   C2B 5230   2.705   5.158   9.337 -0.1520 -0.2862 -0.0514
  327loPI   C3B 5231   2.499   5.095   8.936  0.0942 -0.2299  0.1768
  327loPI   C4B 5232   2.281   4.960   8.661  0.1999  0.2612  0.1909
  328loPI    C1 5233  14.188   5.186  10.317 -0.1006 -0.1266  0.0276
  328loPI    C2 5234  14.537   5.334  10.187 -0.0675 -0.1680  0.0687
  328loPI    C3 5235  14.519   5.143  10.538 -0.1845  0.0691  0.1944
  328loPI   PO4 5236  14.015   5.383  10.244 -0.0787  0.1028  0.0160
  328loPI   GL1 5237  13.898   5.776  10.089 -0.4157  0.2208  0.1024
  328loPI   GL2 5238  13.877   6.093   9.911  0.2300 -0.3440 -0.2126
  328loPI   C1A 5239  13.912   5.674   9.637  0.2920 -0.1443 -0.1277
  328loPI   C2A 5240  13.840   5.660   9.220 -0.0405 -0.2459  0.1503
  328loPI   C3A 5241  13.729   5.677   8.831  0.0208 -0.2161  0.5706
  328loPI   C4A 5242  13.714   5.706   8.433 -0.0405 -0.1699 -0.2823
  328loPI   C5A 5243  13.476   5.641   8.032 -0.2464  0.1004  0.0822
  328loPI   C6A 5244  13.511   5.772   7.675 -0.0076 -0.1421  0.2299
  328loPI   C1B 5245  13.747   6.158   9.489 -0.1487 -0.1608  0.2284
  328loPI   C2B 5246  13.782   6.114   9.054  0.2842  0.0269  0.1676
  328loPI   C3B 5247  13.733   6.202   8.632  0.1564  0.0872  0.3419
  328loPI   C4B 5248  13.663   6.162   8.213  0.0445 -0.0575  0.2781
  329loPI    C1 5249   9.194  13.419  10.735 -0.0773 -0.0497 -0.0370
  329loPI    C2 5250   8.799  13.479  10.714 -0.1105 -0.2060  0.1171
  329loPI    C3 5251   8.945  13.107  10.707  0.0479 -0.1415 -0.1400
  329loPI   PO4 5252   9.315  13.431  10.513  0.1157  0.3287 -0.2339
  329loPI   GL1 5253   9.287  13.523  10.143  0.0288  0.1818 -0.1609
  329loPI   GL2 5254   9.483  13.646  10.132 -0.0834  0.1504  0.2181
  329loPI   C1A 5255   9.157  13.324   9.791  0.1294  0.2731  0.1244
  329loPI   C2A 5256   9.136  13.109   9.447  0.0975 -0.0902  0.0967
  329loPI   C3A 5257   8.983  12.975   9.104 -0.0292 -0.2093  0.0444
  329loPI   C4A 5258   8.782  13.112   8.793 -0.0662  0.1794  0.0435
  329loPI   C5A 5259   8.464  13.248   8.425  0.1932  0.3413 -0.0477
  329loPI   C6A 5260   8.460  13.558   8.166 -0.0426 -0.1910 -0.0190
  329loPI   C1B 5261   9.522  13.639   9.711  0.0584 -0.1582  0.3026
  329loPI   C2B 5262   9.652  13.628   9.347 -0.1507  0.1148 -0.1925
  329loPI   C3B 5263   9.562  13.818   9.002 -0.1574 -0.2913 -0.1104
  329loPI   C4B 5264   9.712  14.051   8.729 -0.2406 -0.2036  0.2542
  330loPI    C1 5265  15.924  10.476  10.509  0.1469 -0.0663 -0.0311
  330loPI    C2 5266  16.287  10.444  10.674  0.1187  0.0756  0.0603
  330loPI    C3 5267  16.003  10.659  10.856 -0.0340 -0.0952  0.0264
  330loPI   PO4 5268  16.028  10.498  10.190  0.0323 -0.0223  0.1018
  330loPI   GL1 5269  15.751  10.707   9.780 -0.2157  0.0192  0.0644
  330loPI   GL2 5270  15.551  10.434   9.943 -0.4929 -0.3005  0.2239
  330loPI   C1A 5271  15.580  10.727   9.394 -0.0677  0.3074 -0.0679
  330loPI   C2A 5272  15.678  10.803   9.056 -0.3023 -0.2044  0.0718
  330loPI   C3A 5273  15.763  10.681   8.686  0.1094 -0.0358  0.1626
  330loPI   C4A 5274  16.052  10.898   8.373 -0.1013  0.0281  0.2907
  330loPI   C5A 5275  16.497  10.831   8.288 -0.1254 -0.1396 -0.1682
  330loPI   C6A 5276  16.669  10.765   7.856  0.2169 -0.1618 -0.1824
  330loPI   C1B 5277  15.726  10.211   9.550  0.1936 -0.1815  0.0514
  330loPI   C2B 5278  15.783  10.256   9.093 -0.2773 -0.0760 -0.2055
  330loPI   C3B 5279  15.773  10.153   8.617 -0.0053 -0.1850  0.2474
  330loPI   C4B 5280  15.906  10.072   8.185 -0.2912  0.2114  0.0049
  331loPI    C1 5281  16.722   4.961  10.335 -0.1044 -0.0168 -0.1434
  331loPI    C2 5282  16.751   4.756  10.678  0.1249  0.1779 -0.0441
  331loPI    C3 5283  16.680   5.150  10.685  0.2157  0.1985 -0.2169
  331loPI   PO4 5284  16.493   4.769  10.174  0.1111 -0.1517 -0.1416
  331loPI   GL1 5285  16.261   4.904   9.814  0.2205 -0.0995 -0.0347
  331loPI   GL2 5286  16.351   5.234   9.656 -0.2593 -0.2296  0.1642
  331loPI   C1A 5287  16.122   4.800   9.433  0.1265 -0.0295  0.0029
  331loPI   C2A 5288  16.171   4.745   9.016 -0.0984 -0.2810 -0.0747
  331loPI   C3A 5289  16.051   4.703   8.534 -0.0004  0.0404  0.2028
  331loPI   C4A 5290  15.992   4.636   8.070 -0.0370  0.1924 -0.1304
  331loPI   C5A 5291  15.965   4.303   7.845 -0.0491 -0.1216 -0.1172
  331loPI   C6A 5292  15.756   3.962   8.077  0.3595  0.1491  0.0858
  331loPI   C1B 5293  16.229   5.243   9.247 -0.1625  0.1167  0.0709
  331loPI   C2B 5294  16.175   5.283   8.777 -0.0644 -0.1013 -0.1746
  331loPI   C3B 5295  16.104   5.149   8.324 -0.0013 -0.0744 -0.2678
  331loPI   C4B 5296  16.221   5.069   7.908 -0.1557 -0.0649  0.0094
  332loPI    C1 5297  10.715   9.918  10.756  0.1732 -0.0832 -0.0815
  332loPI    C2 5298  11.010   9.741  10.960  0.2687 -0.0143 -0.1588
  332loPI    C3 5299  10.650   9.568  10.938  0.2775 -0.0557  0.0098
  332loPI   PO4 5300  10.891   9.973  10.492  0.0760  0.1322  0.0385
  332loPI   GL1 5301  11.071   9.928  10.106  0.2467 -0.1521  0.0209
  332loPI   GL2 5302  10.854  10.236  10.037  0.4935 -0.1655  0.2202
  332loPI   C1A 5303  11.198   9.581   9.889 -0.0267  0.0355 -0.1409
  332loPI   C2A 5304  11.525   9.366   9.537 -0.2072  0.0759  0.1653
  332loPI   C3A 5305  11.765   9.345   9.162  0.0939  0.0833  0.2369
  332loPI   C4A 5306  11.909   9.233   8.730 -0.0359  0.1756 -0.0249
  332loPI   C5A 5307  11.991   9.042   8.373  0.1732  0.2950 -0.2470
  332loPI   C6A 5308  11.772   8.848   8.015 -0.0817  0.0716 -0.0745
  332loPI   C1B 5309  10.612  10.167   9.699  0.0991 -0.0431 -0.1118
  332loPI   C2B 5310  10.674  10.204   9.213 -0.1327  0.1914  0.1431
  332loPI   C3B 5311  10.871  10.366   8.775 -0.2795  0.0391 -0.4387
  332loPI   C4B 5312  10.958  10.736   8.632 -0.1027 -0.0189 -0.0252
  333loPI    C1 5313  10.069  14.447  10.454 -0.1539 -0.1919  0.1642
  333loPI    C2 5314  10.417  14.323  10.608 -0.0050  0.2551  0.2033
  333loPI    C3 5315  10.173  14.062  10.427  0.3146 -0.0765  0.2404
  333loPI   PO4 5316   9.913  14.624  10.583  0.0048  0.0259 -0.0814
  333loPI   GL1 5317   9.579  14.770  10.348  0.1533 -0.0200  0.3381
  333loPI   GL2 5318   9.489  15.088  10.158 -0.1585  0.1185  0.1446
  333loPI   C1A 5319   9.482  14.574   9.920  0.0850  0.4413  0.5314
  333loPI   C2A 5320   9.591  14.565   9.470  0.1153 -0.3854  0.2646
  333loPI   C3A 5321   9.842  14.215   9.208  0.1287 -0.1587 -0.1679
  333loPI   C4A 5322  10.082  13.788   9.115 -0.2239  0.0708 -0.1105
  333loPI   C5A 5323   9.893  13.452   8.843  0.2239 -0.1753  0.1273
  333loPI   C6A 5324   9.587  13.568   8.523  0.1076  0.1281  0.0993
  333loPI   C1B 5325   9.271  15.046   9.755 -0.0670 -0.2930  0.1924
  333loPI   C2B 5326   9.220  14.989   9.261 -0.5169  0.0163 -0.0654
  333loPI   C3B 5327   9.003  14.722   8.987  0.1665 -0.0134 -0.0641
  333loPI   C4B 5328   8.684  14.673   8.802 -0.1326  0.2737  0.0500
  334loPI    C1 5329   2.626  12.635  10.771 -0.1651 -0.1631  0.0757
  334loPI    C2 5330   2.444  12.560  10.422  0.0179 -0.1329 -0.0270
  334loPI    C3 5331   2.801  12.397  10.501 -0.0007 -0.1006  0.1263
  334loPI   PO4 5332   2.583  12.915  10.764 -0.1911  0.1979  0.1473
  334loPI   GL1 5333   2.540  13.024  10.332 -0.2229  0.3862 -0.0617
  334loPI   GL2 5334   2.922  12.889  10.380 -0.1353  0.0336 -0.3482
  334loPI   C1A 5335   2.723  13.069   9.834  0.2054  0.0401 -0.0885
  334loPI   C2A 5336   2.655  13.235   9.445  0.2948 -0.2542 -0.0879
  334loPI   C3A 5337   2.515  13.141   8.967  0.1126  0.0081 -0.0398
  334loPI   C4A 5338   2.416  13.159   8.594 -0.2092 -0.2522  0.0748
  334loPI   C5A 5339   2.606  13.309   8.182  0.0729  0.1065 -0.1863
  334loPI   C6A 5340   2.556  13.690   7.958 -0.0210 -0.1311 -0.0959
  334loPI   C1B 5341   2.688  12.641  10.056 -0.0470  0.2689 -0.0204
  334loPI   C2B 5342   2.569  12.639   9.525  0.0932 -0.1928  0.0201
  334loPI   C3B 5343   2.509  12.658   9.076 -0.0568  0.0087  0.2509
  334loPI   C4B 5344   2.440  12.669   8.681  0.2212 -0.1149 -0.0804
  335loPI    C1 5345   9.005   5.239  11.120  0.1293 -0.0898  0.2076
  335loPI    C2 5346   8.650   5.058  11.091 -0.0011  0.1887  0.0297
  335loPI    C3 5347   8.731   5.288  11.408 -0.0056  0.1798  0.0372
  335loPI   PO4 5348   9.060   5.324  10.821 -0.3192 -0.0464 -0.0878
  335loPI   GL1 5349   8.932   5.470  10.379  0.0521 -0.2489 -0.2413
  335loPI   GL2 5350   8.774   5.666  10.354 -0.0910  0.0139  0.0126
  335loPI   C1A 5351   9.267   5.511   9.967  0.6284  0.1891  0.0094
  335loPI   C2A 5352   9.295   5.547   9.550  0.0041  0.0767 -0.1568
  335loPI   C3A 5353   9.331   5.525   9.144 -0.0735  0.0470  0.0485
  335loPI   C4A 5354   9.237   5.457   8.621  0.3163 -0.4907  0.0746
  335loPI   C5A 5355   8.967   5.602   8.255  0.6137 -0.1479  0.1171
  335loPI   C6A 5356   8.711   5.997   8.280  0.0425  0.0485 -0.0588
  335loPI   C1B 5357   8.805   5.765   9.936 -0.1028 -0.1325  0.0979
  335loPI   C2B 5358   8.842   5.815   9.501  0.2075  0.0225  0.0432
  335loPI   C3B 5359   8.703   5.740   9.121  0.3565  0.0882  0.0872
  335loPI   C4B 5360   8.769   5.636   8.702  0.0603  0.0675  0.0071
  336loPI    C1 5361   1.884  12.753  10.828  0.0596  0.0561 -0.2192
  336loPI    C2 5362   1.850  12.989  11.149  0.0260  0.2212 -0.3428
  336loPI    C3 5363   1.565  12.720  11.068 -0.0319  0.2722 -0.3088
  336loPI   PO4 5364   2.079  12.855  10.638 -0.0351  0.0705 -0.2274
  336loPI   GL1 5365   2.030  12.973  10.347 -0.0177 -0.1982 -0.0700
  336loPI   GL2 5366   2.123  13.340  10.399 -0.1714 -0.2141  0.1900
  336loPI   C1A 5367   2.246  12.932   9.866  0.3768 -0.1143 -0.2397
  336loPI   C2A 5368   2.222  12.979   9.416 -0.0302 -0.0481 -0.0269
  336loPI   C3A 5369   2.073  12.967   8.997  0.3379  0.0738 -0.1334
  336loPI   C4A 5370   1.928  12.961   8.572  0.1873 -0.3011  0.0005
  336loPI   C5A 5371   2.013  13.279   8.279  0.0963  0.3625  0.1830
  336loPI   C6A 5372   2.141  13.493   8.058 -0.0109  0.0727 -0.1548
  336loPI   C1B 5373   2.284  13.417  10.029  0.6528 -0.2039 -0.1817
  336loPI   C2B 5374   2.201  13.470   9.674 -0.2936  0.2141 -0.1805
  336loPI   C3B 5375   2.264  13.506   9.257 -0.1216 -0.1679  0.0917
  336loPI   C4B 5376   2.109  13.425   8.880  0.1376  0.1875  0.2256
  337loPI    C1 5377  14.324   4.729  10.422 -0.0946  0.0306 -0.1417
  337loPI    C2 5378  14.040   4.638  10.688 -0.0758  0.0292 -0.1223
  337loPI    C3 5379  14.425   4.576  10.778 -0.0718 -0.0054 -0.1636
  337loPI   PO4 5380  14.287   4.625  10.256  0.0377 -0.2997 -0.0867
  337loPI   GL1 5381  14.055   4.607   9.900 -0.1907 -0.1400 -0.3997
  337loPI   GL2 5382  13.807   4.580   9.923  0.0483 -0.0458 -0.1830
  337loPI   C1A 5383  14.145   4.935   9.504 -0.0202  0.0105 -0.0878
  337loPI   C2A 5384  14.037   5.100   9.081 -0.1386 -0.1601  0.1116
  337loPI   C3A 5385  13.782   5.149   8.732 -0.2801 -0.0475  0.0018
  337loPI   C4A 5386  13.700   5.174   8.285 -0.1507 -0.0547  0.0596
  337loPI   C5A 5387  13.623   4.895   7.943  0.2800  0.2338 -0.1348
  337loPI   C6A 5388  13.622   4.819   7.518 -0.0894 -0.0956  0.0641
  337loPI   C1B 5389  13.688   4.632   9.530 -0.0180  0.1518  0.3381
  337loPI   C2B 5390  13.652   4.795   9.151  0.0372 -0.0432  0.1469
  337loPI   C3B 5391  13.415   4.870   8.781  0.1073  0.0129  0.0692
  337loPI   C4B 5392  13.338   4.686   8.345  0.0302  0.0827  0.1540
  338loPI    C1 5393   2.004   5.861  10.563 -0.0558  0.0939 -0.1425
  338loPI    C2 5394   2.148   6.234  10.548  0.0051  0.0801  0.0647
  338loPI    C3 5395   2.015   6.085  10.894 -0.1000 -0.0612 -0.0352
  338loPI   PO4 5396   2.136   5.702  10.425 -0.0170 -0.2119 -0.4457
  338loPI   GL1 5397   2.172   5.599  10.040 -0.1859  0.0857  0.0646
  338loPI   GL2 5398   1.877   5.453   9.841 -0.0607 -0.3714  0.1466
  338loPI   C1A 5399   2.215   5.788   9.614  0.1046 -0.1426 -0.0955
  338loPI   C2A 5400   2.219   5.831   9.232  0.0225 -0.0646 -0.4072
  338loPI   C3A 5401   2.279   5.916   8.799 -0.1413 -0.1548 -0.0098
  338loPI   C4A 5402   2.300   5.803   8.384  0.0471 -0.0521  0.0746
  338loPI   C5A 5403   2.445   5.360   8.180 -0.0375 -0.0538 -0.0151
  338loPI   C6A 5404   2.724   5.124   7.953 -0.4131  0.2771  0.1660
  338loPI   C1B 5405   1.803   5.454   9.373 -0.1646 -0.4740 -0.1114
  338loPI   C2B 5406   1.658   5.498   8.982 -0.1819 -0.1977 -0.1014
  338loPI   C3B 5407   1.539   5.547   8.495 -0.0756  0.4445 -0.3183
  338loPI   C4B 5408   1.666   5.809   8.221 -0.1503  0.3308  0.1101
  339loPI    C1 5409   6.261  13.176  10.932  0.0014  0.2791 -0.2371
  339loPI    C2 5410   6.252  13.183  11.332 -0.1768 -0.1783 -0.2266
  339loPI    C3 5411   6.260  13.526  11.126  0.0759  0.0613  0.1680
  339loPI   PO4 5412   6.100  13.069  10.844  0.2157 -0.0019  0.0532
  339loPI   GL1 5413   5.887  13.152  10.432  0.0606  0.2610  0.0884
  339loPI   GL2 5414   6.122  13.126  10.319  0.2830 -0.1945 -0.0972
  339loPI   C1A 5415   5.814  13.002   9.867 -0.1150 -0.3731  0.2110
  339loPI   C2A 5416   5.855  12.864   9.471  0.4030 -0.2692  0.3902
  339loPI   C3A 5417   5.963  12.678   9.095  0.0413  0.1260 -0.2401
  339loPI   C4A 5418   6.088  12.375   8.749  0.0751  0.0594  0.1643
  339loPI   C5A 5419   5.935  12.170   8.377 -0.2728 -0.0259  0.0192
  339loPI   C6A 5420   6.031  11.759   8.151  0.0480 -0.3234  0.0474
  339loPI   C1B 5421   6.293  12.990   9.939 -0.0374 -0.2109  0.3031
  339loPI   C2B 5422   6.445  13.019   9.590 -0.2163  0.0156 -0.2061
  339loPI   C3B 5423   6.275  13.067   9.205 -0.0273 -0.1738  0.1189
  339loPI   C4B 5424   6.190  13.064   8.738  0.1408  0.1194  0.2389
  340loPI    C1 5425   2.044  17.058  11.073  0.0125  0.0119 -0.0824
  340loPI    C2 5426   2.332  17.122  11.343  0.1050 -0.0522 -0.1652
  340loPI    C3 5427   2.007  16.912  11.444 -0.0447  0.2570  0.0102
  340loPI   PO4 5428   2.149  17.113  10.845 -0.1605 -0.1291 -0.1845
  340loPI   GL1 5429   2.033  17.197  10.433  0.0704  0.0076  0.1110
  340loPI   GL2 5430   1.736  17.178  10.300  0.3782 -0.0644  0.0117
  340loPI   C1A 5431   2.027  17.252   9.883 -0.0271  0.1299  0.0731
  340loPI   C2A 5432   2.037  17.188   9.461  0.4099 -0.1988 -0.1562
  340loPI   C3A 5433   1.967  17.191   9.032 -0.0940 -0.4206  0.1165
  340loPI   C4A 5434   2.010  17.095   8.624 -0.1280 -0.0576  0.1154
  340loPI   C5A 5435   2.140  17.109   8.154 -0.3112  0.2151  0.0002
  340loPI   C6A 5436   1.970  17.506   7.958 -0.3902 -0.0552 -0.0402
  340loPI   C1B 5437   1.583  17.085   9.893  0.1984  0.0658 -0.2331
  340loPI   C2B 5438   1.511  17.046   9.473 -0.0903  0.0463 -0.1467
  340loPI   C3B 5439   1.431  16.947   9.079 -0.0032  0.2323  0.1715
  340loPI   C4B 5440   1.450  17.032   8.703 -0.0792  0.0826  0.0162
  341loPI    C1 5441   5.343  10.805  10.950 -0.0315  0.0665  0.1713
  341loPI    C2 5442   4.964  10.933  10.946 -0.0044  0.1476  0.1775
  341loPI    C3 5443   5.177  10.952  11.284  0.1152  0.4296  0.0890
  341loPI   PO4 5444   5.398  10.840  10.746  0.1154 -0.2164  0.0224
  341loPI   GL1 5445   5.332  10.605  10.361 -0.2177  0.2179  0.1977
  341loPI   GL2 5446   5.079  10.479  10.244  0.0159 -0.1335  0.4606
  341loPI   C1A 5447   5.378  10.705   9.903 -0.0920 -0.0517 -0.3333
  341loPI   C2A 5448   5.351  10.746   9.390  0.0677  0.1759  0.4286
  341loPI   C3A 5449   5.485  10.546   9.132  0.2407 -0.0241  0.2938
  341loPI   C4A 5450   5.380  10.614   8.754  0.1483 -0.0753  0.1615
  341loPI   C5A 5451   5.572  10.578   8.305 -0.0630  0.1701  0.3727
  341loPI   C6A 5452   5.814  10.516   7.928 -0.1706 -0.2454 -0.0220
  341loPI   C1B 5453   5.069  10.354   9.706  0.3782 -0.0815 -0.1702
  341loPI   C2B 5454   5.066  10.290   9.281  0.0063 -0.2300 -0.1915
  341loPI   C3B 5455   4.919  10.374   8.930 -0.2310  0.0645 -0.2629
  341loPI   C4B 5456   4.789  10.385   8.419 -0.2638 -0.1037 -0.0105
  342loPI    C1 5457   3.502  15.786  10.837 -0.2593  0.0730 -0.3123
  342loPI    C2 5458   3.276  15.762  11.166  0.1122 -0.3120 -0.0744
  342loPI    C3 5459   3.624  15.960  11.176  0.0612 -0.2091 -0.2771
  342loPI   PO4 5460   3.460  15.565  10.710  0.1331  0.1982  0.0523
  342loPI   GL1 5461   3.349  15.578  10.341 -0.0379  0.0246 -0.0090
  342loPI   GL2 5462   3.186  15.753  10.135 -0.4772 -0.2665  0.1663
  342loPI   C1A 5463   3.632  15.589   9.906 -0.4178 -0.1950 -0.3250
  342loPI   C2A 5464   3.703  15.542   9.389  0.4071  0.5464  0.4479
  342loPI   C3A 5465   3.682  15.330   9.122  0.3639  0.0536  0.1672
  342loPI   C4A 5466   3.627  15.335   8.639 -0.1832  0.2930 -0.2195
  342loPI   C5A 5467   3.285  15.126   8.328 -0.0523  0.1708 -0.1752
  342loPI   C6A 5468   3.336  14.650   8.204  0.0462 -0.0701 -0.1854
  342loPI   C1B 5469   3.216  15.652   9.703  0.1419  0.1535  0.2462
  342loPI   C2B 5470   3.225  15.577   9.299 -0.2574  0.0211  0.1820
  342loPI   C3B 5471   3.275  15.570   8.805 -0.0509  0.0432  0.3008
  342loPI   C4B 5472   3.005  15.528   8.489 -0.0848 -0.1097 -0.0110
  343loPI    C1 5473  12.400  14.327  10.411 -0.0373 -0.1304 -0.0585
  343loPI    C2 5474  12.401  14.286  10.809  0.0131  0.1667 -0.0252
  343loPI    C3 5475  12.618  14.575  10.637  0.0245  0.0142 -0.2730
  343loPI   PO4 5476  12.464  14.060  10.256 -0.0752 -0.0488 -0.1531
  343loPI   GL1 5477  12.641  14.014   9.862 -0.0552 -0.1457 -0.0044
  343loPI   GL2 5478  12.743  13.802   9.722  0.1246  0.0672  0.1954
  343loPI   C1A 5479  12.655  14.156   9.383 -0.0579  0.2029 -0.0778
  343loPI   C2A 5480  12.819  14.333   8.996  0.1128  0.0954  0.2031
  343loPI   C3A 5481  12.844  14.647   8.873 -0.2355 -0.0361 -0.3163
  343loPI   C4A 5482  12.695  14.851   8.519  0.0102 -0.0727 -0.1438
  343loPI   C5A 5483  12.859  14.753   8.127  0.1181  0.1623  0.0715
  343loPI   C6A 5484  13.248  14.617   8.088 -0.1288 -0.1637  0.0153
  343loPI   C1B 5485  12.754  13.679   9.221 -0.0841 -0.1615 -0.1641
  343loPI   C2B 5486  12.797  13.683   8.855 -0.0697 -0.0397 -0.0199
  343loPI   C3B 5487  13.070  14.015   8.673 -0.1598  0.0277  0.1747
  343loPI   C4B 5488  13.320  14.242   8.487  0.0791 -0.0472  0.1911
  344loPI    C1 5489  11.371   8.663  10.669 -0.0027 -0.4046  0.0057
  344loPI    C2 5490  11.093   8.404  10.795 -0.2375 -0.0730  0.1855
  344loPI    C3 5491  11.124   8.764  10.967  0.2617 -0.0775  0.1198
  344loPI   PO4 5492  11.322   8.703  10.440  0.1928 -0.1510 -0.3269
  344loPI   GL1 5493  11.185   8.938  10.129  0.2992  0.1517  0.1390
  344loPI   GL2 5494  10.838   9.122  10.067  0.4257 -0.0891 -0.1341
  344loPI   C1A 5495  11.326   8.893   9.681  0.1492 -0.1411 -0.1000
  344loPI   C2A 5496  11.492   8.809   9.324 -0.0299 -0.1379  0.0027
  344loPI   C3A 5497  11.401   8.958   8.997 -0.1190  0.2037  0.0236
  344loPI   C4A 5498  11.494   8.971   8.672  0.0470 -0.1248  0.0457
  344loPI   C5A 5499  11.410   8.584   8.329  0.2573 -0.2404 -0.2193
  344loPI   C6A 5500  11.325   8.646   7.938  0.3538  0.0941  0.3400
  344loPI   C1B 5501  10.941   9.189   9.758 -0.1113 -0.0787  0.1647
  344loPI   C2B 5502  11.047   9.104   9.349  0.0570  0.2427 -0.3186
  344loPI   C3B 5503  10.981   9.341   8.956  0.2832 -0.1685  0.0958
  344loPI   C4B 5504  10.969   9.398   8.558  0.0982 -0.0829  0.0510
  345loPI    C1 5505   6.118   6.917  10.923  0.0638  0.0634  0.0909
  345loPI    C2 5506   6.144   7.062  11.295 -0.2295 -0.2304  0.2312
  345loPI    C3 5507   6.280   6.695  11.214  0.0264 -0.0878 -0.0024
  345loPI   PO4 5508   6.193   7.046  10.727  0.0768  0.0102 -0.2481
  345loPI   GL1 5509   6.082   7.051  10.293  0.0414 -0.0617 -0.1593
  345loPI   GL2 5510   5.842   6.797  10.106 -0.2131  0.0975 -0.4474
  345loPI   C1A 5511   6.145   7.108   9.929 -0.2751  0.0156 -0.1729
  345loPI   C2A 5512   6.146   7.059   9.439 -0.2442 -0.3301 -0.1338
  345loPI   C3A 5513   6.180   7.003   8.991  0.4016 -0.0056 -0.0986
  345loPI   C4A 5514   6.153   7.080   8.592 -0.2769 -0.2486 -0.1104
  345loPI   C5A 5515   5.906   7.381   8.330  0.2699  0.1956 -0.1141
  345loPI   C6A 5516   5.828   7.752   8.093  0.1341 -0.1085 -0.1263
  345loPI   C1B 5517   5.681   6.802   9.693  0.0689 -0.0543 -0.2175
  345loPI   C2B 5518   5.822   6.744   9.212  0.0462 -0.0356 -0.0710
  345loPI   C3B 5519   5.883   6.660   8.685 -0.1783  0.1521 -0.1822
  345loPI   C4B 5520   5.770   6.799   8.313 -0.3164 -0.1336  0.0111
  346loPI    C1 5521  13.973  12.634  10.737  0.1229 -0.1499  0.0664
  346loPI    C2 5522  13.773  12.295  10.663 -0.0945 -0.0603  0.2327
  346loPI    C3 5523  13.815  12.425  11.040  0.1799 -0.0170  0.1894
  346loPI   PO4 5524  13.916  12.765  10.497  0.0520  0.4084 -0.2172
  346loPI   GL1 5525  13.793  12.935  10.062  0.0504  0.1616 -0.0867
  346loPI   GL2 5526  13.463  12.956  10.170 -0.0305 -0.0193  0.1886
  346loPI   C1A 5527  13.790  12.899   9.580 -0.6908 -0.1467 -0.1857
  346loPI   C2A 5528  13.833  12.808   9.124 -0.0653 -0.1510  0.0766
  346loPI   C3A 5529  13.872  12.771   8.730 -0.1024 -0.0029 -0.1116
  346loPI   C4A 5530  13.850  12.633   8.343 -0.0028 -0.0137 -0.2157
  346loPI   C5A 5531  13.787  12.215   8.078  0.2782 -0.1844  0.0012
  346loPI   C6A 5532  13.819  11.804   8.173 -0.1097  0.0434  0.0024
  346loPI   C1B 5533  13.451  13.238   9.749 -0.2466  0.4328  0.3580
  346loPI   C2B 5534  13.457  13.114   9.276  0.1731 -0.1101 -0.0142
  346loPI   C3B 5535  13.371  12.899   8.910 -0.0296 -0.0511  0.1334
  346loPI   C4B 5536  13.356  12.860   8.424 -0.0626  0.0538  0.0365
  347loPI    C1 5537   1.841  17.545  10.861  0.0449  0.1622 -0.1713
  347loPI    C2 5538   1.485  17.387  10.767 -0.0001  0.1488  0.0175
  347loPI    C3 5539   1.526  17.604  11.101  0.1661  0.1623 -0.0108
  347loPI   PO4 5540   1.898  17.616  10.648  0.1976 -0.2056  0.0301
  347loPI   GL1 5541   1.843  17.921  10.411  0.2369  0.1760  0.0439
  347loPI   GL2 5542   2.009  17.704  10.174 -0.0339 -0.0149  0.1085
  347loPI   C1A 5543   1.670  18.037  10.041 -0.0105  0.0968  0.1976
  347loPI   C2A 5544   1.687  18.044   9.558  0.0663  0.1747 -0.1717
  347loPI   C3A 5545   1.641  18.008   9.154 -0.0395 -0.2703  0.0439
  347loPI   C4A 5546   1.660  17.926   8.750  0.1651  0.2104 -0.0827
  347loPI   C5A 5547   1.766  17.997   8.358 -0.1007 -0.0614  0.2099
  347loPI   C6A 5548   1.658  18.303   8.089 -0.0854  0.1458 -0.1309
  347loPI   C1B 5549   2.096  17.761   9.731  0.1967 -0.1800 -0.0309
  347loPI   C2B 5550   2.041  17.690   9.313  0.0840 -0.3303 -0.1209
  347loPI   C3B 5551   2.087  17.655   8.919 -0.2451  0.0556 -0.1583
  347loPI   C4B 5552   2.097  17.590   8.498 -0.0118  0.2213  0.0043
  348loPI    C1 5553   5.733  16.056  10.832  0.0600  0.0383 -0.1590
  348loPI    C2 5554   5.384  15.906  10.958  0.0128  0.0328 -0.2949
  348loPI    C3 5555   5.617  16.110  11.211 -0.1386  0.1287 -0.2316
  348loPI   PO4 5556   5.606  16.230  10.637  0.1296 -0.0803  0.1477
  348loPI   GL1 5557   5.603  16.339  10.173  0.1233 -0.0633  0.5315
  348loPI   GL2 5558   5.670  16.632  10.179  0.1392  0.0367 -0.1808
  348loPI   C1A 5559   5.357  16.047   9.840 -0.4135 -0.0025  0.0735
  348loPI   C2A 5560   5.116  15.808   9.490 -0.2253 -0.1383 -0.2857
  348loPI   C3A 5561   4.649  15.735   9.277  0.0564  0.2160  0.0516
  348loPI   C4A 5562   4.549  15.814   8.784 -0.0613  0.0211 -0.3074
  348loPI   C5A 5563   4.416  15.909   8.442  0.1410 -0.3798 -0.0798
  348loPI   C6A 5564   4.035  15.905   8.286  0.0695  0.0813 -0.3533
  348loPI   C1B 5565   5.722  16.626   9.806 -0.1123  0.1709 -0.1022
  348loPI   C2B 5566   5.765  16.753   9.329  0.0404 -0.0116  0.1714
  348loPI   C3B 5567   5.558  16.583   9.015  0.0618 -0.1523 -0.2252
  348loPI   C4B 5568   5.574  16.525   8.509 -0.0782 -0.1345 -0.0011
  349loPI    C1 5569   2.887   0.920  10.879  0.0855  0.1908  0.2385
  349loPI    C2 5570   3.072   0.809  10.542 -0.1840  0.1964  0.0861
  349loPI    C3 5571   3.286   0.934  10.856  0.0815 -0.0242 -0.0035
  349loPI   PO4 5572   2.714   1.086  10.827  0.3088  0.3851  0.1858
  349loPI   GL1 5573   2.790   1.253  10.466  0.0573 -0.2737 -0.0380
  349loPI   GL2 5574   3.032   1.337  10.445 -0.2032 -0.3836  0.3301
  349loPI   C1A 5575   2.717   1.016  10.150  0.0254 -0.1685  0.1913
  349loPI   C2A 5576   2.698   0.866   9.773  0.0093 -0.1464 -0.0567
  349loPI   C3A 5577   2.746   0.805   9.369 -0.0136  0.0712 -0.0566
  349loPI   C4A 5578   2.691   0.716   8.881  0.1561  0.1397 -0.0612
  349loPI   C5A 5579   2.794   0.667   8.471 -0.3509 -0.3945 -0.1682
  349loPI   C6A 5580   2.662   0.531   8.143  0.1760  0.3977  0.3250
  349loPI   C1B 5581   3.183   1.141  10.050 -0.0761 -0.0067  0.3231
  349loPI   C2B 5582   3.177   0.998   9.638 -0.0570 -0.1032  0.0833
  349loPI   C3B 5583   3.251   1.067   9.180  0.0579  0.2801  0.0571
  349loPI   C4B 5584   3.229   0.951   8.688  0.1009 -0.1487  0.0020
  350loPI    C1 5585   9.148   7.469  11.111 -0.0521  0.0860 -0.0254
  350loPI    C2 5586   9.470   7.549  11.335 -0.0600  0.0432  0.0016
  350loPI    C3 5587   9.140   7.399  11.504 -0.0455 -0.0459 -0.0480
  350loPI   PO4 5588   9.192   7.735  10.917 -0.1928  0.1935  0.3225
  350loPI   GL1 5589   9.100   7.809  10.441  0.1780  0.0546  0.1385
  350loPI   GL2 5590   8.827   7.621  10.282 -0.2621  0.0134 -0.1500
  350loPI   C1A 5591   9.277   7.884  10.035  0.1900  0.0394 -0.2565
  350loPI   C2A 5592   9.246   7.841   9.668 -0.1643 -0.4329 -0.2554
  350loPI   C3A 5593   9.354   7.914   9.275 -0.0051 -0.1649 -0.1544
  350loPI   C4A 5594   9.274   7.832   8.823  0.1286  0.1156  0.2704
  350loPI   C5A 5595   9.386   7.854   8.420  0.0974 -0.2098  0.0673
  350loPI   C6A 5596   9.596   7.881   7.972  0.1839  0.1979  0.0584
  350loPI   C1B 5597   8.861   7.511   9.933  0.2376 -0.0174 -0.0574
  350loPI   C2B 5598   8.858   7.539   9.497 -0.0192 -0.0409 -0.1807
  350loPI   C3B 5599   8.932   7.527   9.050 -0.1906 -0.3034  0.1184
  350loPI   C4B 5600   8.920   7.452   8.643  0.1258 -0.1062  0.0577
  351loPI    C1 5601   0.030  11.592  10.366 -0.1004  0.1866  0.1819
  351loPI    C2 5602  -0.230  11.305  10.467  0.1760 -0.1036  0.0856
  351loPI    C3 5603  -0.100  11.334  10.089  0.1939  0.1148  0.1071
  351loPI   PO4 5604  -0.037  11.786  10.373  0.2305  0.0513 -0.0497
  351loPI   GL1 5605  -0.155  11.974  10.041  0.2008  0.1996 -0.3051
  351loPI   GL2 5606  -0.395  12.203  10.197  0.3433  0.2751  0.0902
  351loPI   C1A 5607  -0.141  11.999   9.635 -0.0427 -0.1671 -0.1651
  351loPI   C2A 5608  -0.331  12.045   9.368 -0.0606 -0.0549 -0.0026
  351loPI   C3A 5609  -0.471  12.125   8.896 -0.0680  0.1800  0.4286
  351loPI   C4A 5610  -0.504  12.386   8.500  0.0936  0.0261 -0.0677
  351loPI   C5A 5611  -0.792  12.605   8.177  0.0088  0.2872 -0.0162
  351loPI   C6A 5612  -1.223  12.675   7.998  0.1118 -0.2874 -0.0876
  351loPI   C1B 5613  -0.545  12.377   9.814  0.2052  0.0204 -0.0815
  351loPI   C2B 5614  -0.686  12.379   9.439 -0.0989 -0.1276  0.0681
  351loPI   C3B 5615  -0.861  12.060   9.161 -0.0608  0.2230 -0.3547
  351loPI   C4B 5616  -1.034  11.925   8.748  0.1707  0.0811  0.1969
  352loPI    C1 5617   3.146   0.453  11.285  0.0693  0.2235 -0.0072
  352loPI    C2 5618   3.405   0.758  11.284  0.1442  0.1612  0.1176
  352loPI    C3 5619   3.489   0.425  11.490  0.0078  0.1034  0.0810
  352loPI   PO4 5620   3.025   0.505  11.032 -0.0465  0.2226  0.1390
  352loPI   GL1 5621   3.078   0.283  10.634  0.2119 -0.0224  0.0029
  352loPI   GL2 5622   2.926   0.326  10.437  0.0559 -0.1540 -0.1142
  352loPI   C1A 5623   3.424   0.197  10.305 -0.3176 -0.0384 -0.1058
  352loPI   C2A 5624   3.543   0.198   9.823  0.0057 -0.1638  0.0520
  352loPI   C3A 5625   3.490   0.148   9.432  0.1452 -0.0364 -0.1065
  352loPI   C4A 5626   3.527   0.053   8.992  0.0930 -0.1833 -0.1935
  352loPI   C5A 5627   3.564   0.156   8.557  0.2500  0.2032 -0.0400
  352loPI   C6A 5628   3.402  -0.094   8.173  0.2990  0.1689  0.0216
  352loPI   C1B 5629   2.820   0.355  10.018 -0.1283  0.4095  0.1188
  352loPI   C2B 5630   2.692   0.335   9.523  0.1877  0.3706 -0.0438
  352loPI   C3B 5631   2.623   0.260   9.081 -0.1038 -0.2333 -0.0339
  352loPI   C4B 5632   2.645   0.224   8.654 -0.3648  0.3818  0.0756
  353loPI    C1 5633   9.557   5.801  10.703  0.1929 -0.0381 -0.1133
  353loPI    C2 5634   9.787   5.498  10.579  0.3026 -0.0224  0.0487
  353loPI    C3 5635   9.417   5.542  10.433  0.2205 -0.3371  0.1537
  353loPI   PO4 5636   9.786   6.044  10.614  0.2658  0.1278 -0.5566
  353loPI   GL1 5637   9.820   6.050  10.270 -0.1288  0.2099  0.0873
  353loPI   GL2 5638   9.687   5.782  10.055 -0.4242  0.1227  0.0007
  353loPI   C1A 5639  10.032   6.274   9.948  0.0519 -0.0179 -0.0967
  353loPI   C2A 5640  10.124   6.239   9.586  0.0224 -0.3458  0.0507
  353loPI   C3A 5641  10.094   6.240   9.141  0.4477  0.2451 -0.0424
  353loPI   C4A 5642   9.892   6.123   8.739  0.3488 -0.2998  0.2780
  353loPI   C5A 5643   9.579   6.080   8.389 -0.1344  0.0794 -0.0255
  353loPI   C6A 5644   9.190   6.088   8.024  0.2259 -0.1511  0.0052
  353loPI   C1B 5645   9.682   5.964   9.592 -0.1209 -0.1459 -0.1429
  353loPI   C2B 5646   9.668   5.960   9.171  0.2351 -0.0846 -0.0186
  353loPI   C3B 5647   9.644   5.682   8.741  0.2282 -0.0916  0.0487
  353loPI   C4B 5648   9.642   5.599   8.318  0.1354 -0.0381 -0.2160
  354loPI    C1 5649  14.124   1.170  10.539  0.2913 -0.2348  0.1892
  354loPI    C2 5650  13.963   1.334  10.866 -0.1958  0.0723 -0.1908
  354loPI    C3 5651  14.296   1.490  10.707 -0.0615  0.0349  0.0501
  354loPI   PO4 5652  13.855   1.086  10.460 -0.2374  0.0907 -0.0050
  354loPI   GL1 5653  13.837   0.722  10.240 -0.1396  0.2599 -0.2432
  354loPI   GL2 5654  13.856   0.396  10.386  0.0164 -0.1275  0.0838
  354loPI   C1A 5655  13.694   0.346   9.949  0.2181 -0.2863 -0.2549
  354loPI   C2A 5656  13.822   0.248   9.535 -0.1992 -0.1462  0.1593
  354loPI   C3A 5657  13.969   0.249   9.139 -0.2399 -0.1218  0.0505
  354loPI   C4A 5658  13.939   0.263   8.733  0.2408  0.0343  0.0553
  354loPI   C5A 5659  14.058   0.188   8.305  0.1758 -0.0393  0.0867
  354loPI   C6A 5660  14.124   0.200   7.874  0.4462  0.1878 -0.0215
  354loPI   C1B 5661  14.162   0.094  10.053  0.2516 -0.1649  0.1534
  354loPI   C2B 5662  14.254  -0.049   9.594  0.0034  0.1978 -0.0730
  354loPI   C3B 5663  14.319  -0.141   9.194 -0.1117 -0.1169 -0.0546
  354loPI   C4B 5664  14.371   0.019   8.767  0.2372  0.1373 -0.1434
  355loPI    C1 5665   9.069   5.830  10.952  0.1835 -0.0040  0.1689
  355loPI    C2 5666   9.060   6.139  11.206 -0.1273  0.0391  0.1091
  355loPI    C3 5667   8.966   5.772  11.334 -0.1219  0.0325  0.0944
  355loPI   PO4 5668   8.971   5.901  10.727  0.0019  0.0404  0.1549
  355loPI   GL1 5669   9.004   6.195  10.320  0.0836  0.1744  0.6456
  355loPI   GL2 5670   9.310   6.027  10.276 -0.3652 -0.0904 -0.2115
  355loPI   C1A 5671   8.742   6.212  10.038  0.1407 -0.2352 -0.1225
  355loPI   C2A 5672   8.751   6.268   9.674  0.1021 -0.2840  0.1761
  355loPI   C3A 5673   8.597   6.248   9.240  0.1868 -0.0476  0.0950
  355loPI   C4A 5674   8.523   6.293   8.721 -0.0752  0.3714 -0.2191
  355loPI   C5A 5675   8.116   6.405   8.635 -0.0863  0.1980 -0.0423
  355loPI   C6A 5676   7.673   6.284   8.453  0.0127  0.1155 -0.1905
  355loPI   C1B 5677   9.234   6.034   9.832 -0.0203 -0.0244  0.0767
  355loPI   C2B 5678   9.181   6.135   9.404 -0.0205 -0.0848 -0.0605
  355loPI   C3B 5679   9.103   5.962   9.027 -0.1478 -0.0067 -0.0348
  355loPI   C4B 5680   9.170   5.946   8.551 -0.0505  0.0574 -0.0456
  356loPI    C1 5681   0.422  11.802  10.486  0.0322 -0.2381  0.0679
  356loPI    C2 5682   0.575  11.978  10.811  0.2330 -0.0875 -0.1056
  356loPI    C3 5683   0.195  11.855  10.810  0.1729  0.0913  0.1165
  356loPI   PO4 5684   0.569  11.645  10.338  0.1844 -0.2804 -0.1513
  356loPI   GL1 5685   0.802  11.647   9.959 -0.1518 -0.1718 -0.2215
  356loPI   GL2 5686   1.019  11.347   9.845 -0.0821 -0.0035  0.2525
  356loPI   C1A 5687   0.855  11.710   9.489 -0.0545 -0.0801 -0.1709
  356loPI   C2A 5688   0.916  11.735   9.039 -0.1705  0.3271  0.0002
  356loPI   C3A 5689   0.710  11.618   8.635 -0.1827  0.0029  0.1817
  356loPI   C4A 5690   0.486  11.374   8.326  0.1080 -0.0794  0.0828
  356loPI   C5A 5691   0.391  10.878   8.117 -0.0302  0.1083 -0.1038
  356loPI   C6A 5692   0.256  10.478   8.054  0.0959  0.1825 -0.0485
  356loPI   C1B 5693   1.096  11.312   9.470  0.2391  0.0249  0.0514
  356loPI   C2B 5694   1.296  11.314   9.090  0.1730 -0.0876 -0.1560
  356loPI   C3B 5695   1.189  11.341   8.695  0.0754  0.0911 -0.2735
  356loPI   C4B 5696   1.061  11.480   8.316  0.2557 -0.1094  0.1022
  357loPI    C1 5697  16.641  12.970  10.644  0.1108  0.1790  0.0532
  357loPI    C2 5698  16.886  12.654  10.629 -0.0683  0.0461 -0.1278
  357loPI    C3 5699  16.597  12.670  10.905 -0.1847 -0.0429 -0.2429
  357loPI   PO4 5700  16.561  13.009  10.442 -0.2892 -0.1079  0.0224
  357loPI   GL1 5701  16.878  12.839  10.173  0.3119 -0.0076 -0.1657
  357loPI   GL2 5702  16.733  12.524  10.147  0.1428 -0.2942 -0.0749
  357loPI   C1A 5703  16.774  12.895   9.747 -0.2094  0.3411 -0.0546
  357loPI   C2A 5704  16.711  12.991   9.314 -0.4117  0.3008 -0.1742
  357loPI   C3A 5705  16.309  13.049   9.119 -0.2408  0.2135 -0.0662
  357loPI   C4A 5706  16.194  13.389   8.799 -0.0600 -0.0239 -0.2037
  357loPI   C5A 5707  15.867  13.640   8.731  0.3284  0.1090  0.0596
  357loPI   C6A 5708  15.624  13.761   8.304 -0.1102 -0.1028  0.1430
  357loPI   C1B 5709  16.520  12.381   9.707  0.1092  0.1001  0.3239
  357loPI   C2B 5710  16.410  12.515   9.372  0.1864  0.1699  0.1310
  357loPI   C3B 5711  16.089  12.544   9.123 -0.2858  0.0610  0.0834
  357loPI   C4B 5712  15.909  12.922   8.880 -0.0182  0.0589  0.1345
  358loPI    C1 5713  16.026   2.557  10.485  0.1367  0.0225  0.1905
  358loPI    C2 5714  16.305   2.709  10.727 -0.0013  0.1301  0.2835
  358loPI    C3 5715  15.985   2.927  10.629  0.0115  0.0560  0.0711
  358loPI   PO4 5716  16.223   2.478  10.244  0.0252  0.4610  0.1768
  358loPI   GL1 5717  16.219   2.194   9.958  0.0545  0.0870 -0.0855
  358loPI   GL2 5718  15.964   2.009   9.774  0.0166 -0.0724  0.0655
  358loPI   C1A 5719  16.504   2.242   9.590  0.0672 -0.2343 -0.0104
  358loPI   C2A 5720  16.510   2.067   9.093 -0.3243  0.1635  0.1111
  358loPI   C3A 5721  16.401   2.037   8.687 -0.0211 -0.0429 -0.1940
  358loPI   C4A 5722  16.430   2.090   8.168 -0.1391 -0.0534  0.0253
  358loPI   C5A 5723  16.763   2.290   7.877 -0.1655 -0.2312 -0.0335
  358loPI   C6A 5724  17.010   2.186   7.601 -0.1603 -0.3725  0.2363
  358loPI   C1B 5725  16.140   1.977   9.356  0.0932 -0.1450 -0.2320
  358loPI   C2B 5726  15.966   1.868   8.931  0.0824 -0.1122  0.0971
  358loPI   C3B 5727  15.927   1.907   8.493  0.3935  0.1535  0.0812
  358loPI   C4B 5728  15.939   2.100   8.092  0.1119 -0.3859 -0.4122
  359loPI    C1 5729   1.950   1.181  11.299  0.0003  0.0793  0.1898
  359loPI    C2 5730   2.160   0.847  11.236 -0.0187  0.1121 -0.0567
  359loPI    C3 5731   2.170   1.025  11.594  0.0915 -0.0817  0.0382
  359loPI   PO4 5732   1.812   1.185  11.026 -0.0741 -0.3331 -0.0063
  359loPI   GL1 5733   1.940   1.186  10.518 -0.0416  0.0285  0.0975
  359loPI   GL2 5734   2.228   1.074  10.344 -0.2066 -0.0285  0.4376
  359loPI   C1A 5735   1.771   1.268  10.112  0.0647  0.2046  0.0072
  359loPI   C2A 5736   1.506   1.386   9.800  0.1063  0.2544 -0.0303
  359loPI   C3A 5737   1.510   1.304   9.339  0.1207 -0.0175  0.0739
  359loPI   C4A 5738   1.466   1.237   8.947 -0.1102 -0.3135  0.2425
  359loPI   C5A 5739   1.437   1.130   8.501  0.0746  0.0646 -0.0083
  359loPI   C6A 5740   1.179   0.966   8.109  0.1023 -0.1596 -0.1117
  359loPI   C1B 5741   2.202   1.067   9.971  0.1098 -0.0671  0.1667
  359loPI   C2B 5742   2.336   1.111   9.494 -0.2650  0.0917  0.2311
  359loPI   C3B 5743   2.424   1.137   9.080  0.1473  0.0295  0.3664
  359loPI   C4B 5744   2.461   1.072   8.605  0.2540  0.1037 -0.0778
  360loPI    C1 5745   0.718   2.400  10.696 -0.1849 -0.0496 -0.2686
  360loPI    C2 5746   0.544   2.711  10.514 -0.2224  0.1114  0.0368
  360loPI    C3 5747   0.380   2.555  10.844 -0.0794 -0.0859  0.0159
  360loPI   PO4 5748   0.792   2.204  10.550 -0.1334 -0.0971  0.1567
  360loPI   GL1 5749   0.884   2.050  10.283 -0.0110 -0.1859 -0.0998
  360loPI   GL2 5750   0.563   1.915  10.174 -0.2212  0.2069  0.0342
  360loPI   C1A 5751   1.167   2.154   9.929 -0.0604  0.1128 -0.3466
  360loPI   C2A 5752   1.181   2.235   9.499  0.1185  0.0379  0.0488
  360loPI   C3A 5753   1.170   2.340   9.118 -0.2075 -0.1082  0.0223
  360loPI   C4A 5754   1.102   2.004   8.792 -0.1538 -0.1481  0.0834
  360loPI   C5A 5755   1.187   1.971   8.385  0.2447  0.2883  0.3575
  360loPI   C6A 5756   1.003   1.935   7.967  0.1295 -0.5108 -0.0905
  360loPI   C1B 5757   0.644   2.035   9.750  0.1077 -0.1506 -0.0928
  360loPI   C2B 5758   0.616   1.932   9.244 -0.1839 -0.0572 -0.1417
  360loPI   C3B 5759   0.602   1.929   8.808 -0.0763  0.0600 -0.1366
  360loPI   C4B 5760   0.505   1.846   8.411  0.0428  0.0483  0.4811
  361loPI    C1 5761  17.889  14.093  11.485  0.0810  0.1852  0.0216
  361loPI    C2 5762  17.815  13.703  11.531  0.1214  0.1409 -0.2686
  361loPI    C3 5763  17.872  13.935  11.852  0.1347 -0.0981 -0.0954
  361loPI   PO4 5764  17.803  14.014  11.143  0.2685 -0.2491 -0.4895
  361loPI   GL1 5765  17.651  14.079  10.765  0.0593  0.1408 -0.1258
  361loPI   GL2 5766  17.542  13.746  10.685 -0.3168 -0.0284  0.2232
  361loPI   C1A 5767  17.982  14.090  10.486 -0.1571  0.0243 -0.1617
  361loPI   C2A 5768  18.054  14.019  10.152  0.0575  0.0157 -0.5044
  361loPI   C3A 5769  18.126  14.126   9.699  0.2516 -0.1350 -0.0591
  361loPI   C4A 5770  18.084  14.165   9.235  0.0845 -0.1236 -0.2603
  361loPI   C5A 5771  18.112  14.193   8.832  0.1262  0.0721 -0.1225
  361loPI   C6A 5772  18.248  14.221   8.434  0.1943  0.1689 -0.1261
  361loPI   C1B 5773  17.584  13.941  10.250  0.0133  0.2150  0.3092
  361loPI   C2B 5774  17.602  13.924   9.767  0.2101 -0.2941 -0.2249
  361loPI   C3B 5775  17.595  13.961   9.325  0.0925  0.1399 -0.0123
  361loPI   C4B 5776  17.601  14.012   8.874  0.1240  0.0620 -0.2995
  362loPI    C1 5777  17.242  13.005  10.838  0.3317  0.0964  0.0197
  362loPI    C2 5778  17.205  13.402  10.868 -0.1647  0.0497  0.1155
  362loPI    C3 5779  16.905  13.164  10.985  0.0523 -0.3489 -0.1175
  362loPI   PO4 5780  17.258  12.995  10.575 -0.2121  0.1948 -0.0156
  362loPI   GL1 5781  16.987  13.327  10.394  0.2607 -0.0792 -0.1168
  362loPI   GL2 5782  17.321  13.459  10.319 -0.2376 -0.1830 -0.0837
  362loPI   C1A 5783  17.017  13.283   9.982  0.4709 -0.3214 -0.0832
  362loPI   C2A 5784  17.058  13.307   9.625  0.0621 -0.0607  0.0599
  362loPI   C3A 5785  17.066  13.296   9.197 -0.0198  0.0599  0.2558
  362loPI   C4A 5786  16.918  13.126   8.842 -0.0289  0.2154  0.1486
  362loPI   C5A 5787  16.890  12.884   8.478 -0.1230  0.1832  0.2178
  362loPI   C6A 5788  16.630  12.465   8.381 -0.0650  0.1006 -0.1936
  362loPI   C1B 5789  17.546  13.421   9.928  0.0832  0.2474  0.2638
  362loPI   C2B 5790  17.534  13.505   9.537  0.3295 -0.1098 -0.1858
  362loPI   C3B 5791  17.557  13.514   9.124 -0.1873  0.1220 -0.2374
  362loPI   C4B 5792  17.610  13.601   8.675  0.3259 -0.0974  0.0756
  363loPI    C1 5793   3.238  15.277  11.013 -0.0953 -0.3936 -0.1737
  363loPI    C2 5794   3.467  15.073  11.269  0.2941 -0.0645 -0.2486
  363loPI    C3 5795   3.139  15.260  11.400  0.2845 -0.2081 -0.0629
  363loPI   PO4 5796   3.111  15.154  10.776  0.1257 -0.2298  0.0347
  363loPI   GL1 5797   2.949  15.268  10.375 -0.3594 -0.1204 -0.1746
  363loPI   GL2 5798   2.635  15.422  10.438  0.1289 -0.1018 -0.3693
  363loPI   C1A 5799   2.781  15.269  10.042 -0.0052  0.0898 -0.0232
  363loPI   C2A 5800   2.748  15.417   9.593  0.0638 -0.1317 -0.0854
  363loPI   C3A 5801   2.744  15.434   9.161 -0.0123 -0.4032  0.0335
  363loPI   C4A 5802   2.547  15.471   8.794 -0.1743 -0.0991  0.0680
  363loPI   C5A 5803   2.422  15.582   8.474  0.1189  0.2130 -0.5423
  363loPI   C6A 5804   2.488  15.943   8.327 -0.0559  0.0271  0.0167
  363loPI   C1B 5805   2.289  15.564  10.165  0.0903  0.1232 -0.2520
  363loPI   C2B 5806   2.163  15.722  10.022  0.3067  0.0452 -0.1451
  363loPI   C3B 5807   2.078  15.753   9.541  0.0784  0.2413 -0.3872
  363loPI   C4B 5808   2.158  15.821   9.108  0.3633 -0.2628 -0.1562
  364loPI    C1 5809  10.481   4.175  10.732  0.1357 -0.0434 -0.0483
  364loPI    C2 5810  10.879   4.137  10.732  0.1376 -0.0236 -0.0343
  364loPI    C3 5811  10.667   4.019  11.050  0.1740  0.3937  0.1511
  364loPI   PO4 5812  10.480   4.220  10.409  0.0072 -0.0064  0.0185
  364loPI   GL1 5813  10.596   4.462  10.106  0.3263 -0.0971 -0.0729
  364loPI   GL2 5814  10.484   4.278   9.801  0.0181  0.1484 -0.2385
  364loPI   C1A 5815  10.861   4.539   9.727 -0.2720  0.2022 -0.2267
  364loPI   C2A 5816  11.140   4.805   9.357  0.1935 -0.1758 -0.0818
  364loPI   C3A 5817  11.194   4.780   8.958 -0.0679  0.1061  0.1378
  364loPI   C4A 5818  11.151   4.699   8.528 -0.1966 -0.0243 -0.1831
  364loPI   C5A 5819  10.947   4.825   8.146  0.1186 -0.1162  0.0384
  364loPI   C6A 5820  10.505   5.135   8.125 -0.2696  0.3894  0.0663
  364loPI   C1B 5821  10.312   3.956   9.690 -0.2693  0.1408 -0.0592
  364loPI   C2B 5822  10.282   3.898   9.247 -0.0655 -0.1183 -0.2374
  364loPI   C3B 5823  10.356   4.190   9.013  0.0520  0.0819  0.1938
  364loPI   C4B 5824  10.264   4.525   8.873 -0.0748 -0.0334  0.0589
  365loPI    C1 5825  14.247   5.562  10.690 -0.0025  0.0787 -0.0573
  365loPI    C2 5826  14.245   5.857  10.959  0.0062 -0.0561  0.0918
  365loPI    C3 5827  13.982   5.558  10.989  0.0769 -0.1267  0.0120
  365loPI   PO4 5828  14.317   5.757  10.415 -0.1612 -0.0121 -0.2725
  365loPI   GL1 5829  14.363   5.832   9.940  0.0989  0.1381 -0.3334
  365loPI   GL2 5830  14.736   5.779   9.941  0.0351  0.0200  0.3302
  365loPI   C1A 5831  14.227   5.977   9.468 -0.1257  0.1172 -0.1199
  365loPI   C2A 5832  14.246   5.988   9.120 -0.2011  0.0529 -0.2050
  365loPI   C3A 5833  14.247   6.121   8.781 -0.2688  0.0741  0.0891
  365loPI   C4A 5834  14.130   6.050   8.329  0.1178  0.3597  0.2630
  365loPI   C5A 5835  14.283   6.224   7.968  0.1517 -0.0786  0.3404
  365loPI   C6A 5836  14.495   6.521   7.659  0.1368  0.0338 -0.1294
  365loPI   C1B 5837  14.743   5.693   9.492 -0.4474  0.2256 -0.0974
  365loPI   C2B 5838  14.808   5.762   9.049  0.0550 -0.3115 -0.0053
  365loPI   C3B 5839  14.628   5.860   8.656 -0.2904  0.1329 -0.1425
  365loPI   C4B 5840  14.527   5.844   8.156 -0.1461 -0.1597 -0.1700
  366loPI    C1 5841   5.361   9.829  10.933 -0.1912  0.0851  0.1041
  366loPI    C2 5842   5.206   9.514  11.125 -0.0293  0.0589  0.1939
  366loPI    C3 5843   5.015   9.866  11.129 -0.1442 -0.0034  0.2044
  366loPI   PO4 5844   5.495   9.724  10.756 -0.1124  0.1261 -0.1129
  366loPI   GL1 5845   5.700   9.873  10.437  0.2556 -0.3088  0.2010
  366loPI   GL2 5846   5.613   9.505  10.251  0.0208  0.1047 -0.1948
  366loPI   C1A 5847   5.988   9.950  10.211 -0.0338  0.0742 -0.0499
  366loPI   C2A 5848   6.051   9.950   9.826 -0.1354  0.1863 -0.0212
  366loPI   C3A 5849   6.077  10.086   9.494  0.0832  0.1991  0.2086
  366loPI   C4A 5850   5.914  10.288   9.075  0.0957 -0.0338 -0.2290
  366loPI   C5A 5851   5.879  10.397   8.670 -0.0421  0.0999 -0.1382
  366loPI   C6A 5852   5.813   9.980   8.396  0.4154  0.0956  0.1845
  366loPI   C1B 5853   5.623   9.641   9.843  0.0669 -0.0622  0.1336
  366loPI   C2B 5854   5.790   9.688   9.430  0.0012 -0.0040 -0.2156
  366loPI   C3B 5855   5.936   9.822   9.121 -0.1275 -0.1421 -0.1577
  366loPI   C4B 5856   6.282  10.017   8.782  0.0294  0.0989 -0.0203
  367loPI    C1 5857   5.529   3.918  10.293 -0.0829  0.2941 -0.0496
  367loPI    C2 5858   5.422   3.999  10.670  0.1061 -0.1771  0.1129
  367loPI    C3 5859   5.805   4.032  10.559  0.0477 -0.0199 -0.0452
  367loPI   PO4 5860   5.330   4.007  10.181  0.0814  0.1538 -0.5057
  367loPI   GL1 5861   5.195   4.240   9.900 -0.2031 -0.0224  0.1863
  367loPI   GL2 5862   5.038   4.395   9.932  0.3504 -0.3512  0.0295
  367loPI   C1A 5863   5.474   4.645   9.725 -0.4026 -0.2481  0.0559
  367loPI   C2A 5864   5.731   4.820   9.365 -0.4653  0.0361  0.0354
  367loPI   C3A 5865   5.698   4.829   8.924  0.1950  0.3234  0.0558
  367loPI   C4A 5866   5.875   4.781   8.593 -0.1242 -0.1691 -0.1163
  367loPI   C5A 5867   6.283   4.740   8.281 -0.1856 -0.1578  0.0821
  367loPI   C6A 5868   6.591   4.492   8.316  0.0153  0.4379  0.3238
  367loPI   C1B 5869   4.988   4.456   9.412  0.1182 -0.2016  0.0595
  367loPI   C2B 5870   5.073   4.525   8.948 -0.0632 -0.1611  0.0709
  367loPI   C3B 5871   5.324   4.234   8.714  0.0415  0.2330 -0.2993
  367loPI   C4B 5872   5.582   3.864   8.494 -0.2646 -0.0247 -0.1901
  368loPI    C1 5873   4.571  11.515  10.699  0.2458  0.0261 -0.3193
  368loPI    C2 5874   4.543  11.742  10.371 -0.1809  0.2612 -0.1287
  368loPI    C3 5875   4.219  11.674  10.595  0.0238 -0.2199  0.0335
  368loPI   PO4 5876   4.733  11.314  10.647  0.1798  0.1305  0.1474
  368loPI   GL1 5877   4.942  11.423  10.350  0.2835  0.0700  0.5188
  368loPI   GL2 5878   4.685  11.213  10.158 -0.1021 -0.4759  0.0580
  368loPI   C1A 5879   4.854  11.686   9.976  0.1180  0.0532  0.0812
  368loPI   C2A 5880   4.831  11.638   9.576  0.2710  0.2517  0.0671
  368loPI   C3A 5881   4.559  11.529   9.265  0.2504  0.1745  0.3197
  368loPI   C4A 5882   4.306  11.608   8.838  0.0605  0.2120  0.0575
  368loPI   C5A 5883   4.141  11.898   8.476 -0.2776 -0.0157  0.1067
  368loPI   C6A 5884   3.883  12.118   8.334  0.0649  0.0456 -0.1365
  368loPI   C1B 5885   4.570  11.296   9.829  0.2116 -0.1492 -0.2924
  368loPI   C2B 5886   4.479  10.991   9.449 -0.2546  0.1029 -0.1578
  368loPI   C3B 5887   4.586  11.098   9.045  0.0467  0.1627  0.2198
  368loPI   C4B 5888   4.722  11.189   8.610 -0.1391  0.1829  0.2604
  369loPI    C1 5889   6.727  13.494  11.003  0.1317  0.0014 -0.0267
  369loPI    C2 5890   6.728  13.847  11.190 -0.0229  0.0866 -0.1836
  369loPI    C3 5891   6.675  13.511  11.400  0.1286  0.1547 -0.0331
  369loPI   PO4 5892   6.571  13.626  10.749 -0.0230  0.1033  0.0126
  369loPI   GL1 5893   6.528  13.460  10.343 -0.0347  0.1782 -0.4373
  369loPI   GL2 5894   6.644  13.252  10.221  0.1149  0.1157 -0.0832
  369loPI   C1A 5895   6.340  13.605  10.062  0.0640 -0.0281 -0.0630
  369loPI   C2A 5896   6.035  13.430   9.875 -0.0375 -0.0876  0.2501
  369loPI   C3A 5897   5.977  13.362   9.429 -0.3542 -0.2341  0.0541
  369loPI   C4A 5898   5.835  13.181   9.049 -0.2023  0.3584 -0.2282
  369loPI   C5A 5899   5.531  13.209   8.747 -0.1438 -0.2466 -0.1704
  369loPI   C6A 5900   5.448  13.338   8.372  0.1766 -0.1471  0.0342
  369loPI   C1B 5901   6.798  13.336   9.825  0.2663  0.0657  0.0507
  369loPI   C2B 5902   6.696  13.355   9.346  0.1348 -0.1734 -0.1551
  369loPI   C3B 5903   6.625  13.231   8.847  0.0122  0.0641 -0.0221
  369loPI   C4B 5904   6.376  13.440   8.502  0.3644  0.0975  0.0383
  370loPI    C1 5905  11.010   1.964  10.391  0.0326  0.2822  0.1430
  370loPI    C2 5906  10.623   2.062  10.407 -0.0076  0.1397  0.0677
  370loPI    C3 5907  10.782   1.828  10.690  0.0339  0.2330  0.1219
  370loPI   PO4 5908  11.048   1.882  10.234  0.0790 -0.1061 -0.0479
  370loPI   GL1 5909  11.002   1.829   9.744 -0.1460 -0.2699  0.0213
  370loPI   GL2 5910  10.638   1.994   9.875 -0.1479 -0.1515 -0.0131
  370loPI   C1A 5911  10.826   1.689   9.307  0.1277 -0.0099  0.2823
  370loPI   C2A 5912  10.766   1.634   8.851  0.2442 -0.0617  0.0636
  370loPI   C3A 5913  10.746   1.598   8.439 -0.0102 -0.0068 -0.0627
  370loPI   C4A 5914  10.574   1.362   8.029  0.1770  0.1689 -0.1729
  370loPI   C5A 5915  10.270   1.082   8.007  0.1789 -0.1448  0.4152
  370loPI   C6A 5916   9.874   0.881   7.872 -0.0384  0.1901 -0.1875
  370loPI   C1B 5917  10.594   2.105   9.481 -0.1004  0.0815  0.2138
  370loPI   C2B 5918  10.471   2.083   9.077  0.0335 -0.3125 -0.7362
  370loPI   C3B 5919  10.389   1.910   8.646 -0.1630 -0.2686  0.0221
  370loPI   C4B 5920  10.408   1.884   8.228 -0.1547  0.0125  0.1231
  371loPI    C1 5921   1.290   4.372  10.447  0.0158  0.1177  0.0071
  371loPI    C2 5922   1.344   3.976  10.446 -0.2046  0.0865 -0.0131
  371loPI    C3 5923   1.265   4.166  10.789 -0.1164  0.1109 -0.0061
  371loPI   PO4 5924   1.183   4.341  10.143 -0.1242 -0.2080 -0.0613
  371loPI   GL1 5925   0.896   4.254   9.986  0.0176  0.4090  0.0584
  371loPI   GL2 5926   0.718   4.402   9.841  0.0816 -0.0350  0.0974
  371loPI   C1A 5927   1.087   4.071   9.596 -0.2709 -0.2741 -0.0023
  371loPI   C2A 5928   1.055   4.135   9.133 -0.2057 -0.0726  0.0656
  371loPI   C3A 5929   1.186   4.290   8.865 -0.0664 -0.2545 -0.2618
  371loPI   C4A 5930   1.576   4.552   8.671  0.1900 -0.0567  0.0315
  371loPI   C5A 5931   1.899   4.735   8.426 -0.0876 -0.0156  0.2153
  371loPI   C6A 5932   2.034   4.935   8.087 -0.0078  0.0280  0.0094
  371loPI   C1B 5933   0.897   4.513   9.429 -0.2028  0.0867 -0.1064
  371loPI   C2B 5934   1.222   4.764   9.084  0.1331  0.0178  0.4940
  371loPI   C3B 5935   1.292   4.943   8.767 -0.0779 -0.0757  0.1834
  371loPI   C4B 5936   1.637   5.054   8.725 -0.1456 -0.0784 -0.1834
  372loPI    C1 5937   2.135  18.037  10.813  0.0025  0.2160 -0.2756
  372loPI    C2 5938   2.260  18.051  11.192  0.0234  0.1823 -0.2812
  372loPI    C3 5939   1.879  17.957  11.110  0.0845 -0.0746 -0.2803
  372loPI   PO4 5940   2.182  18.311  10.681 -0.0614  0.1065 -0.2930
  372loPI   GL1 5941   2.457  18.345  10.407 -0.0281 -0.0440 -0.2217
  372loPI   GL2 5942   2.318  18.066  10.281  0.0888 -0.1271 -0.0762
  372loPI   C1A 5943   2.376  18.651  10.043  0.0837  0.1227  0.0097
  372loPI   C2A 5944   2.269  18.667   9.686 -0.0289 -0.3186  0.0827
  372loPI   C3A 5945   2.290  18.632   9.266 -0.2152  0.2175 -0.0391
  372loPI   C4A 5946   2.214  18.581   8.821  0.2492  0.0491  0.2314
  372loPI   C5A 5947   2.202  18.611   8.435  0.1114  0.0020  0.1295
  372loPI   C6A 5948   2.165  18.296   8.191 -0.2776 -0.1320  0.0028
  372loPI   C1B 5949   2.408  18.182   9.885 -0.1734 -0.2956  0.2478
  372loPI   C2B 5950   2.216  18.178   9.508 -0.0366 -0.1396  0.0823
  372loPI   C3B 5951   2.126  18.139   9.050 -0.1344 -0.1702  0.1583
  372loPI   C4B 5952   2.181  18.091   8.628  0.1352  0.2091  0.0590
  373loPI    C1 5953   9.761  11.148  10.575  0.0380 -0.2577  0.0064
  373loPI    C2 5954   9.868  11.081  10.955  0.0525 -0.0630  0.0376
  373loPI    C3 5955  10.118  11.272  10.707 -0.0278 -0.0342 -0.0216
  373loPI   PO4 5956   9.672  10.912  10.523  0.1654  0.2793  0.3453
  373loPI   GL1 5957   9.653  10.603  10.133  0.1834  0.0876  0.2418
  373loPI   GL2 5958   9.333  10.648  10.232 -0.0904  0.3230  0.4463
  373loPI   C1A 5959   9.606  10.574   9.621  0.0466  0.1727 -0.0475
  373loPI   C2A 5960   9.700  10.588   9.263  0.3570 -0.0117  0.3327
  373loPI   C3A 5961   9.888  10.449   8.890 -0.0698  0.0053  0.0042
  373loPI   C4A 5962  10.138  10.571   8.482  0.0159  0.0036 -0.0703
  373loPI   C5A 5963  10.180  10.484   8.095 -0.1522  0.0920 -0.0494
  373loPI   C6A 5964  10.137  10.673   7.732  0.2728  0.2283 -0.1054
  373loPI   C1B 5965   9.396  10.955   9.882 -0.0130  0.1408  0.1236
  373loPI   C2B 5966   9.591  11.022   9.442 -0.0122 -0.0001 -0.0507
  373loPI   C3B 5967   9.645  11.264   9.079  0.1027 -0.1128  0.0623
  373loPI   C4B 5968   9.526  11.714   9.107 -0.0970  0.2372  0.2479
  374loPI    C1 5969   7.152  11.216  10.532 -0.3044  0.0545 -0.2536
  374loPI    C2 5970   7.078  11.276  10.921 -0.0917 -0.0443 -0.1964
  374loPI    C3 5971   6.780  11.180  10.673 -0.2961  0.4023 -0.1326
  374loPI   PO4 5972   7.413  11.134  10.477  0.2081  0.1027 -0.1252
  374loPI   GL1 5973   7.697  10.974  10.168  0.0280 -0.1028 -0.0046
  374loPI   GL2 5974   7.815  11.355  10.115 -0.2404 -0.0596  0.1995
  374loPI   C1A 5975   8.092  10.909   9.940  0.0657  0.0861  0.0132
  374loPI   C2A 5976   8.101  10.914   9.509  0.2788 -0.2129 -0.1914
  374loPI   C3A 5977   8.312  10.801   9.235 -0.0494 -0.2579 -0.0894
  374loPI   C4A 5978   8.373  10.604   8.801 -0.4013 -0.0358  0.0882
  374loPI   C5A 5979   8.187  10.192   8.717 -0.1325  0.0281 -0.2184
  374loPI   C6A 5980   8.023  10.085   8.338  0.3446  0.1095 -0.0290
  374loPI   C1B 5981   7.830  11.352   9.652 -0.1425 -0.0531  0.2166
  374loPI   C2B 5982   7.743  11.368   9.145 -0.0955  0.3467  0.2197
  374loPI   C3B 5983   7.602  11.309   8.671 -0.2905 -0.0913 -0.1380
  374loPI   C4B 5984   7.511  11.297   8.259  0.1948 -0.2078 -0.1438
  375loPI    C1 5985  11.229   0.163  10.634  0.0758  0.5143  0.0838
  375loPI    C2 5986  11.551   0.009  10.814 -0.0202  0.0336 -0.1368
  375loPI    C3 5987  11.244   0.140  11.033  0.1404  0.0830  0.0622
  375loPI   PO4 5988  11.081   0.018  10.488 -0.2781 -0.2551 -0.0516
  375loPI   GL1 5989  11.090   0.152  10.017 -0.2382 -0.1462 -0.0549
  375loPI   GL2 5990  11.170  -0.226  10.059  0.1959 -0.2271 -0.0621
  375loPI   C1A 5991  11.131   0.356   9.650 -0.0345  0.0799 -0.0280
  375loPI   C2A 5992  11.006   0.617   9.308 -0.0992 -0.3043  0.1812
  375loPI   C3A 5993  11.165   0.790   8.969 -0.0141  0.1890  0.1280
  375loPI   C4A 5994  11.214   0.816   8.480 -0.0033 -0.1781 -0.0102
  375loPI   C5A 5995  11.569   0.718   8.250  0.0946 -0.0939 -0.0732
  375loPI   C6A 5996  11.951   0.762   8.037  0.0399  0.0935  0.0353
  375loPI   C1B 5997  11.198  -0.242   9.667  0.2434 -0.2142 -0.2153
  375loPI   C2B 5998  11.093   0.018   9.284  0.0706  0.2197 -0.1091
  375loPI   C3B 5999  11.012  -0.164   8.930 -0.0318  0.2605 -0.2432
  375loPI   C4B 6000  11.090  -0.184   8.555 -0.0391  0.2049  0.1384
  376loPI    C1 6001  13.359   0.551  10.797  0.1084  0.0756 -0.0949
  376loPI    C2 6002  13.213   0.787  11.085 -0.0051  0.0679 -0.1456
  376loPI    C3 6003  13.517   0.539  11.164 -0.1819 -0.0979  0.0280
  376loPI   PO4 6004  13.415   0.660  10.642  0.1765 -0.1246 -0.0324
  376loPI   GL1 6005  13.374   0.924  10.347  0.0225  0.3245 -0.3010
  376loPI   GL2 6006  13.131   1.172  10.355  0.2259 -0.1882  0.0658
  376loPI   C1A 6007  13.341   0.737   9.954  0.1211 -0.1247 -0.0466
  376loPI   C2A 6008  13.518   0.624   9.595  0.4815  0.0790  0.2309
  376loPI   C3A 6009  13.485   0.559   9.234  0.2311 -0.2401  0.1542
  376loPI   C4A 6010  13.532   0.640   8.808 -0.2846  0.0660  0.3466
  376loPI   C5A 6011  13.484   0.531   8.343  0.0755  0.0316  0.1076
  376loPI   C6A 6012  13.167   0.813   8.156  0.0710  0.3045 -0.1196
  376loPI   C1B 6013  13.055   1.141   9.901  0.2010  0.2949 -0.2978
  376loPI   C2B 6014  13.151   0.926   9.464  0.2912  0.0883 -0.5130
  376loPI   C3B 6015  13.104   0.850   9.029 -0.0706 -0.1088  0.0430
  376loPI   C4B 6016  13.077   1.002   8.688  0.0671 -0.0621 -0.0679
  377loPI    C1 6017  16.414  14.304  10.875 -0.1102  0.1602 -0.1182
  377loPI    C2 6018  16.625  14.625  10.984  0.0357  0.0036  0.0681
  377loPI    C3 6019  16.553  14.335  11.249 -0.1061 -0.1120 -0.0953
  377loPI   PO4 6020  16.145  14.404  10.720 -0.0511  0.0682  0.0931
  377loPI   GL1 6021  16.096  14.362  10.243  0.2754  0.1837  0.2303
  377loPI   GL2 6022  15.815  14.291  10.078  0.3732  0.0699  0.0345
  377loPI   C1A 6023  16.316  14.437   9.910 -0.0104  0.0850  0.2195
  377loPI   C2A 6024  16.346  14.525   9.515  0.2376 -0.0662 -0.0596
  377loPI   C3A 6025  16.326  14.501   9.097  0.0587 -0.1298 -0.0287
  377loPI   C4A 6026  16.347  14.302   8.783 -0.1259 -0.3320 -0.0044
  377loPI   C5A 6027  16.467  14.412   8.333 -0.0204 -0.0246  0.0235
  377loPI   C6A 6028  16.893  14.304   8.212  0.0931 -0.1872 -0.0361
  377loPI   C1B 6029  15.771  14.235   9.642  0.2812  0.1528 -0.1246
  377loPI   C2B 6030  15.871  14.372   9.325 -0.1051 -0.0475 -0.0832
  377loPI   C3B 6031  15.856  14.261   8.913  0.2102 -0.0564  0.0013
  377loPI   C4B 6032  15.873  14.165   8.462 -0.3429  0.0064  0.0751
  378loPI    C1 6033   3.152  12.699  10.838  0.0160  0.0188  0.1110
  378loPI    C2 6034   3.324  12.511  11.146 -0.1130 -0.0038  0.1700
  378loPI    C3 6035   2.982  12.371  10.991 -0.0089 -0.0369 -0.0340
  378loPI   PO4 6036   3.349  12.765  10.662 -0.2352  0.0475  0.0254
  378loPI   GL1 6037   3.536  12.749  10.335 -0.1699  0.2067  0.2630
  378loPI   GL2 6038   3.611  13.018  10.195 -0.1605 -0.1610  0.2084
  378loPI   C1A 6039   3.164  12.840  10.004 -0.0601  0.0107  0.1816
  378loPI   C2A 6040   3.039  12.799   9.522 -0.2452 -0.2883  0.3821
  378loPI   C3A 6041   2.940  12.885   9.096  0.1492 -0.0324  0.2407
  378loPI   C4A 6042   2.846  12.859   8.650 -0.1434  0.0333 -0.0292
  378loPI   C5A 6043   2.727  12.728   8.251 -0.0028  0.1590  0.3387
  378loPI   C6A 6044   2.980  12.365   7.971 -0.1540 -0.0163  0.2154
  378loPI   C1B 6045   3.555  12.999   9.748  0.2270 -0.2655 -0.0067
  378loPI   C2B 6046   3.495  13.088   9.315 -0.2571 -0.1027 -0.2295
  378loPI   C3B 6047   3.868  13.156   8.973 -0.1206  0.2284  0.0269
  378loPI   C4B 6048   3.954  13.042   8.537  0.1538  0.2551  0.2951
  379loPI    C1 6049  11.244  10.318  10.395 -0.0100  0.0182 -0.0259
  379loPI    C2 6050  11.230  10.181  10.770  0.1278 -0.0736 -0.0533
  379loPI    C3 6051  11.434   9.979  10.492 -0.2063 -0.1576 -0.2435
  379loPI   PO4 6052  11.221  10.539  10.423  0.1506 -0.0108 -0.1116
  379loPI   GL1 6053  11.105  10.680  10.015  0.3714  0.1609 -0.0529
  379loPI   GL2 6054  10.980  10.987   9.988  0.1466  0.0427  0.0896
  379loPI   C1A 6055  10.928  10.514   9.607 -0.3368 -0.1611 -0.1523
  379loPI   C2A 6056  11.149  10.530   9.299  0.0639  0.0373  0.0326
  379loPI   C3A 6057  11.260  10.591   8.972 -0.0107 -0.1581 -0.0174
  379loPI   C4A 6058  11.404  10.904   8.724  0.1620  0.4042 -0.0129
  379loPI   C5A 6059  11.420  11.140   8.417 -0.3981 -0.1582  0.2001
  379loPI   C6A 6060  11.366  10.974   8.015  0.1752 -0.0447 -0.0424
  379loPI   C1B 6061  11.015  10.991   9.500  0.1553 -0.0840  0.0058
  379loPI   C2B 6062  11.065  11.116   9.056 -0.1125  0.1217  0.1819
  379loPI   C3B 6063  10.992  11.300   8.655  0.2308 -0.1033 -0.2204
  379loPI   C4B 6064  10.941  11.153   8.291 -0.0608 -0.0314 -0.5630
  380loPI    C1 6065   7.408   2.536  10.915 -0.0118 -0.4014 -0.2415
  380loPI    C2 6066   7.018   2.579  10.992  0.1170 -0.0419  0.2601
  380loPI    C3 6067   7.269   2.466  11.283  0.4072 -0.1529 -0.0271
  380loPI   PO4 6068   7.405   2.285  10.713 -0.0458  0.3216 -0.1410
  380loPI   GL1 6069   7.253   1.898  10.447 -0.1422  0.0789  0.2885
  380loPI   GL2 6070   7.403   1.913  10.206  0.2850  0.0683 -0.3656
  380loPI   C1A 6071   6.930   2.047  10.131 -0.0608  0.0245  0.2927
  380loPI   C2A 6072   6.853   2.206   9.775 -0.0775  0.1243 -0.0909
  380loPI   C3A 6073   6.812   2.089   9.295 -0.0644 -0.0963 -0.0787
  380loPI   C4A 6074   6.795   2.146   8.896  0.2139 -0.0087 -0.2794
  380loPI   C5A 6075   6.970   2.051   8.458  0.2125  0.1425  0.6568
  380loPI   C6A 6076   7.143   2.090   7.951 -0.1687 -0.0609 -0.3042
  380loPI   C1B 6077   7.488   2.065   9.771 -0.2054  0.0031 -0.0111
  380loPI   C2B 6078   7.661   2.149   9.412  0.1036  0.3377 -0.1717
  380loPI   C3B 6079   7.721   2.149   9.023  0.2583  0.2942  0.1311
  380loPI   C4B 6080   7.873   2.158   8.600 -0.1951  0.1927  0.3425
  381loPI    C1 6081   7.025  10.255  10.744  0.1859  0.0691  0.1390
  381loPI    C2 6082   7.235  10.066  11.027 -0.0330 -0.0939  0.1957
  381loPI    C3 6083   6.946  10.322  11.131  0.1419  0.1393  0.1183
  381loPI   PO4 6084   7.145  10.315  10.582  0.0907  0.0258  0.0918
  381loPI   GL1 6085   7.305  10.436  10.186 -0.1468 -0.0336  0.1446
  381loPI   GL2 6086   7.159  10.759  10.281 -0.1205 -0.0668 -0.2125
  381loPI   C1A 6087   7.362  10.466   9.688 -0.1088  0.2314 -0.0510
  381loPI   C2A 6088   7.424  10.476   9.220  0.2155  0.1811 -0.2751
  381loPI   C3A 6089   7.173  10.391   8.912  0.0731 -0.1798 -0.1007
  381loPI   C4A 6090   7.105  10.204   8.461 -0.0020  0.0243 -0.1494
  381loPI   C5A 6091   6.910  10.175   8.016  0.1580  0.3913 -0.1766
  381loPI   C6A 6092   6.518  10.221   7.901  0.0098 -0.2011 -0.0838
  381loPI   C1B 6093   7.293  10.896   9.892 -0.1692 -0.0688  0.0699
  381loPI   C2B 6094   7.629  10.896   9.618 -0.0968 -0.2453 -0.1392
  381loPI   C3B 6095   7.698  10.926   9.204 -0.1110 -0.0550  0.2421
  381loPI   C4B 6096   7.978  10.968   8.839  0.2924 -0.0142  0.1433
  382loPI    C1 6097   9.359   2.749  10.216 -0.0386  0.1388 -0.0790
  382loPI    C2 6098   9.396   2.964  10.551 -0.0702  0.1495 -0.0824
  382loPI    C3 6099   9.488   2.575  10.553 -0.1269  0.1363 -0.0464
  382loPI   PO4 6100   9.128   2.873  10.131 -0.1734 -0.2304  0.0617
  382loPI   GL1 6101   8.881   2.951   9.836 -0.0875 -0.1056 -0.2564
  382loPI   GL2 6102   9.142   2.608   9.721  0.0023  0.0563 -0.2136
  382loPI   C1A 6103   8.551   3.089   9.558 -0.0732 -0.1679 -0.1230
  382loPI   C2A 6104   8.581   3.215   9.110 -0.2132 -0.0204 -0.1601
  382loPI   C3A 6105   8.558   3.192   8.699  0.2010 -0.0040  0.1127
  382loPI   C4A 6106   8.412   3.098   8.260  0.1473  0.2671 -0.2202
  382loPI   C5A 6107   8.044   3.311   7.967 -0.1947 -0.1788  0.2528
  382loPI   C6A 6108   7.647   3.385   7.740  0.0311  0.2796  0.0849
  382loPI   C1B 6109   9.296   2.772   9.331  0.2362 -0.1316  0.1854
  382loPI   C2B 6110   9.537   2.718   8.935  0.0162  0.1993  0.2054
  382loPI   C3B 6111   9.562   2.980   8.540  0.0624 -0.1453 -0.0199
  382loPI   C4B 6112   9.351   3.033   8.138  0.0455  0.0410 -0.1012
  383loPI    C1 6113  12.762  10.987  10.772  0.0327 -0.0645 -0.1424
  383loPI    C2 6114  13.004  10.761  10.548  0.1011 -0.1753  0.0410
  383loPI    C3 6115  13.050  10.770  10.945  0.0667  0.1236  0.0406
  383loPI   PO4 6116  12.769  11.191  10.690 -0.0774  0.0994  0.3237
  383loPI   GL1 6117  12.775  11.173  10.291 -0.1516 -0.3355  0.1506
  383loPI   GL2 6118  12.549  11.602  10.357 -0.0327  0.1017 -0.0879
  383loPI   C1A 6119  12.668  10.933   9.894 -0.0355  0.0235  0.0774
  383loPI   C2A 6120  12.542  10.831   9.485  0.0981 -0.0934  0.1000
  383loPI   C3A 6121  12.473  10.741   9.041  0.1990  0.0539 -0.2670
  383loPI   C4A 6122  12.266  10.687   8.627  0.1755  0.2268 -0.1048
  383loPI   C5A 6123  12.192  10.424   8.294  0.0990 -0.1230 -0.0312
  383loPI   C6A 6124  12.206   9.951   8.129 -0.1089 -0.0376 -0.0830
  383loPI   C1B 6125  12.695  11.549   9.957 -0.0952  0.0749  0.0886
  383loPI   C2B 6126  12.710  11.307   9.590  0.2742  0.2228 -0.1632
  383loPI   C3B 6127  12.735  11.185   9.138 -0.0114  0.0959  0.0098
  383loPI   C4B 6128  12.848  11.231   8.753  0.0626 -0.2347  0.1222
  384loPI    C1 6129  17.302   4.889  10.226  0.0873  0.0536 -0.1027
  384loPI    C2 6130  17.256   4.649  10.543  0.1692 -0.0283 -0.1525
  384loPI    C3 6131  17.171   5.039  10.573 -0.2823 -0.1205 -0.1626
  384loPI   PO4 6132  17.139   4.785  10.066  0.0188 -0.4052  0.0383
  384loPI   GL1 6133  16.995   4.746   9.663 -0.1481  0.1656  0.1044
  384loPI   GL2 6134  16.797   5.005   9.742  0.2923  0.2270 -0.2535
  384loPI   C1A 6135  17.245   4.749   9.307 -0.0159  0.2289  0.3350
  384loPI   C2A 6136  16.980   4.806   8.935 -0.1436 -0.0097 -0.4436
  384loPI   C3A 6137  16.794   4.605   8.460 -0.0096 -0.0739 -0.4271
  384loPI   C4A 6138  16.523   4.629   8.106 -0.2617  0.0638 -0.0244
  384loPI   C5A 6139  16.378   4.596   7.674 -0.2105 -0.1209 -0.0622
  384loPI   C6A 6140  15.975   4.692   7.507  0.0739 -0.0476  0.1471
  384loPI   C1B 6141  16.716   5.003   9.336  0.0009 -0.1402 -0.0401
  384loPI   C2B 6142  16.596   5.074   8.851 -0.0209 -0.0326  0.1644
  384loPI   C3B 6143  16.607   5.089   8.374  0.0075  0.0268 -0.3024
  384loPI   C4B 6144  16.729   5.293   8.030  0.2022  0.0553  0.1234
  385loPI    C1 6145  16.780   1.624  10.919 -0.0473  0.2389 -0.1962
  385loPI    C2 6146  16.648   2.000  10.950 -0.0719  0.2128  0.0355
  385loPI    C3 6147  16.988   1.892  11.131 -0.0423  0.1338 -0.0667
  385loPI   PO4 6148  16.676   1.590  10.609 -0.1121 -0.1413  0.0116
  385loPI   GL1 6149  16.489   1.570  10.228  0.2258 -0.0358 -0.2158
  385loPI   GL2 6150  16.354   1.199  10.119 -0.0123 -0.1221 -0.0674
  385loPI   C1A 6151  16.333   1.718   9.840 -0.0400  0.0435 -0.0479
  385loPI   C2A 6152  16.449   1.641   9.427 -0.0811  0.0629 -0.0341
  385loPI   C3A 6153  16.453   1.593   8.974  0.0161 -0.0870 -0.1073
  385loPI   C4A 6154  16.505   1.483   8.520  0.1566  0.0789 -0.2388
  385loPI   C5A 6155  16.650   1.670   8.262 -0.3300  0.1034 -0.1127
  385loPI   C6A 6156  16.820   1.766   7.864 -0.0091  0.0837  0.2881
  385loPI   C1B 6157  16.386   1.236   9.712 -0.3451 -0.3271 -0.3173
  385loPI   C2B 6158  16.266   1.043   9.405 -0.2705 -0.0425  0.0031
  385loPI   C3B 6159  16.261   1.144   8.993 -0.0490 -0.1589  0.2016
  385loPI   C4B 6160  16.365   0.998   8.599 -0.0321  0.1666 -0.0076
  386loPI    C1 6161   5.152  10.128  10.583  0.0049 -0.0071  0.2496
  386loPI    C2 6162   4.775  10.117  10.716 -0.0956  0.2557 -0.0044
  386loPI    C3 6163   4.999  10.443  10.776  0.1601  0.0278  0.3177
  386loPI   PO4 6164   5.153  10.034  10.395  0.1043  0.0926  0.0412
  386loPI   GL1 6165   5.392  10.035  10.080 -0.0457 -0.0014  0.4340
  386loPI   GL2 6166   5.641  10.278  10.069  0.0615 -0.0208 -0.2549
  386loPI   C1A 6167   5.099   9.863   9.761 -0.4268  0.3485 -0.1968
  386loPI   C2A 6168   5.046   9.849   9.376  0.2582 -0.0260  0.1033
  386loPI   C3A 6169   5.112   9.819   8.880 -0.0092 -0.0604  0.0205
  386loPI   C4A 6170   4.971   9.886   8.455  0.1477  0.0727 -0.2472
  386loPI   C5A 6171   4.890   9.917   8.068  0.2874  0.0496  0.0733
  386loPI   C6A 6172   5.045   9.993   7.686  0.0900  0.2354  0.1970
  386loPI   C1B 6173   5.605  10.263   9.647 -0.0169 -0.2521 -0.2124
  386loPI   C2B 6174   5.503  10.040   9.247  0.1715 -0.1973  0.3264
  386loPI   C3B 6175   5.551  10.013   8.803  0.0517 -0.1420  0.0786
  386loPI   C4B 6176   5.342  10.201   8.527 -0.0248  0.0060  0.0460
  387loPI    C1 6177  11.575   6.663  10.781  0.0908 -0.1424  0.0373
  387loPI    C2 6178  11.382   6.924  11.015  0.0098 -0.1645 -0.0048
  387loPI    C3 6179  11.535   6.590  11.172  0.2379 -0.0244  0.0755
  387loPI   PO4 6180  11.412   6.581  10.603 -0.0342  0.0281 -0.0427
  387loPI   GL1 6181  11.262   6.754  10.234 -0.1002 -0.0862 -0.0921
  387loPI   GL2 6182  10.964   6.923  10.142 -0.0051 -0.0369  0.0396
  387loPI   C1A 6183  11.460   6.664   9.875 -0.2588 -0.0074 -0.1412
  387loPI   C2A 6184  11.453   6.672   9.462 -0.0538  0.0725 -0.3426
  387loPI   C3A 6185  11.296   6.613   9.033  0.0585  0.3780  0.1315
  387loPI   C4A 6186  11.312   6.629   8.596  0.0105  0.2947  0.0013
  387loPI   C5A 6187  11.244   6.405   8.156 -0.3326  0.2727 -0.3780
  387loPI   C6A 6188  11.278   6.684   7.728 -0.0868  0.1156  0.1896
  387loPI   C1B 6189  10.971   6.784   9.702 -0.2040 -0.0197 -0.2417
  387loPI   C2B 6190  10.909   6.846   9.306 -0.1114 -0.1060  0.2264
  387loPI   C3B 6191  10.820   6.845   8.865  0.0859 -0.1296  0.0190
  387loPI   C4B 6192  10.854   6.909   8.409  0.0855 -0.0680  0.0770
  388loPI    C1 6193   7.959   4.264  10.782 -0.2394  0.0066  0.0634
  388loPI    C2 6194   8.052   4.021  11.086  0.0358 -0.0072 -0.0287
  388loPI    C3 6195   7.742   4.272  11.118 -0.0360 -0.1219  0.2003
  388loPI   PO4 6196   7.947   4.083  10.484  0.3075 -0.0649  0.1430
  388loPI   GL1 6197   8.180   4.119  10.062  0.1537  0.2548  0.3269
  388loPI   GL2 6198   8.160   3.739  10.113 -0.1296 -0.1970 -0.0080
  388loPI   C1A 6199   8.117   4.005   9.640  0.1777 -0.2303  0.0313
  388loPI   C2A 6200   8.170   4.019   9.214 -0.1994 -0.1091 -0.2565
  388loPI   C3A 6201   8.084   3.999   8.836  0.1087  0.2818 -0.2667
  388loPI   C4A 6202   8.102   3.989   8.494  0.0871 -0.1807 -0.1119
  388loPI   C5A 6203   8.069   3.841   8.089 -0.0138  0.0141  0.3249
  388loPI   C6A 6204   7.849   3.935   7.641  0.2252  0.2438  0.0492
  388loPI   C1B 6205   8.117   3.469   9.781  0.3376 -0.0380  0.0099
  388loPI   C2B 6206   8.158   3.365   9.353 -0.1318 -0.4382 -0.2702
  388loPI   C3B 6207   8.047   3.528   8.983 -0.3707  0.0442 -0.1021
  388loPI   C4B 6208   8.092   3.491   8.525  0.0501 -0.4043  0.4614
  389loPI    C1 6209  15.770   7.204  11.143  0.1633  0.1957  0.1340
  389loPI    C2 6210  16.166   7.249  11.121  0.1729  0.0555 -0.0016
  389loPI    C3 6211  16.012   6.917  11.280  0.1087  0.1382  0.1106
  389loPI   PO4 6212  15.736   7.399  10.979  0.1246  0.2372  0.2446
  389loPI   GL1 6213  15.717   7.297  10.538 -0.1165 -0.1518 -0.0727
  389loPI   GL2 6214  15.500   7.177  10.515  0.2803 -0.1596 -0.1089
  389loPI   C1A 6215  15.919   7.610  10.191  0.1126  0.2100  0.0143
  389loPI   C2A 6216  15.927   7.745   9.815  0.1281  0.0087  0.1292
  389loPI   C3A 6217  15.735   7.759   9.438  0.3628  0.0807 -0.0262
  389loPI   C4A 6218  15.786   7.717   9.060 -0.2922 -0.0522  0.0519
  389loPI   C5A 6219  15.750   7.832   8.656 -0.1504  0.3390 -0.3935
  389loPI   C6A 6220  15.489   7.853   8.332  0.3523  0.2056 -0.1039
  389loPI   C1B 6221  15.416   7.478  10.123  0.1079 -0.1690 -0.1540
  389loPI   C2B 6222  15.328   7.419   9.666  0.1885  0.0313  0.1505
  389loPI   C3B 6223  15.354   7.464   9.262 -0.0159  0.0631  0.3062
  389loPI   C4B 6224  15.403   7.490   8.811 -0.5142  0.2435 -0.1193
  390loPI    C1 6225   0.691  16.064  11.108 -0.0583  0.0773 -0.0433
  390loPI    C2 6226   0.413  15.814  11.250 -0.3060  0.1571 -0.3777
  390loPI    C3 6227   0.508  16.144  11.454  0.0359 -0.2078  0.0764
  390loPI   PO4 6228   0.648  16.061  10.822 -0.2941  0.0287 -0.3921
  390loPI   GL1 6229   0.847  16.258  10.384 -0.1519 -0.0045 -0.2114
  390loPI   GL2 6230   1.135  16.225  10.443  0.1475  0.1798  0.1218
  390loPI   C1A 6231   0.827  16.278   9.910 -0.2026  0.2237  0.1988
  390loPI   C2A 6232   0.807  16.333   9.397 -0.0449  0.2900 -0.0259
  390loPI   C3A 6233   0.906  16.274   8.989 -0.2642  0.2188 -0.0849
  390loPI   C4A 6234   1.007  16.330   8.501 -0.4358 -0.0817 -0.2765
  390loPI   C5A 6235   0.785  16.212   8.196 -0.1362 -0.2821  0.1121
  390loPI   C6A 6236   0.629  15.940   7.818 -0.1889  0.0030 -0.0759
  390loPI   C1B 6237   1.244  15.988  10.087  0.3623 -0.2646  0.0926
  390loPI   C2B 6238   1.158  16.011   9.648 -0.0481  0.0666  0.0311
  390loPI   C3B 6239   1.271  15.954   9.223 -0.2118  0.1169 -0.0613
  390loPI   C4B 6240   1.320  15.981   8.827  0.1515  0.1336 -0.0281
  391loPI    C1 6241   1.204   2.801  10.783 -0.1342 -0.0278 -0.0457
  391loPI    C2 6242   1.579   2.894  10.679 -0.1333  0.0095 -0.0099
  391loPI    C3 6243   1.509   2.693  11.018 -0.1579  0.1502  0.0693
  391loPI   PO4 6244   1.056   2.770  10.611 -0.2330  0.1929  0.1536
  391loPI   GL1 6245   0.959   2.562  10.228  0.3900 -0.0444 -0.0371
  391loPI   GL2 6246   1.304   2.567  10.210  0.1323  0.2420  0.2868
  391loPI   C1A 6247   0.808   2.541   9.818  0.2918  0.0099 -0.1374
  391loPI   C2A 6248   0.709   2.413   9.413  0.3772 -0.1236 -0.1722
  391loPI   C3A 6249   0.653   2.408   9.030  0.3172  0.1552 -0.1042
  391loPI   C4A 6250   0.771   2.397   8.643  0.2030 -0.0568 -0.0069
  391loPI   C5A 6251   0.902   2.418   8.251  0.1356  0.0042  0.0739
  391loPI   C6A 6252   1.305   2.819   8.167 -0.0709 -0.3428 -0.0602
  391loPI   C1B 6253   1.269   2.636   9.836  0.0106  0.1521  0.1886
  391loPI   C2B 6254   1.269   2.800   9.443 -0.2983  0.1094 -0.1179
  391loPI   C3B 6255   1.332   2.802   9.029 -0.3030  0.1850 -0.2117
  391loPI   C4B 6256   1.251   2.932   8.695 -0.0547 -0.0145  0.1652
  392loPI    C1 6257   0.888  10.207  10.612 -0.0337 -0.3255 -0.0255
  392loPI    C2 6258   0.745  10.402  10.930  0.2036  0.1088 -0.1763
  392loPI    C3 6259   1.116  10.253  10.937  0.1185 -0.1051 -0.1601
  392loPI   PO4 6260   0.735  10.322  10.409  0.0787  0.0426 -0.2788
  392loPI   GL1 6261   0.868  10.296   9.979  0.0626 -0.0338  0.0208
  392loPI   GL2 6262   1.206  10.403   9.991 -0.1273 -0.0204  0.0428
  392loPI   C1A 6263   1.056  10.380   9.507 -0.0868 -0.2550 -0.0061
  392loPI   C2A 6264   1.054  10.366   9.021 -0.2287 -0.1738  0.0083
  392loPI   C3A 6265   0.924   9.989   8.825  0.1541  0.0366  0.0897
  392loPI   C4A 6266   0.692   9.543   8.787  0.5063  0.0132  0.1700
  392loPI   C5A 6267   0.482   9.170   8.894  0.0408 -0.0652  0.2141
  392loPI   C6A 6268   0.367   8.764   8.711 -0.1619 -0.0021  0.2460
  392loPI   C1B 6269   1.339  10.761   9.575  0.0999 -0.0479 -0.1068
  392loPI   C2B 6270   1.558  10.991   9.358  0.1628 -0.1542  0.1292
  392loPI   C3B 6271   1.722  10.985   8.915 -0.0878 -0.0972 -0.3038
  392loPI   C4B 6272   1.841  11.018   8.479 -0.0835 -0.0178 -0.1033
  393loPI    C1 6273   4.176  12.111  11.200 -0.0756  0.0337  0.0697
  393loPI    C2 6274   4.006  11.930  11.513 -0.0324  0.1618  0.1678
  393loPI    C3 6275   4.096  12.320  11.531  0.3195  0.0855  0.1373
  393loPI   PO4 6276   4.028  11.989  10.948 -0.0445 -0.2548  0.0719
  393loPI   GL1 6277   3.718  11.969  10.541 -0.0574  0.0618  0.1629
  393loPI   GL2 6278   3.804  11.759  10.346 -0.0800 -0.3481  0.1218
  393loPI   C1A 6279   3.747  12.258  10.194  0.0615  0.0918 -0.2540
  393loPI   C2A 6280   3.495  12.485   9.892  0.1787  0.0279  0.0529
  393loPI   C3A 6281   3.467  12.561   9.462  0.1113 -0.1356 -0.1389
  393loPI   C4A 6282   3.544  12.537   9.105 -0.2164 -0.3590 -0.2846
  393loPI   C5A 6283   3.401  12.953   8.865  0.2858 -0.2704  0.1048
  393loPI   C6A 6284   3.369  13.368   8.555  0.0636 -0.0182 -0.0600
  393loPI   C1B 6285   3.765  11.823   9.868  0.0745  0.0931 -0.0465
  393loPI   C2B 6286   3.760  11.708   9.486  0.1409 -0.2484 -0.0703
  393loPI   C3B 6287   3.696  11.722   9.052  0.1522  0.1711 -0.2258
  393loPI   C4B 6288   3.824  11.543   8.645  0.2149  0.2076 -0.2909
  394loPI    C1 6289   1.588  10.802  10.702 -0.0288  0.1374 -0.0272
  394loPI    C2 6290   1.597  10.964  11.068  0.0735 -0.0562  0.0577
  394loPI    C3 6291   1.322  10.687  10.978  0.1470 -0.1236  0.0382
  394loPI   PO4 6292   1.620  10.968  10.509 -0.0122 -0.2331  0.0990
  394loPI   GL1 6293   1.789  11.255  10.264 -0.0161 -0.2586  0.0180
  394loPI   GL2 6294   1.681  11.583  10.032  0.1293  0.0892 -0.0157
  394loPI   C1A 6295   2.045  11.236   9.854 -0.0594  0.0759 -0.0258
  394loPI   C2A 6296   2.166  11.594   9.563 -0.1794  0.0261 -0.2391
  394loPI   C3A 6297   2.283  11.622   9.091 -0.3134  0.0755 -0.1501
  394loPI   C4A 6298   2.635  11.551   8.778  0.0509 -0.0916  0.0759
  394loPI   C5A 6299   2.711  11.599   8.350 -0.1259 -0.0979  0.1254
  394loPI   C6A 6300   2.734  11.842   7.974 -0.3564  0.0603  0.3564
  394loPI   C1B 6301   1.312  11.708   9.721  0.2322  0.0350 -0.0387
  394loPI   C2B 6302   1.365  11.768   9.401  0.0196  0.1563  0.0753
  394loPI   C3B 6303   1.395  11.861   8.949  0.0273 -0.0801  0.0035
  394loPI   C4B 6304   1.353  11.838   8.484 -0.0079 -0.1288  0.3208
  395loPI    C1 6305   0.046   9.879  10.518 -0.0216  0.1179 -0.0909
  395loPI    C2 6306   0.418   9.924  10.661 -0.0240 -0.1558  0.0067
  395loPI    C3 6307   0.104   9.942  10.909 -0.0605 -0.1528 -0.0393
  395loPI   PO4 6308   0.015  10.078  10.360 -0.0601 -0.0581  0.0148
  395loPI   GL1 6309   0.347  10.226  10.091  0.3046  0.2215 -0.0968
  395loPI   GL2 6310   0.325   9.933   9.980  0.1569  0.3423 -0.1546
  395loPI   C1A 6311   0.409  10.465   9.703 -0.2295  0.0050 -0.1464
  395loPI   C2A 6312   0.542  10.827   9.488 -0.2429 -0.0340 -0.0809
  395loPI   C3A 6313   0.911  10.849   9.317  0.3303  0.3819 -0.1790
  395loPI   C4A 6314   1.049  10.804   8.823 -0.2225 -0.1550 -0.2278
  395loPI   C5A 6315   1.259  10.897   8.403 -0.3118  0.1875 -0.2602
  395loPI   C6A 6316   1.249  10.825   8.040 -0.1166  0.0801  0.0461
  395loPI   C1B 6317   0.321   9.910   9.560 -0.1086 -0.1310 -0.2010
  395loPI   C2B 6318   0.346   9.866   9.163  0.1449  0.0965 -0.2633
  395loPI   C3B 6319   0.424   9.985   8.738  0.1712  0.1874 -0.0391
  395loPI   C4B 6320   0.102   9.982   8.275 -0.0741 -0.0446  0.4168
  396loPI    C1 6321  11.460   0.950  10.450  0.0170 -0.0095 -0.0797
  396loPI    C2 6322  11.680   1.218  10.650 -0.0983  0.0790 -0.0710
  396loPI    C3 6323  11.344   1.073  10.813  0.0188 -0.1514 -0.0304
  396loPI   PO4 6324  11.436   1.059  10.220  0.0993  0.0459 -0.2376
  396loPI   GL1 6325  11.202   1.334  10.016 -0.2983  0.0514 -0.1385
  396loPI   GL2 6326  11.399   1.560   9.926  0.0074  0.0166  0.2429
  396loPI   C1A 6327  10.906   1.369   9.665 -0.3037  0.0130  0.2912
  396loPI   C2A 6328  10.690   1.197   9.367 -0.0286 -0.0987  0.0323
  396loPI   C3A 6329  10.741   1.130   8.943  0.0706  0.4515 -0.2323
  396loPI   C4A 6330  10.638   1.067   8.487 -0.1341  0.2457  0.0806
  396loPI   C5A 6331  10.740   0.859   8.066  0.0796 -0.0136  0.2823
  396loPI   C6A 6332  11.130   0.673   7.977 -0.1376  0.0435 -0.0671
  396loPI   C1B 6333  11.355   1.494   9.486 -0.0930  0.0665 -0.2132
  396loPI   C2B 6334  11.197   1.329   9.141  0.0195  0.0552  0.2853
  396loPI   C3B 6335  11.115   1.329   8.715  0.3114  0.1634 -0.1488
  396loPI   C4B 6336  11.104   1.229   8.248 -0.1070 -0.1514  0.0524
  397loPI    C1 6337  11.545  15.116  10.644  0.0869 -0.1069  0.0224
  397loPI    C2 6338  11.177  15.184  10.786  0.0440 -0.1062 -0.0883
  397loPI    C3 6339  11.486  15.150  11.038  0.0123  0.1625 -0.0105
  397loPI   PO4 6340  11.619  15.108  10.481  0.4169 -0.0865  0.0507
  397loPI   GL1 6341  11.674  15.051  10.121  0.1607 -0.3445  0.1076
  397loPI   GL2 6342  11.800  15.272   9.998 -0.3842 -0.0181  0.0385
  397loPI   C1A 6343  11.533  15.142   9.532  0.2736 -0.1346  0.0180
  397loPI   C2A 6344  11.576  15.185   9.100  0.0341 -0.1305 -0.0301
  397loPI   C3A 6345  11.651  15.122   8.758  0.2045 -0.0503 -0.0750
  397loPI   C4A 6346  11.975  15.275   8.496  0.0465 -0.3080  0.1592
  397loPI   C5A 6347  12.332  15.195   8.291 -0.1369 -0.3427  0.1700
  397loPI   C6A 6348  12.357  14.755   8.178  0.1556  0.5726 -0.0792
  397loPI   C1B 6349  11.803  15.501   9.687  0.4435  0.0638  0.0683
  397loPI   C2B 6350  11.695  15.664   9.309 -0.2480  0.0577  0.1603
  397loPI   C3B 6351  11.673  15.634   8.780  0.0903 -0.0467 -0.0503
  397loPI   C4B 6352  11.586  15.567   8.295 -0.0536  0.0045 -0.1389
  398loPI    C1 6353  12.890   9.708  10.819 -0.0307 -0.1398 -0.0182
  398loPI    C2 6354  13.151   9.965  10.659 -0.1985  0.0563  0.0181
  398loPI    C3 6355  13.184   9.860  11.043 -0.1105 -0.0021 -0.0051
  398loPI   PO4 6356  12.907   9.498  10.591 -0.1270  0.4797  0.3396
  398loPI   GL1 6357  13.123   9.556  10.275 -0.0502 -0.0539  0.0794
  398loPI   GL2 6358  13.290   9.338  10.231  0.0275  0.0605  0.1630
  398loPI   C1A 6359  13.143   9.645   9.826 -0.2283 -0.3346 -0.2059
  398loPI   C2A 6360  13.134   9.658   9.339  0.1166 -0.2947 -0.0212
  398loPI   C3A 6361  13.137   9.708   8.940  0.5264 -0.0680  0.0948
  398loPI   C4A 6362  13.051   9.820   8.445 -0.1955  0.1836 -0.1626
  398loPI   C5A 6363  13.110  10.047   8.099 -0.2414  0.1326  0.0768
  398loPI   C6A 6364  13.131  10.084   7.687  0.2689  0.1018  0.2327
  398loPI   C1B 6365  13.300   9.115   9.845  0.3649 -0.1597 -0.0717
  398loPI   C2B 6366  13.290   9.098   9.370  0.1216 -0.1250  0.1821
  398loPI   C3B 6367  13.309   9.211   8.925  0.0409 -0.3257  0.2127
  398loPI   C4B 6368  13.247   9.212   8.480 -0.0982  0.3042 -0.0812
  399loPI    C1 6369   9.836   9.216  10.827  0.2208  0.0641 -0.1736
  399loPI    C2 6370  10.218   9.293  10.917  0.1991  0.0876 -0.1015
  399loPI    C3 6371   9.987   9.098  11.178  0.1380  0.1495 -0.1090
  399loPI   PO4 6372   9.789   9.260  10.613 -0.3593  0.0778  0.1134
  399loPI   GL1 6373   9.522   9.100  10.337 -0.4063  0.1633  0.0117
  399loPI   GL2 6374   9.350   9.333  10.378 -0.1692 -0.0597  0.2334
  399loPI   C1A 6375   9.550   9.272   9.877 -0.1052 -0.0754  0.0833
  399loPI   C2A 6376   9.548   9.208   9.492  0.3103 -0.2632  0.0795
  399loPI   C3A 6377   9.620   9.251   9.006 -0.1140  0.1580 -0.0577
  399loPI   C4A 6378   9.781   9.175   8.556  0.1320 -0.1696 -0.1600
  399loPI   C5A 6379  10.081   8.937   8.432 -0.2117 -0.3472  0.2124
  399loPI   C6A 6380  10.356   8.704   8.185  0.1213  0.0929  0.1627
  399loPI   C1B 6381   9.504   9.732  10.098 -0.0079 -0.2048  0.3263
  399loPI   C2B 6382   9.331   9.801   9.602  0.1180  0.1205  0.0720
  399loPI   C3B 6383   9.467   9.688   9.206 -0.2791  0.0169  0.0721
  399loPI   C4B 6384   9.466   9.766   8.781  0.0941 -0.1345 -0.0111
  400loPI    C1 6385  17.830   2.906  10.809  0.0659  0.3696 -0.1752
  400loPI    C2 6386  17.971   3.161  10.535  0.0383  0.3320 -0.2249
  400loPI    C3 6387  17.884   3.290  10.904 -0.2384  0.4537 -0.3302
  400loPI   PO4 6388  17.659   2.735  10.653 -0.3080  0.0680  0.2141
  400loPI   GL1 6389  17.570   2.766  10.299  0.2746 -0.4610 -0.0645
  400loPI   GL2 6390  17.296   2.858  10.135  0.0910 -0.3425  0.0313
  400loPI   C1A 6391  17.875   2.699   9.904 -0.3130  0.2718 -0.3481
  400loPI   C2A 6392  17.980   2.607   9.558 -0.0820  0.1803 -0.1153
  400loPI   C3A 6393  17.954   2.612   9.191 -0.1452 -0.0428  0.2509
  400loPI   C4A 6394  17.867   2.543   8.786 -0.1829 -0.0716 -0.1751
  400loPI   C5A 6395  17.898   2.560   8.325 -0.1891 -0.1047  0.0289
  400loPI   C6A 6396  18.023   2.307   7.977 -0.2604 -0.1401  0.2021
  400loPI   C1B 6397  17.176   2.867   9.737 -0.0854  0.0801  0.0450
  400loPI   C2B 6398  17.151   2.783   9.311  0.1688 -0.1442  0.0246
  400loPI   C3B 6399  17.092   2.816   8.846 -0.1148  0.1273 -0.1882
  400loPI   C4B 6400  17.060   2.642   8.485 -0.1331  0.0506 -0.0986
  401loPI    C1 6401  11.320   5.627  10.919  0.2069  0.0678 -0.0082
  401loPI    C2 6402  11.289   5.510  11.300  0.1544  0.0343 -0.0227
  401loPI    C3 6403  11.002   5.736  11.136  0.2025  0.0925 -0.0269
  401loPI   PO4 6404  11.411   5.481  10.764  0.1304  0.2317 -0.1067
  401loPI   GL1 6405  11.624   5.497  10.373  0.0491 -0.0712  0.0062
  401loPI   GL2 6406  11.627   5.178  10.309  0.0125 -0.1494 -0.0650
  401loPI   C1A 6407  11.778   5.773  10.022  0.0732  0.1956  0.2064
  401loPI   C2A 6408  12.026   5.912   9.640 -0.0792  0.2447  0.0262
  401loPI   C3A 6409  11.887   6.010   9.230  0.0013  0.1991  0.0348
  401loPI   C4A 6410  11.843   5.854   8.847 -0.0307 -0.3811 -0.1507
  401loPI   C5A 6411  11.922   5.981   8.465  0.0993  0.1134 -0.2805
  401loPI   C6A 6412  11.715   6.128   8.109 -0.1367  0.0536 -0.2140
  401loPI   C1B 6413  11.534   5.346   9.939  0.0436  0.3120 -0.0080
  401loPI   C2B 6414  11.538   5.623   9.556  0.2257 -0.1032  0.0627
  401loPI   C3B 6415  11.514   5.643   9.116 -0.0179 -0.3133  0.0302
  401loPI   C4B 6416  11.438   5.619   8.667  0.0776  0.1685 -0.1252
  402loPI    C1 6417   3.327  14.239  10.947 -0.0138  0.1340 -0.0417
  402loPI    C2 6418   3.470  14.421  11.274 -0.0222 -0.1375  0.1167
  402loPI    C3 6419   3.079  14.341  11.244 -0.0502  0.0517 -0.0434
  402loPI   PO4 6420   3.326  14.264  10.660  0.3117 -0.1635  0.0636
  402loPI   GL1 6421   3.229  14.602  10.423 -0.1032 -0.2985 -0.2644
  402loPI   GL2 6422   2.964  14.791  10.322  0.1190 -0.0911 -0.0281
  402loPI   C1A 6423   3.223  14.491  10.050 -0.2277 -0.1254  0.0199
  402loPI   C2A 6424   3.277  14.344   9.616  0.1022  0.0667 -0.1855
  402loPI   C3A 6425   3.132  14.474   9.262 -0.0183 -0.3328  0.0331
  402loPI   C4A 6426   2.850  14.639   8.929  0.1060 -0.1468  0.0334
  402loPI   C5A 6427   2.887  14.661   8.503 -0.2203 -0.1686 -0.2087
  402loPI   C6A 6428   2.876  14.384   8.098 -0.3878  0.0388  0.1054
  402loPI   C1B 6429   2.738  14.780   9.934 -0.1810 -0.1943  0.1428
  402loPI   C2B 6430   2.664  14.771   9.520 -0.0217 -0.0283 -0.1454
  402loPI   C3B 6431   2.539  14.923   9.103  0.1200  0.0843  0.0188
  402loPI   C4B 6432   2.452  14.971   8.708  0.0669 -0.2144 -0.0006
  403loPI    C1 6433  15.603  15.063  10.983  0.0458 -0.2166  0.0292
  403loPI    C2 6434  15.780  14.964  11.328  0.1235 -0.0225  0.0458
  403loPI    C3 6435  15.383  15.014  11.314  0.1246  0.0065  0.1161
  403loPI   PO4 6436  15.748  15.230  10.913  0.0683  0.0215  0.0624
  403loPI   GL1 6437  15.962  15.331  10.576 -0.1914 -0.1740 -0.0579
  403loPI   GL2 6438  15.717  15.485  10.371  0.0630 -0.0905 -0.0428
  403loPI   C1A 6439  16.024  15.113  10.250  0.0756  0.1095 -0.0695
  403loPI   C2A 6440  16.085  15.252   9.833  0.1969 -0.3747  0.3215
  403loPI   C3A 6441  16.114  15.290   9.387 -0.0637 -0.1920  0.2024
  403loPI   C4A 6442  15.958  15.250   9.051  0.0508  0.1293  0.1945
  403loPI   C5A 6443  15.994  15.284   8.521 -0.1284 -0.1583  0.2456
  403loPI   C6A 6444  16.242  15.324   8.126  0.0367 -0.0456  0.1026
  403loPI   C1B 6445  15.603  15.467   9.930 -0.2294 -0.1552 -0.0736
  403loPI   C2B 6446  15.668  15.599   9.435  0.1721  0.0897  0.3376
  403loPI   C3B 6447  15.611  15.611   9.055  0.1941  0.0040 -0.1829
  403loPI   C4B 6448  15.754  15.660   8.731 -0.0067 -0.1799 -0.2211
  404loPI    C1 6449  17.134  14.164  10.865  0.0260  0.0529  0.0400
  404loPI    C2 6450  16.983  14.093  11.229 -0.0618  0.0790  0.0087
  404loPI    C3 6451  17.273  13.859  11.084 -0.1672 -0.0555  0.0132
  404loPI   PO4 6452  16.937  14.293  10.800 -0.1705  0.1411 -0.1986
  404loPI   GL1 6453  16.929  14.664  10.523  0.2338 -0.0426 -0.0425
  404loPI   GL2 6454  17.192  14.862  10.431  0.4323  0.2275 -0.0959
  404loPI   C1A 6455  16.823  14.524  10.181  0.2635  0.1609 -0.2608
  404loPI   C2A 6456  16.795  14.588   9.834  0.1502  0.2804 -0.3108
  404loPI   C3A 6457  16.770  14.677   9.376 -0.0182 -0.1867 -0.1423
  404loPI   C4A 6458  16.864  14.598   9.005 -0.0365 -0.0889  0.2739
  404loPI   C5A 6459  16.828  14.814   8.706 -0.4587  0.0878 -0.0936
  404loPI   C6A 6460  17.025  14.822   8.266 -0.1799  0.3955 -0.3813
  404loPI   C1B 6461  17.277  14.751  10.095  0.2003  0.2250 -0.2210
  404loPI   C2B 6462  17.331  14.771   9.675 -0.1019  0.1499 -0.0079
  404loPI   C3B 6463  17.296  14.796   9.248 -0.2520 -0.0009  0.0970
  404loPI   C4B 6464  17.395  14.746   8.842  0.0869  0.1834 -0.3034
  405loPI    C1 6465  17.239   6.555  10.443 -0.1096 -0.3162 -0.0184
  405loPI    C2 6466  16.958   6.615  10.720 -0.0888  0.0271 -0.0674
  405loPI    C3 6467  17.322   6.491  10.829 -0.1048  0.0827  0.0510
  405loPI   PO4 6468  17.166   6.698  10.258 -0.1884  0.2590 -0.1804
  405loPI   GL1 6469  17.128   6.966   9.935 -0.1956 -0.1144  0.2320
  405loPI   GL2 6470  17.338   6.874   9.788 -0.2989 -0.1434  0.0496
  405loPI   C1A 6471  16.915   6.843   9.549 -0.1916  0.2068  0.1934
  405loPI   C2A 6472  16.821   6.966   9.136 -0.0372 -0.0693 -0.0846
  405loPI   C3A 6473  16.767   6.904   8.699  0.1625  0.1125 -0.0374
  405loPI   C4A 6474  16.721   7.036   8.270 -0.1481  0.0353  0.2119
  405loPI   C5A 6475  16.976   7.006   7.900  0.0456  0.2030 -0.0016
  405loPI   C6A 6476  17.139   6.673   7.667  0.0659  0.2800 -0.1474
  405loPI   C1B 6477  17.513   6.816   9.392  0.1286  0.0483  0.0421
  405loPI   C2B 6478  17.200   6.762   8.971 -0.2607  0.0085 -0.0904
  405loPI   C3B 6479  17.256   6.690   8.553 -0.1566 -0.1007  0.0997
  405loPI   C4B 6480  17.273   6.612   8.152 -0.0016  0.1418 -0.1564
  406loPI    C1 6481   7.695   2.302  10.247 -0.1628 -0.0122  0.1212
  406loPI    C2 6482   7.553   2.630  10.426 -0.2475 -0.0697  0.1599
  406loPI    C3 6483   7.310   2.403  10.205 -0.1578 -0.0336  0.0235
  406loPI   PO4 6484   7.974   2.363  10.244  0.2435  0.1874  0.1985
  406loPI   GL1 6485   8.092   2.315   9.858  0.0269 -0.4258 -0.1146
  406loPI   GL2 6486   8.373   2.135  10.002 -0.0889 -0.2244 -0.2409
  406loPI   C1A 6487   8.220   2.447   9.450 -0.1744 -0.1448 -0.4815
  406loPI   C2A 6488   8.255   2.454   8.924  0.1846 -0.0500 -0.1409
  406loPI   C3A 6489   8.255   2.520   8.512 -0.2127  0.0780  0.0990
  406loPI   C4A 6490   8.388   2.498   8.173 -0.2466 -0.1970  0.2962
  406loPI   C5A 6491   8.317   2.420   7.722 -0.0220  0.0819 -0.2115
  406loPI   C6A 6492   8.222   2.567   7.351 -0.1517  0.0348  0.2913
  406loPI   C1B 6493   8.438   1.988   9.576  0.0979  0.1665  0.1475
  406loPI   C2B 6494   8.571   2.097   9.104 -0.1090 -0.1510 -0.1644
  406loPI   C3B 6495   8.730   2.262   8.709  0.0825 -0.0363  0.0573
  406loPI   C4B 6496   8.852   2.258   8.349 -0.0540 -0.0890  0.0280
  407loPI    C1 6497  10.014  12.321  11.026 -0.1050  0.0748  0.4190
  407loPI    C2 6498   9.968  11.954  11.178 -0.0904 -0.1798 -0.1670
  407loPI    C3 6499  10.310  12.152  11.237 -0.0919 -0.2629  0.1388
  407loPI   PO4 6500   9.923  12.247  10.774  0.0596  0.1831  0.0086
  407loPI   GL1 6501   9.802  12.353  10.335 -0.0775 -0.1500 -0.1597
  407loPI   GL2 6502   9.752  12.569  10.317  0.0074 -0.0612 -0.2363
  407loPI   C1A 6503   9.781  12.274   9.890  0.0331 -0.0881 -0.2127
  407loPI   C2A 6504   9.497  12.133   9.565 -0.0082  0.0900 -0.0933
  407loPI   C3A 6505   9.118  11.856   9.344 -0.0697 -0.1144  0.2242
  407loPI   C4A 6506   9.030  11.635   8.958  0.1299 -0.0620 -0.1133
  407loPI   C5A 6507   8.981  11.518   8.514  0.4790 -0.2182  0.0060
  407loPI   C6A 6508   9.171  11.397   8.081  0.2594  0.0326 -0.0567
  407loPI   C1B 6509   9.523  12.718   9.930 -0.0874 -0.3623 -0.1985
  407loPI   C2B 6510   9.428  12.684   9.548 -0.0540 -0.1651 -0.0233
  407loPI   C3B 6511   9.359  12.690   9.138  0.0772 -0.1729  0.0332
  407loPI   C4B 6512   9.558  12.566   8.701 -0.0494  0.0879 -0.0464
  408loPI    C1 6513  13.498  14.934  10.753  0.0175  0.2274 -0.1163
  408loPI    C2 6514  13.445  14.853  11.141 -0.0932  0.0243 -0.1725
  408loPI    C3 6515  13.811  14.935  11.003 -0.0154 -0.1395 -0.0679
  408loPI   PO4 6516  13.425  14.789  10.648 -0.0605  0.0237 -0.3645
  408loPI   GL1 6517  13.491  14.751  10.274  0.1858  0.0374  0.2133
  408loPI   GL2 6518  13.475  14.510  10.129 -0.2862  0.0165 -0.0616
  408loPI   C1A 6519  13.581  15.002   9.914 -0.1857  0.1241  0.1873
  408loPI   C2A 6520  13.590  15.034   9.527 -0.0112  0.0482  0.1582
  408loPI   C3A 6521  13.688  14.961   9.055 -0.1809  0.0313  0.0604
  408loPI   C4A 6522  13.833  14.892   8.676  0.4466  0.0146  0.1253
  408loPI   C5A 6523  13.726  14.624   8.337 -0.1630 -0.0605  0.0137
  408loPI   C6A 6524  13.750  14.712   7.924  0.0124 -0.0806 -0.1020
  408loPI   C1B 6525  13.400  14.473   9.731  0.2549 -0.0577  0.0678
  408loPI   C2B 6526  13.448  14.494   9.354  0.1028  0.2779 -0.0319
  408loPI   C3B 6527  13.403  14.474   8.904 -0.0947  0.0531 -0.0607
  408loPI   C4B 6528  13.213  14.764   8.570  0.1117  0.1457  0.1483
  409loPI    C1 6529   9.890  10.167  11.151 -0.1677 -0.1553  0.0989
  409loPI    C2 6530   9.875  10.564  11.192  0.0169 -0.1478  0.1034
  409loPI    C3 6531   9.808  10.327  11.508  0.0795 -0.1168  0.1401
  409loPI   PO4 6532   9.874  10.118  10.815  0.3718 -0.4533  0.1943
  409loPI   GL1 6533   9.812  10.163  10.371  0.3247 -0.2468  0.2210
  409loPI   GL2 6534   9.965   9.981  10.252  0.2037  0.1325 -0.0078
  409loPI   C1A 6535   9.712  10.105   9.838  0.1626 -0.1230 -0.1463
  409loPI   C2A 6536   9.710  10.115   9.403  0.3133  0.1624  0.1415
  409loPI   C3A 6537   9.850   9.984   9.077  0.0447  0.3086  0.0636
  409loPI   C4A 6538  10.092   9.781   8.754  0.0115  0.1898  0.2119
  409loPI   C5A 6539  10.204   9.575   8.393  0.1828  0.1137  0.0024
  409loPI   C6A 6540  10.535   9.247   8.300  0.2020  0.0847 -0.1118
  409loPI   C1B 6541  10.166   9.936   9.775 -0.0399  0.0130 -0.1522
  409loPI   C2B 6542  10.305   9.888   9.393 -0.1867  0.2788  0.2347
  409loPI   C3B 6543  10.532   9.769   9.082 -0.0424 -0.1065  0.0558
  409loPI   C4B 6544  10.790   9.814   8.811  0.2466  0.1650  0.2532
  410loPI    C1 6545   5.966   3.572  10.441  0.2310  0.0203  0.0543
  410loPI    C2 6546   5.844   3.195  10.491  0.1716  0.0196 -0.0920
  410loPI    C3 6547   5.615   3.498  10.617  0.2813  0.0041  0.1481
  410loPI   PO4 6548   5.997   3.672  10.130  0.4154  0.2238 -0.0477
  410loPI   GL1 6549   5.744   3.762   9.822 -0.2942  0.0423 -0.1504
  410loPI   GL2 6550   5.485   3.818   9.765  0.0604  0.1515 -0.3049
  410loPI   C1A 6551   5.910   3.994   9.526 -0.1602 -0.1530 -0.3558
  410loPI   C2A 6552   6.003   3.925   9.086 -0.3361 -0.0251 -0.0812
  410loPI   C3A 6553   6.072   3.798   8.717 -0.0839 -0.1098  0.2684
  410loPI   C4A 6554   6.201   3.627   8.428 -0.0649 -0.2196  0.0620
  410loPI   C5A 6555   6.374   3.213   8.100 -0.0429 -0.0279 -0.2475
  410loPI   C6A 6556   6.722   3.007   8.115  0.1528 -0.0008  0.1638
  410loPI   C1B 6557   5.394   4.127   9.457  0.0533  0.3207  0.1927
  410loPI   C2B 6558   5.636   4.360   9.179 -0.3725 -0.1148  0.1154
  410loPI   C3B 6559   5.874   4.314   8.758  0.0739  0.0408  0.3146
  410loPI   C4B 6560   6.069   4.304   8.388  0.1949  0.2093 -0.0894
  411loPI    C1 6561  13.456   6.236  10.893  0.1288 -0.0548 -0.2677
  411loPI    C2 6562  13.762   6.048  11.070  0.0111 -0.0793 -0.0880
  411loPI    C3 6563  13.668   6.422  11.177 -0.1202 -0.1282 -0.0296
  411loPI   PO4 6564  13.460   6.252  10.667 -0.3197  0.1104  0.1642
  411loPI   GL1 6565  13.479   6.408  10.258 -0.3397  0.0308  0.2140
  411loPI   GL2 6566  13.354   6.281  10.012 -0.0184  0.3976  0.1650
  411loPI   C1A 6567  13.683   6.603   9.892  0.2288 -0.1800  0.2938
  411loPI   C2A 6568  13.675   6.644   9.561  0.1838 -0.0977  0.1684
  411loPI   C3A 6569  13.656   6.620   9.120 -0.2795  0.2012 -0.0865
  411loPI   C4A 6570  13.531   6.660   8.741 -0.1953  0.0917  0.1643
  411loPI   C5A 6571  13.632   6.691   8.326  0.1485 -0.0744  0.1104
  411loPI   C6A 6572  13.402   6.713   7.944  0.1000 -0.1268  0.1017
  411loPI   C1B 6573  13.283   6.362   9.518  0.1267 -0.0081 -0.1448
  411loPI   C2B 6574  13.274   6.307   9.145  0.1170 -0.0728  0.2266
  411loPI   C3B 6575  13.148   6.390   8.737  0.1667  0.1032  0.2416
  411loPI   C4B 6576  13.212   6.403   8.379 -0.0518  0.0914 -0.0788
  412loPI    C1 6577  10.596   8.157  10.444  0.2520  0.0353 -0.0223
  412loPI    C2 6578  10.332   8.426  10.311  0.2226  0.0247  0.0144
  412loPI    C3 6579  10.422   8.409  10.701  0.0859 -0.1398  0.0397
  412loPI   PO4 6580  10.567   7.932  10.306  0.1811 -0.0587 -0.2519
  412loPI   GL1 6581  10.317   7.799   9.909 -0.0694 -0.0514  0.1251
  412loPI   GL2 6582  10.254   8.101   9.921 -0.3386 -0.1006  0.1457
  412loPI   C1A 6583  10.519   7.639   9.661  0.0201  0.4195  0.1708
  412loPI   C2A 6584  10.419   7.544   9.268  0.4113  0.1649  0.1420
  412loPI   C3A 6585  10.325   7.570   8.795 -0.1274 -0.2065  0.0940
  412loPI   C4A 6586  10.328   7.403   8.428  0.0165 -0.0714 -0.1875
  412loPI   C5A 6587  10.470   7.135   8.156 -0.0604 -0.2903  0.2186
  412loPI   C6A 6588  10.422   6.845   7.840 -0.2910 -0.0277 -0.0142
  412loPI   C1B 6589  10.182   7.957   9.471 -0.2331  0.0759  0.1424
  412loPI   C2B 6590  10.220   8.057   8.922 -0.1036  0.1252 -0.1680
  412loPI   C3B 6591  10.180   7.996   8.446 -0.1531 -0.2843 -0.1142
  412loPI   C4B 6592  10.314   8.197   8.048  0.1599 -0.1444  0.3037
  413loPI    C1 6593   7.769  17.779  10.190 -0.0059  0.0880  0.0656
  413loPI    C2 6594   7.644  17.780  10.570 -0.0586  0.0171  0.0486
  413loPI    C3 6595   7.515  17.498  10.317  0.1894 -0.0985  0.0488
  413loPI   PO4 6596   7.796  18.106  10.171  0.0255  0.0344 -0.1657
  413loPI   GL1 6597   7.789  18.228   9.855  0.1619 -0.0339 -0.1865
  413loPI   GL2 6598   7.414  18.334   9.782 -0.0265  0.3319  0.0843
  413loPI   C1A 6599   8.011  18.154   9.491 -0.1229  0.2177  0.0910
  413loPI   C2A 6600   7.964  18.164   9.031  0.0224 -0.0524 -0.3286
  413loPI   C3A 6601   7.875  17.992   8.616 -0.1360 -0.1517 -0.1725
  413loPI   C4A 6602   7.819  18.058   8.213  0.1660  0.3237  0.0306
  413loPI   C5A 6603   7.751  17.862   7.821 -0.0636  0.1339 -0.1625
  413loPI   C6A 6604   7.691  17.434   7.719  0.0984 -0.2006  0.1039
  413loPI   C1B 6605   7.468  18.222   9.405 -0.0938 -0.0396  0.1325
  413loPI   C2B 6606   7.490  17.905   9.113  0.2951  0.2388 -0.0586
  413loPI   C3B 6607   7.408  17.741   8.715  0.0326  0.1701  0.0989
  413loPI   C4B 6608   7.414  17.619   8.314  0.0644 -0.2820 -0.0644
  414loPI    C1 6609  11.460   9.519  11.144  0.0065  0.2017 -0.1225
  414loPI    C2 6610  11.775   9.695  11.316 -0.0216  0.2500 -0.1202
  414loPI    C3 6611  11.479   9.549  11.542  0.0083  0.1870 -0.1215
  414loPI   PO4 6612  11.485   9.631  10.870 -0.0339 -0.2435  0.0705
  414loPI   GL1 6613  11.804   9.672  10.615 -0.2664  0.1693  0.3863
  414loPI   GL2 6614  11.991   9.898  10.325  0.3474 -0.0413 -0.2918
  414loPI   C1A 6615  11.651   9.583  10.227  0.0909  0.1502 -0.0500
  414loPI   C2A 6616  11.630   9.805   9.765  0.0578  0.1230 -0.1696
  414loPI   C3A 6617  11.721   9.927   9.315 -0.1049 -0.0425 -0.2248
  414loPI   C4A 6618  11.694  10.005   8.899 -0.2458  0.0290  0.1009
  414loPI   C5A 6619  11.791   9.734   8.565 -0.3884 -0.2837 -0.1816
  414loPI   C6A 6620  11.947   9.561   8.241 -0.3543  0.0403  0.0120
  414loPI   C1B 6621  12.100  10.087   9.866  0.0642 -0.3577  0.0450
  414loPI   C2B 6622  12.176  10.037   9.492  0.1012  0.0978  0.1006
  414loPI   C3B 6623  12.132  10.142   9.102 -0.2217 -0.0261 -0.0533
  414loPI   C4B 6624  12.202   9.974   8.703 -0.0913 -0.2318 -0.1772
  415loPI    C1 6625   0.252   3.071  11.007  0.1287  0.0073 -0.0397
  415loPI    C2 6626   0.067   2.748  11.156  0.0013  0.0373 -0.1315
  415loPI    C3 6627   0.328   2.951  11.381  0.0125 -0.0757 -0.0422
  415loPI   PO4 6628   0.252   3.036  10.808  0.1826  0.0642  0.0181
  415loPI   GL1 6629   0.283   3.115  10.296 -0.0894 -0.1941 -0.0158
  415loPI   GL2 6630   0.448   3.347  10.104 -0.2556 -0.1535 -0.1400
  415loPI   C1A 6631   0.356   2.818   9.892 -0.1557 -0.1467 -0.0404
  415loPI   C2A 6632   0.386   2.795   9.432 -0.0142 -0.2364 -0.1311
  415loPI   C3A 6633   0.307   2.755   9.039 -0.3250  0.1435  0.3164
  415loPI   C4A 6634   0.282   2.759   8.584  0.3663  0.0307  0.0445
  415loPI   C5A 6635   0.352   2.646   8.207  0.1272 -0.1013  0.0282
  415loPI   C6A 6636   0.703   2.749   7.917  0.0953 -0.0818  0.2021
  415loPI   C1B 6637   0.444   3.236   9.654  0.3552 -0.3079  0.1071
  415loPI   C2B 6638   0.472   3.252   9.218 -0.0554 -0.2575  0.3233
  415loPI   C3B 6639   0.493   3.352   8.868 -0.0275  0.0256  0.0191
  415loPI   C4B 6640   0.462   3.218   8.509 -0.0353  0.1700  0.0928
  416loPI    C1 6641   7.513  10.653  10.628 -0.1445  0.0125  0.1415
  416loPI    C2 6642   7.534  10.913  10.931 -0.1378  0.0487  0.1100
  416loPI    C3 6643   7.399  10.542  10.995 -0.1571  0.0631  0.1529
  416loPI   PO4 6644   7.697  10.671  10.529 -0.3868  0.2264 -0.3164
  416loPI   GL1 6645   7.852  10.368  10.281  0.2883  0.0372 -0.1118
  416loPI   GL2 6646   8.049  10.174  10.250 -0.1292  0.1284 -0.0977
  416loPI   C1A 6647   7.776  10.536   9.923  0.0213 -0.0123  0.1185
  416loPI   C2A 6648   7.884  10.435   9.586 -0.0152  0.3053  0.2088
  416loPI   C3A 6649   7.980  10.363   9.185 -0.1414 -0.0933  0.2515
  416loPI   C4A 6650   7.718  10.415   8.867 -0.1756 -0.1903 -0.0249
  416loPI   C5A 6651   7.591  10.269   8.452 -0.1588 -0.0047 -0.0398
  416loPI   C6A 6652   7.562   9.839   8.158  0.2828  0.1231  0.0289
  416loPI   C1B 6653   8.213  10.184   9.965  0.0294 -0.2239  0.2183
  416loPI   C2B 6654   8.279  10.112   9.518 -0.0324  0.0564  0.0165
  416loPI   C3B 6655   8.403  10.081   9.132  0.1766  0.0440  0.0360
  416loPI   C4B 6656   8.682  10.067   8.824 -0.1015  0.0822  0.0699
  417loPI    C1 6657   7.634  14.193  10.364  0.1046 -0.0855 -0.0719
  417loPI    C2 6658   7.766  14.482  10.608  0.0707 -0.0212 -0.1292
  417loPI    C3 6659   7.447  14.263  10.711  0.1467 -0.0943 -0.0474
  417loPI   PO4 6660   7.801  14.150  10.231  0.2244 -0.0540  0.1051
  417loPI   GL1 6661   7.831  13.705  10.032  0.3326 -0.2104 -0.0256
  417loPI   GL2 6662   7.423  13.762   9.974  0.0918 -0.0832  0.3733
  417loPI   C1A 6663   7.782  13.519   9.633  0.0694  0.3906 -0.1019
  417loPI   C2A 6664   7.609  13.656   9.169  0.0274 -0.0814 -0.1011
  417loPI   C3A 6665   7.584  13.598   8.787  0.1607  0.1247 -0.0213
  417loPI   C4A 6666   7.596  13.643   8.398 -0.0916  0.1281 -0.0284
  417loPI   C5A 6667   7.515  13.762   8.104  0.1038  0.0933 -0.0544
  417loPI   C6A 6668   7.595  13.663   7.651 -0.2753 -0.1523 -0.0156
  417loPI   C1B 6669   7.375  14.114   9.673 -0.2740 -0.1757 -0.0339
  417loPI   C2B 6670   7.517  14.116   9.282  0.0087 -0.1853 -0.1031
  417loPI   C3B 6671   7.330  14.003   8.946  0.1602  0.0677  0.1831
  417loPI   C4B 6672   7.181  13.878   8.554  0.2406  0.3530  0.2142
  418loPI    C1 6673  16.353   5.268  10.167  0.1162  0.1620 -0.0870
  418loPI    C2 6674  15.990   5.373  10.037  0.0805  0.0802 -0.0541
  418loPI    C3 6675  16.063   5.351  10.430  0.1213  0.0977 -0.0607
  418loPI   PO4 6676  16.611   5.401  10.085  0.0752  0.0381  0.0571
  418loPI   GL1 6677  16.848   5.590   9.794  0.2145  0.2567 -0.0111
  418loPI   GL2 6678  17.235   5.674   9.824 -0.3256  0.0067 -0.0855
  418loPI   C1A 6679  16.750   5.514   9.397 -0.2638  0.2700 -0.2324
  418loPI   C2A 6680  16.594   5.529   9.015  0.0851  0.0587 -0.0220
  418loPI   C3A 6681  16.536   5.555   8.600 -0.0964 -0.1104 -0.1931
  418loPI   C4A 6682  16.381   5.552   8.205  0.1341 -0.1399 -0.1247
  418loPI   C5A 6683  16.337   5.674   7.761 -0.1480  0.3181 -0.0958
  418loPI   C6A 6684  16.119   5.692   7.342  0.0754  0.2954  0.1050
  418loPI   C1B 6685  17.146   5.910   9.529  0.3493 -0.1333  0.2444
  418loPI   C2B 6686  17.100   5.904   9.196  0.0159 -0.1294 -0.2544
  418loPI   C3B 6687  16.956   5.838   8.828  0.2146 -0.1801 -0.1028
  418loPI   C4B 6688  16.968   5.894   8.331 -0.0106 -0.1045 -0.1518
  419loPI    C1 6689  16.611  16.444  10.821  0.0627  0.0788 -0.1524
  419loPI    C2 6690  16.288  16.567  11.024 -0.0179 -0.0601 -0.1950
  419loPI    C3 6691  16.651  16.702  11.124 -0.1090  0.2461 -0.2695
  419loPI   PO4 6692  16.456  16.343  10.550 -0.0840 -0.0811 -0.0658
  419loPI   GL1 6693  16.464  16.423  10.096 -0.5755  0.0586 -0.2954
  419loPI   GL2 6694  16.133  16.211  10.090 -0.0846 -0.0800 -0.0013
  419loPI   C1A 6695  16.699  16.446   9.707  0.0598  0.3493  0.0427
  419loPI   C2A 6696  16.732  16.453   9.291  0.1965  0.2404  0.1697
  419loPI   C3A 6697  16.740  16.436   8.863 -0.1015  0.0714  0.3057
  419loPI   C4A 6698  16.934  16.444   8.436  0.3129 -0.0223 -0.1368
  419loPI   C5A 6699  17.361  16.609   8.364  0.2638  0.1231  0.1414
  419loPI   C6A 6700  17.518  16.727   7.973 -0.0817 -0.0095 -0.1339
  419loPI   C1B 6701  16.202  16.284   9.720 -0.1398 -0.2292 -0.0344
  419loPI   C2B 6702  16.198  16.264   9.200 -0.4590  0.2007  0.1302
  419loPI   C3B 6703  16.267  16.214   8.759  0.0798 -0.0538 -0.2316
  419loPI   C4B 6704  16.340  16.219   8.341  0.0027 -0.1562 -0.1301
  420loPI    C1 6705  17.490  10.979  10.584  0.0381  0.1413  0.0071
  420loPI    C2 6706  17.168  11.207  10.520 -0.0809 -0.0071  0.0695
  420loPI    C3 6707  17.253  11.082  10.890  0.1408  0.1657  0.0793
  420loPI   PO4 6708  17.455  10.787  10.395 -0.0528  0.0627 -0.0220
  420loPI   GL1 6709  17.449  10.619  10.047  0.2096  0.2291  0.1826
  420loPI   GL2 6710  17.588  10.263  10.093  0.0792 -0.1202 -0.0844
  420loPI   C1A 6711  17.457  10.563   9.541  0.0543 -0.0988  0.2704
  420loPI   C2A 6712  17.552  10.810   9.374 -0.0622 -0.0619 -0.0688
  420loPI   C3A 6713  17.777  11.134   9.213  0.1161  0.1335  0.1139
  420loPI   C4A 6714  17.845  11.272   8.752 -0.3116 -0.0508  0.2317
  420loPI   C5A 6715  17.719  11.370   8.458 -0.0552  0.3222  0.0363
  420loPI   C6A 6716  17.736  11.579   8.070 -0.1123 -0.0862  0.1405
  420loPI   C1B 6717  17.544  10.097   9.715  0.1248  0.2739  0.2815
  420loPI   C2B 6718  17.564  10.112   9.259  0.0083  0.1276 -0.0201
  420loPI   C3B 6719  17.608  10.232   8.801  0.2109 -0.0646 -0.1502
  420loPI   C4B 6720  17.775  10.264   8.337  0.1013  0.0764  0.2064
  421loPI    C1 6721   2.545   7.444  10.948 -0.1096 -0.0593  0.1817
  421loPI    C2 6722   2.687   7.285  11.286  0.0798  0.0430  0.1519
  421loPI    C3 6723   2.661   7.682  11.248  0.0912  0.0329  0.0337
  421loPI   PO4 6724   2.683   7.378  10.735  0.1312 -0.0754 -0.1030
  421loPI   GL1 6725   2.646   7.309  10.344  0.1503  0.0756  0.0029
  421loPI   GL2 6726   2.895   7.171  10.299  0.0503  0.0147  0.0278
  421loPI   C1A 6727   2.730   7.532   9.911 -0.0608  0.3141  0.2492
  421loPI   C2A 6728   2.733   7.587   9.460  0.0288  0.0630 -0.1033
  421loPI   C3A 6729   2.720   7.602   9.058 -0.1478  0.0123  0.0788
  421loPI   C4A 6730   2.757   7.526   8.618  0.2808  0.0585  0.0536
  421loPI   C5A 6731   2.579   7.359   8.385 -0.0000  0.1365 -0.0118
  421loPI   C6A 6732   2.289   7.013   8.351 -0.0663 -0.2151  0.1361
  421loPI   C1B 6733   2.837   7.057   9.846 -0.0182 -0.0309  0.4329
  421loPI   C2B 6734   2.853   7.074   9.434 -0.1241 -0.1526 -0.0691
  421loPI   C3B 6735   2.923   7.154   8.969 -0.3751 -0.3650 -0.1968
  421loPI   C4B 6736   3.080   7.169   8.501  0.0693  0.2371 -0.1309
  422loPI    C1 6737  15.946   3.186  10.031 -0.0366  0.1257  0.1677
  422loPI    C2 6738  16.137   3.349  10.343  0.2134  0.2518 -0.0476
  422loPI    C3 6739  16.226   3.466   9.971 -0.0037  0.0230 -0.1741
  422loPI   PO4 6740  15.941   2.908  10.124 -0.0781  0.0671  0.2611
  422loPI   GL1 6741  16.074   2.599   9.743 -0.0696 -0.0523 -0.1108
  422loPI   GL2 6742  16.226   2.884   9.713 -0.3100  0.3869 -0.0762
  422loPI   C1A 6743  16.151   2.535   9.273  0.1110  0.0615 -0.1248
  422loPI   C2A 6744  16.138   2.417   9.002  0.1653  0.1240 -0.0233
  422loPI   C3A 6745  16.078   2.381   8.582 -0.2883  0.1977 -0.2140
  422loPI   C4A 6746  16.022   2.581   8.147  0.2212  0.0259 -0.1985
  422loPI   C5A 6747  15.777   2.647   7.787 -0.1276 -0.1281 -0.2161
  422loPI   C6A 6748  15.376   2.597   7.624  0.0201 -0.1093  0.1154
  422loPI   C1B 6749  16.287   3.012   9.309  0.0452 -0.1795  0.0681
  422loPI   C2B 6750  16.063   2.991   8.997  0.2197 -0.1358 -0.1718
  422loPI   C3B 6751  15.906   3.171   8.509  0.0103 -0.1213 -0.1760
  422loPI   C4B 6752  15.876   3.587   8.355  0.2684  0.0831  0.0355
  423loPI    C1 6753  15.989   6.188  10.650  0.0924 -0.0631 -0.1191
  423loPI    C2 6754  16.102   5.809  10.705 -0.0173 -0.0732  0.0430
  423loPI    C3 6755  16.251   6.098  10.938 -0.3048 -0.0841  0.2464
  423loPI   PO4 6756  16.047   6.222  10.400  0.3970  0.0111  0.2134
  423loPI   GL1 6757  16.255   6.107  10.159 -0.2234 -0.2394  0.0393
  423loPI   GL2 6758  16.328   5.810  10.142 -0.1720  0.1948  0.0263
  423loPI   C1A 6759  16.191   6.193   9.752 -0.4751  0.0738 -0.2866
  423loPI   C2A 6760  16.111   6.200   9.366 -0.2124  0.1831  0.0708
  423loPI   C3A 6761  15.994   6.223   8.987 -0.2161  0.1758  0.2156
  423loPI   C4A 6762  15.965   6.268   8.593 -0.1673  0.0646 -0.2601
  423loPI   C5A 6763  15.892   6.380   8.134  0.1616  0.0415  0.2330
  423loPI   C6A 6764  15.914   6.022   7.792 -0.1946  0.2528  0.3226
  423loPI   C1B 6765  16.141   5.713   9.720 -0.1839 -0.0137  0.1507
  423loPI   C2B 6766  16.117   5.695   9.198  0.0120 -0.0042  0.0474
  423loPI   C3B 6767  16.081   5.778   8.719 -0.3989 -0.1350 -0.3885
  423loPI   C4B 6768  16.019   5.879   8.284  0.0190 -0.2142 -0.2164
  424loPI    C1 6769   3.550   7.259  11.119 -0.0346 -0.2267  0.1797
  424loPI    C2 6770   3.219   7.478  11.166  0.0207 -0.0883 -0.0601
  424loPI    C3 6771   3.213   7.087  11.250 -0.1743 -0.0661  0.0359
  424loPI   PO4 6772   3.538   7.301  10.801  0.2244 -0.0485 -0.0221
  424loPI   GL1 6773   3.612   7.536  10.406  0.0214  0.0659  0.1478
  424loPI   GL2 6774   3.439   7.880  10.421  0.2394  0.1161 -0.0317
  424loPI   C1A 6775   3.758   7.331  10.039 -0.1204  0.1158  0.0157
  424loPI   C2A 6776   3.629   7.257   9.680  0.0368 -0.1510 -0.0735
  424loPI   C3A 6777   3.735   7.343   9.271 -0.0313  0.0725  0.0078
  424loPI   C4A 6778   3.756   7.289   8.823  0.0642 -0.1901  0.0895
  424loPI   C5A 6779   3.632   7.151   8.479  0.1022  0.1011 -0.0602
  424loPI   C6A 6780   3.556   6.882   8.159 -0.0381  0.2365 -0.1849
  424loPI   C1B 6781   3.567   7.805   9.998  0.1165 -0.3772  0.0288
  424loPI   C2B 6782   3.627   7.788   9.563  0.0142  0.0844  0.2478
  424loPI   C3B 6783   3.684   7.816   9.108 -0.2461  0.0575 -0.0291
  424loPI   C4B 6784   3.646   7.826   8.718 -0.4045 -0.0983  0.1040
  425loPI    C1 6785   7.149   2.942  10.719 -0.0205  0.0032 -0.1982
  425loPI    C2 6786   7.056   3.308  10.586  0.0894  0.1680  0.1639
  425loPI    C3 6787   6.822   3.127  10.855 -0.0411 -0.0918 -0.1178
  425loPI   PO4 6788   7.105   2.743  10.501  0.1252 -0.2008  0.0906
  425loPI   GL1 6789   7.275   2.887  10.032  0.0906  0.0347 -0.1387
  425loPI   GL2 6790   7.173   3.130  10.059  0.0271  0.1106 -0.1627
  425loPI   C1A 6791   7.128   2.608   9.786 -0.1300  0.0775  0.4721
  425loPI   C2A 6792   7.242   2.325   9.403 -0.2694 -0.1495 -0.2159
  425loPI   C3A 6793   7.217   2.335   9.046 -0.0745 -0.0394 -0.0082
  425loPI   C4A 6794   7.375   2.394   8.639  0.0059  0.0979  0.1387
  425loPI   C5A 6795   7.386   2.399   8.251  0.1165  0.0750 -0.1123
  425loPI   C6A 6796   7.384   2.577   7.860 -0.1760 -0.0259  0.3817
  425loPI   C1B 6797   7.015   3.089   9.651 -0.2109  0.1862 -0.0225
  425loPI   C2B 6798   7.264   2.942   9.231 -0.0040  0.1205  0.1629
  425loPI   C3B 6799   7.347   2.915   8.814 -0.1700  0.0677  0.0162
  425loPI   C4B 6800   7.254   2.895   8.428 -0.1575 -0.0588 -0.2084
  426loPI    C1 6801   3.655  11.319  10.474  0.1052  0.0217 -0.0074
  426loPI    C2 6802   3.791  11.498  10.805  0.1356  0.0870 -0.0548
  426loPI    C3 6803   3.500  11.225  10.831  0.1565  0.0723  0.0286
  426loPI   PO4 6804   3.851  11.261  10.393  0.0142 -0.1033 -0.4618
  426loPI   GL1 6805   4.137  11.444  10.135 -0.0724 -0.1714 -0.0504
  426loPI   GL2 6806   3.843  11.378   9.939 -0.2850  0.0808 -0.1069
  426loPI   C1A 6807   4.318  11.708   9.901 -0.0013  0.1084  0.1941
  426loPI   C2A 6808   4.240  11.916   9.546 -0.0683 -0.0560 -0.1861
  426loPI   C3A 6809   4.301  11.958   9.134  0.1794 -0.0457  0.1351
  426loPI   C4A 6810   4.516  12.050   8.808  0.0392 -0.0517  0.1944
  426loPI   C5A 6811   4.850  12.218   8.555  0.2665  0.0059  0.0033
  426loPI   C6A 6812   4.984  12.139   8.183 -0.0500  0.0915  0.1963
  426loPI   C1B 6813   4.068  11.280   9.537 -0.2110  0.0224  0.2279
  426loPI   C2B 6814   4.052  11.318   9.122  0.3141 -0.1315  0.0659
  426loPI   C3B 6815   4.134  11.148   8.658  0.1361 -0.2579  0.2257
  426loPI   C4B 6816   4.238  11.450   8.341 -0.1293 -0.0961 -0.2051
  427loPI    C1 6817  14.043  11.317  10.620 -0.0511 -0.0546  0.1785
  427loPI    C2 6818  13.703  11.480  10.755 -0.0034  0.1066  0.1055
  427loPI    C3 6819  13.826  11.553  10.381  0.0147 -0.1042  0.0691
  427loPI   PO4 6820  13.973  11.049  10.567 -0.0484  0.2382 -0.5329
  427loPI   GL1 6821  13.871  11.061  10.216  0.0122  0.1140 -0.2503
  427loPI   GL2 6822  14.168  10.807  10.220 -0.1191  0.1790  0.0872
  427loPI   C1A 6823  13.722  10.918   9.862 -0.0218 -0.1364 -0.4454
  427loPI   C2A 6824  13.777  10.840   9.474  0.1938 -0.1999  0.2034
  427loPI   C3A 6825  13.781  10.997   9.109  0.3999 -0.0394  0.3394
  427loPI   C4A 6826  13.769  10.907   8.692 -0.1919 -0.2134 -0.2520
  427loPI   C5A 6827  13.947  10.925   8.292  0.0979 -0.1894  0.2391
  427loPI   C6A 6828  14.150  10.516   8.235  0.1713 -0.0346  0.3403
  427loPI   C1B 6829  14.219  10.714   9.752  0.0494  0.2343 -0.1488
  427loPI   C2B 6830  14.327  10.685   9.305  0.0162  0.1755 -0.1535
  427loPI   C3B 6831  14.227  10.751   8.902 -0.0471 -0.0506 -0.3006
  427loPI   C4B 6832  14.332  10.861   8.563 -0.1537  0.1972 -0.2700
  428loPI    C1 6833  15.941  17.486  10.587  0.1355  0.1415  0.0808
  428loPI    C2 6834  15.973  17.703  10.922  0.0100  0.2451  0.0265
  428loPI    C3 6835  15.743  17.832  10.620 -0.0092  0.0709 -0.0344
  428loPI   PO4 6836  16.223  17.340  10.538 -0.1976  0.0598 -0.1045
  428loPI   GL1 6837  16.461  17.175  10.226 -0.0951 -0.1343  0.1974
  428loPI   GL2 6838  16.246  16.854  10.183 -0.0953 -0.4886 -0.2384
  428loPI   C1A 6839  16.338  17.295   9.805  0.0228 -0.2164 -0.1167
  428loPI   C2A 6840  16.470  17.332   9.402  0.4353  0.1906 -0.0224
  428loPI   C3A 6841  16.425  17.303   8.939 -0.0291  0.1069 -0.1066
  428loPI   C4A 6842  16.370  17.303   8.522  0.2954  0.1944 -0.0213
  428loPI   C5A 6843  16.346  17.309   8.069 -0.0415 -0.3905  0.1221
  428loPI   C6A 6844  16.143  16.951   7.852  0.2905 -0.4803  0.0586
  428loPI   C1B 6845  16.249  16.793   9.755 -0.0745 -0.0810 -0.2582
  428loPI   C2B 6846  16.222  16.883   9.344 -0.0998 -0.1312 -0.0283
  428loPI   C3B 6847  16.355  16.821   8.925  0.0163  0.1321 -0.2555
  428loPI   C4B 6848  16.375  16.656   8.530 -0.0149 -0.0783  0.2507
  429loPI    C1 6849   1.522   5.889  10.423 -0.0096 -0.0505 -0.0990
  429loPI    C2 6850   1.696   5.800  10.074  0.0423 -0.0091 -0.0839
  429loPI    C3 6851   1.605   5.508  10.332  0.0991 -0.0301 -0.0872
  429loPI   PO4 6852   1.657   6.156  10.460  0.1062 -0.2380 -0.0799
  429loPI   GL1 6853   1.885   6.350  10.135 -0.0322 -0.0025 -0.1965
  429loPI   GL2 6854   2.069   6.081  10.018  0.0022 -0.2159  0.3244
  429loPI   C1A 6855   1.662   6.391   9.871  0.3334  0.1577  0.1393
  429loPI   C2A 6856   1.573   6.410   9.345 -0.1015  0.0940  0.1208
  429loPI   C3A 6857   1.600   6.408   8.920  0.0528  0.0437  0.1081
  429loPI   C4A 6858   1.547   6.364   8.467  0.2635 -0.1299  0.0112
  429loPI   C5A 6859   1.582   6.487   8.029  0.3013 -0.0500 -0.0469
  429loPI   C6A 6860   1.904   6.605   7.825 -0.1631 -0.2852 -0.0171
  429loPI   C1B 6861   2.035   6.293   9.550 -0.1848  0.1600 -0.0871
  429loPI   C2B 6862   2.103   6.384   9.114 -0.0624  0.6727 -0.2288
  429loPI   C3B 6863   2.285   6.414   8.728 -0.3104 -0.0847  0.2258
  429loPI   C4B 6864   2.537   6.251   8.410 -0.1277 -0.1344 -0.2550
  430loPI    C1 6865   6.821   1.507  10.712  0.1724  0.2798 -0.2017
  430loPI    C2 6866   6.684   1.819  10.503 -0.1961  0.2266 -0.0481
  430loPI    C3 6867   6.427   1.568  10.678  0.1014  0.0010  0.0735
  430loPI   PO4 6868   7.027   1.436  10.582  0.0691 -0.0060 -0.0358
  430loPI   GL1 6869   7.099   1.503  10.163  0.0638  0.0933  0.1282
  430loPI   GL2 6870   7.202   1.181  10.044 -0.0877 -0.0163 -0.0185
  430loPI   C1A 6871   7.164   1.689   9.783 -0.0482 -0.1928  0.0602
  430loPI   C2A 6872   7.178   1.775   9.320  0.1512 -0.0895 -0.1502
  430loPI   C3A 6873   7.203   1.824   8.868 -0.0339  0.0784 -0.0560
  430loPI   C4A 6874   7.411   1.781   8.525  0.1082 -0.1976 -0.0531
  430loPI   C5A 6875   7.617   1.992   8.123 -0.2022 -0.0599 -0.0045
  430loPI   C6A 6876   7.959   2.214   7.994  0.0049  0.1132 -0.0895
  430loPI   C1B 6877   7.294   1.245   9.627  0.0687  0.0610  0.0991
  430loPI   C2B 6878   7.396   1.112   9.215 -0.0640  0.1085 -0.0806
  430loPI   C3B 6879   7.421   0.795   8.867  0.1860  0.2569 -0.0081
  430loPI   C4B 6880   7.366   0.646   8.469  0.0895 -0.0153 -0.2376
  431loPI    C1 6881   7.441  16.866  10.605  0.2301  0.1459 -0.0339
  431loPI    C2 6882   7.328  16.484  10.641 -0.3543  0.3333  0.2452
  431loPI    C3 6883   7.602  16.636  10.890  0.0024  0.0612  0.0287
  431loPI   PO4 6884   7.410  16.942  10.272 -0.0473  0.0923 -0.0418
  431loPI   GL1 6885   7.163  17.000  10.048 -0.4124 -0.3416  0.1347
  431loPI   GL2 6886   7.174  17.320   9.988  0.0014 -0.3541  0.1458
  431loPI   C1A 6887   7.155  16.992   9.606 -0.1776  0.0161 -0.0325
  431loPI   C2A 6888   7.159  16.961   9.077 -0.0168  0.0486  0.0944
  431loPI   C3A 6889   7.017  16.919   8.660 -0.1560  0.4545 -0.2393
  431loPI   C4A 6890   6.834  16.811   8.287 -0.3093 -0.1819 -0.0566
  431loPI   C5A 6891   7.118  16.565   8.002  0.0819  0.0133  0.3543
  431loPI   C6A 6892   7.586  16.418   7.902 -0.2422  0.0320 -0.0997
  431loPI   C1B 6893   7.074  17.485   9.613 -0.1312 -0.0536  0.0557
  431loPI   C2B 6894   7.057  17.456   9.186 -0.1664  0.0417  0.0109
  431loPI   C3B 6895   7.071  17.437   8.784 -0.2022 -0.1954  0.2096
  431loPI   C4B 6896   6.910  17.365   8.359  0.1894 -0.1585  0.1671
  432loPI    C1 6897   7.505   4.271  10.663  0.0586  0.0780  0.1987
  432loPI    C2 6898   7.475   3.881  10.748  0.0793  0.0358  0.0166
  432loPI    C3 6899   7.290   4.151  10.979 -0.0838 -0.0934  0.0387
  432loPI   PO4 6900   7.414   4.232  10.377 -0.3191  0.0148 -0.1802
  432loPI   GL1 6901   7.641   4.162  10.126  0.1268 -0.1429  0.1425
  432loPI   GL2 6902   7.855   4.465  10.141 -0.0451 -0.0719  0.0956
  432loPI   C1A 6903   7.691   4.207   9.594  0.3177 -0.0334  0.1054
  432loPI   C2A 6904   7.662   4.157   9.113 -0.2893 -0.0649 -0.1998
  432loPI   C3A 6905   7.533   4.215   8.698  0.1338  0.0596 -0.0530
  432loPI   C4A 6906   7.706   4.177   8.251 -0.1854  0.1185 -0.0279
  432loPI   C5A 6907   7.630   4.329   7.901 -0.2320 -0.1407  0.0615
  432loPI   C6A 6908   7.329   4.661   7.850  0.1040  0.1246  0.0509
  432loPI   C1B 6909   7.990   4.599   9.736 -0.0078 -0.0411 -0.2941
  432loPI   C2B 6910   8.003   4.474   9.309 -0.2157  0.0242  0.5639
  432loPI   C3B 6911   7.986   4.473   8.895  0.0849  0.0561  0.1981
  432loPI   C4B 6912   8.147   4.510   8.528  0.2481 -0.5143  0.1899
  433loPI    C1 6913  15.493   5.269  10.485 -0.1407 -0.2643 -0.0318
  433loPI    C2 6914  15.732   5.444  10.754  0.0563 -0.1366 -0.2852
  433loPI    C3 6915  15.481   5.154  10.868  0.1117 -0.0607  0.0404
  433loPI   PO4 6916  15.526   5.384  10.305 -0.1446 -0.0063  0.3161
  433loPI   GL1 6917  15.436   5.698   9.997  0.2659  0.1428  0.1704
  433loPI   GL2 6918  15.202   5.625   9.845  0.1995 -0.1085 -0.1612
  433loPI   C1A 6919  15.664   5.714   9.597  0.0360  0.2785  0.2056
  433loPI   C2A 6920  15.640   5.843   9.188  0.0313 -0.0253  0.0926
  433loPI   C3A 6921  15.558   5.886   8.747 -0.0569 -0.2883  0.0996
  433loPI   C4A 6922  15.547   6.031   8.249 -0.0069  0.0823 -0.0673
  433loPI   C5A 6923  15.372   6.224   7.923  0.1925  0.0593  0.0158
  433loPI   C6A 6924  15.104   6.534   7.723  0.0402  0.0113 -0.2864
  433loPI   C1B 6925  15.238   5.476   9.363 -0.2045  0.0722  0.0405
  433loPI   C2B 6926  15.289   5.506   8.930  0.0290  0.0143 -0.1079
  433loPI   C3B 6927  15.063   5.636   8.585 -0.0471  0.2844  0.2205
  433loPI   C4B 6928  15.041   5.804   8.221  0.1315 -0.0293  0.0213
  434loPI    C1 6929   2.187   3.430  10.813 -0.0937  0.0982 -0.1488
  434loPI    C2 6930   1.932   3.296  10.537 -0.1366 -0.1965  0.0295
  434loPI    C3 6931   1.820   3.314  10.920 -0.0340  0.0864  0.0479
  434loPI   PO4 6932   2.392   3.243  10.790  0.0324 -0.0775  0.0082
  434loPI   GL1 6933   2.681   3.161  10.517 -0.1001 -0.0980 -0.0845
  434loPI   GL2 6934   2.815   3.365  10.309  0.0373 -0.1132  0.2145
  434loPI   C1A 6935   2.565   2.837  10.197 -0.2598  0.0120 -0.3325
  434loPI   C2A 6936   2.678   2.771   9.792  0.0938  0.1117  0.1994
  434loPI   C3A 6937   2.704   2.715   9.343 -0.2186  0.2411 -0.2738
  434loPI   C4A 6938   2.727   2.596   8.913 -0.1020 -0.2498 -0.1503
  434loPI   C5A 6939   2.621   2.512   8.516  0.0207 -0.0531  0.2384
  434loPI   C6A 6940   2.750   2.509   8.094 -0.1318 -0.1767  0.1725
  434loPI   C1B 6941   2.650   3.368   9.882  0.0386  0.1800  0.1029
  434loPI   C2B 6942   2.700   3.216   9.466  0.0794 -0.4527 -0.1601
  434loPI   C3B 6943   2.735   3.124   8.981 -0.1394  0.0309  0.0450
  434loPI   C4B 6944   2.699   3.039   8.535 -0.0014  0.1151 -0.1422
  435loPI    C1 6945  15.185  14.420  10.795  0.1539  0.2148  0.2027
  435loPI    C2 6946  15.117  14.033  10.719 -0.0411  0.2608  0.1392
  435loPI    C3 6947  14.942  14.209  11.033 -0.0335  0.3225  0.1091
  435loPI   PO4 6948  15.181  14.516  10.577  0.1138  0.4159  0.1237
  435loPI   GL1 6949  15.357  14.477  10.159 -0.1807  0.2695 -0.2775
  435loPI   GL2 6950  15.172  14.179  10.133 -0.0134 -0.0152  0.3025
  435loPI   C1A 6951  15.408  14.617   9.716  0.1754 -0.0330 -0.0729
  435loPI   C2A 6952  15.380  14.743   9.291 -0.0130 -0.0176  0.4429
  435loPI   C3A 6953  15.358  14.522   8.801 -0.1409 -0.1292 -0.0634
  435loPI   C4A 6954  15.145  14.293   8.490  0.1404 -0.2008 -0.0512
  435loPI   C5A 6955  15.118  13.862   8.276 -0.0856 -0.1682 -0.1440
  435loPI   C6A 6956  14.944  13.593   7.959 -0.0576 -0.0594  0.1432
  435loPI   C1B 6957  15.448  13.973   9.895 -0.0203 -0.1137  0.0563
  435loPI   C2B 6958  15.631  13.717   9.580  0.2457  0.1411 -0.3084
  435loPI   C3B 6959  15.734  13.883   9.192  0.1890  0.0455 -0.2474
  435loPI   C4B 6960  15.477  13.992   8.770 -0.2287 -0.0111 -0.1054
  436loPI    C1 6961  10.385   5.782  11.166  0.0821 -0.0527 -0.1136
  436loPI    C2 6962  10.597   5.581  11.439 -0.0006 -0.1871 -0.1477
  436loPI    C3 6963  10.199   5.603  11.471  0.0465  0.4205  0.1522
  436loPI   PO4 6964  10.451   5.700  10.852 -0.0738 -0.0912  0.2365
  436loPI   GL1 6965  10.208   5.741  10.477 -0.0601  0.2856 -0.1225
  436loPI   GL2 6966  10.475   5.646  10.342  0.0991 -0.1136 -0.0386
  436loPI   C1A 6967  10.157   5.762   9.906 -0.0050  0.0467 -0.2305
  436loPI   C2A 6968  10.185   5.765   9.447  0.0990 -0.0239 -0.0936
  436loPI   C3A 6969  10.111   5.670   8.991 -0.2217  0.0509 -0.1316
  436loPI   C4A 6970  10.103   5.609   8.582  0.1884 -0.0115  0.2634
  436loPI   C5A 6971  10.277   5.570   8.181 -0.0513 -0.1290 -0.1040
  436loPI   C6A 6972  10.249   5.658   7.738 -0.0707 -0.1211  0.4952
  436loPI   C1B 6973  10.637   5.532   9.999  0.4590  0.0248  0.0342
  436loPI   C2B 6974  10.657   5.552   9.542  0.1213  0.3353 -0.1866
  436loPI   C3B 6975  10.556   5.500   9.061  0.1426 -0.1671  0.0447
  436loPI   C4B 6976  10.571   5.364   8.685  0.0230 -0.0737  0.0589
  437loPI    C1 6977  12.844  13.668  10.993 -0.0096 -0.0450  0.0783
  437loPI    C2 6978  13.116  13.479  11.217 -0.0518 -0.2409 -0.0340
  437loPI    C3 6979  12.729  13.458  11.313 -0.0284  0.0521  0.1357
  437loPI   PO4 6980  12.896  13.564  10.674 -0.0985  0.1196  0.3918
  437loPI   GL1 6981  12.931  13.795  10.245  0.0969  0.1121 -0.0478
  437loPI   GL2 6982  12.846  13.431  10.176 -0.2178  0.0671  0.1500
  437loPI   C1A 6983  13.150  13.616   9.814  0.3365 -0.0371 -0.1423
  437loPI   C2A 6984  13.216  13.595   9.391 -0.0956 -0.0154 -0.1439
  437loPI   C3A 6985  13.211  13.439   8.935 -0.0877  0.0066 -0.1631
  437loPI   C4A 6986  13.100  13.495   8.515  0.0763  0.3438 -0.1000
  437loPI   C5A 6987  12.856  13.777   8.278  0.0798 -0.0988  0.1984
  437loPI   C6A 6988  12.565  13.952   8.541 -0.1437 -0.1830  0.1994
  437loPI   C1B 6989  12.969  13.114   9.975 -0.2138 -0.1082  0.0088
  437loPI   C2B 6990  13.007  12.971   9.582 -0.2036  0.0039 -0.2003
  437loPI   C3B 6991  12.920  13.144   9.234 -0.1477 -0.1961 -0.1898
  437loPI   C4B 6992  12.884  13.007   8.694  0.0722  0.0989 -0.3179
  438loPI    C1 6993   8.529   1.193  10.455  0.3208  0.0825  0.2162
  438loPI    C2 6994   8.767   0.946  10.250 -0.0731 -0.0324 -0.1145
  438loPI    C3 6995   8.430   0.808  10.416  0.0222  0.1538  0.2448
  438loPI   PO4 6996   8.485   1.360  10.305 -0.2569  0.2068  0.2929
  438loPI   GL1 6997   8.638   1.370   9.918  0.2937  0.0561  0.0900
  438loPI   GL2 6998   8.360   1.593   9.880  0.1021 -0.0313 -0.0074
  438loPI   C1A 6999   8.882   1.361   9.518  0.1148 -0.2295  0.1620
  438loPI   C2A 7000   8.763   1.140   9.197 -0.3181 -0.1393  0.1513
  438loPI   C3A 7001   8.773   1.086   8.753 -0.0589 -0.1911  0.0369
  438loPI   C4A 7002   8.696   1.160   8.370 -0.0212 -0.2282 -0.0310
  438loPI   C5A 7003   8.748   1.139   7.917  0.1243 -0.4910  0.3797
  438loPI   C6A 7004   8.782   0.781   7.542 -0.0154  0.0749  0.3043
  438loPI   C1B 7005   8.362   1.498   9.461 -0.0677  0.3922  0.0306
  438loPI   C2B 7006   8.285   1.499   9.107 -0.2101 -0.0174 -0.0791
  438loPI   C3B 7007   8.291   1.364   8.660 -0.2147 -0.2337 -0.0437
  438loPI   C4B 7008   8.283   1.567   8.261 -0.1607 -0.0853 -0.0327
  439loPI    C1 7009   8.276  11.356  11.053  0.0220 -0.1145  0.2512
  439loPI    C2 7010   8.214  10.968  11.130 -0.2022 -0.1221  0.0485
  439loPI    C3 7011   7.905  11.222  11.121 -0.0661  0.0477  0.0999
  439loPI   PO4 7012   8.387  11.382  10.789  0.2783  0.2852  0.1877
  439loPI   GL1 7013   8.293  11.352  10.338 -0.0691  0.3526  0.3162
  439loPI   GL2 7014   8.362  11.038  10.294 -0.0072 -0.4662 -0.0518
  439loPI   C1A 7015   8.290  11.415   9.895  0.0542  0.0870  0.1658
  439loPI   C2A 7016   8.305  11.327   9.562 -0.1240  0.1650 -0.0267
  439loPI   C3A 7017   8.231  11.274   9.102 -0.1570 -0.1426 -0.0881
  439loPI   C4A 7018   8.095  11.432   8.777  0.0204 -0.1956  0.2081
  439loPI   C5A 7019   7.889  11.645   8.439 -0.1707 -0.3533 -0.1633
  439loPI   C6A 7020   7.896  12.029   8.313  0.0705  0.0200 -0.1841
  439loPI   C1B 7021   8.629  11.035   9.826 -0.0480  0.1524 -0.1160
  439loPI   C2B 7022   8.705  11.073   9.371 -0.2485 -0.0574 -0.2213
  439loPI   C3B 7023   8.763  11.060   8.967 -0.0388  0.0164  0.0842
  439loPI   C4B 7024   8.864  10.775   8.589 -0.2601 -0.0868 -0.0728
  440loPI    C1 7025   3.653   6.690  11.143  0.0458 -0.3158  0.2881
  440loPI    C2 7026   3.795   6.945  11.416  0.0807 -0.0300  0.0096
  440loPI    C3 7027   4.046   6.707  11.216  0.0941  0.0091 -0.0202
  440loPI   PO4 7028   3.528   6.822  10.933  0.1091  0.4508 -0.1614
  440loPI   GL1 7029   3.551   6.878  10.512  0.0719  0.4282  0.0013
  440loPI   GL2 7030   3.375   7.046  10.400  0.3394 -0.0148  0.2072
  440loPI   C1A 7031   3.893   6.861  10.161  0.0072  0.2879 -0.0430
  440loPI   C2A 7032   3.775   6.753   9.754 -0.0250 -0.1151  0.3067
  440loPI   C3A 7033   3.766   6.799   9.406 -0.2198  0.0156  0.1144
  440loPI   C4A 7034   3.927   6.787   8.988 -0.2103  0.0016 -0.1942
  440loPI   C5A 7035   4.079   6.953   8.566  0.2079 -0.1596 -0.2586
  440loPI   C6A 7036   4.156   7.223   8.249  0.1275 -0.0299  0.2978
  440loPI   C1B 7037   3.353   6.917   9.990 -0.4844  0.1267  0.1288
  440loPI   C2B 7038   3.261   6.866   9.626  0.1457 -0.2266 -0.0010
  440loPI   C3B 7039   3.343   6.939   9.221  0.0196 -0.0777  0.0244
  440loPI   C4B 7040   3.402   6.921   8.829  0.0191  0.0472  0.0609
  441loPI    C1 7041  15.532   1.028  10.814 -0.2517 -0.3828  0.0353
  441loPI    C2 7042  15.557   0.802  11.143  0.2456 -0.2271  0.1118
  441loPI    C3 7043  15.591   1.200  11.170 -0.0638 -0.1837 -0.0897
  441loPI   PO4 7044  15.732   0.873  10.677  0.1932  0.0890 -0.4739
  441loPI   GL1 7045  15.990   0.724  10.289 -0.1925  0.0052 -0.0254
  441loPI   GL2 7046  15.740   0.584  10.230  0.0464  0.2624  0.3167
  441loPI   C1A 7047  16.226   0.787   9.841  0.0311 -0.2074 -0.4434
  441loPI   C2A 7048  16.154   0.558   9.365 -0.0281  0.0176 -0.0606
  441loPI   C3A 7049  16.184   0.611   9.040 -0.1867 -0.4354 -0.0102
  441loPI   C4A 7050  16.313   0.502   8.603  0.0995 -0.0955  0.0304
  441loPI   C5A 7051  16.361   0.574   8.221 -0.1836  0.2847  0.0328
  441loPI   C6A 7052  16.236   0.574   7.765  0.0913 -0.3320 -0.1512
  441loPI   C1B 7053  15.714   0.599   9.840  0.1687  0.0424 -0.0968
  441loPI   C2B 7054  15.700   0.417   9.450  0.0986  0.0954  0.0316
  441loPI   C3B 7055  15.790   0.364   8.961  0.0861 -0.1109 -0.1238
  441loPI   C4B 7056  15.811   0.376   8.514 -0.1078 -0.0726  0.1567
  442loPI    C1 7057   1.935  11.635  10.661 -0.1027 -0.0082  0.1234
  442loPI    C2 7058   1.562  11.654  10.518 -0.0960 -0.1656  0.0827
  442loPI    C3 7059   1.657  11.380  10.794 -0.0453 -0.0313  0.2004
  442loPI   PO4 7060   2.013  11.939  10.572 -0.2988 -0.1125  0.0639
  442loPI   GL1 7061   2.010  12.331  10.441 -0.1121 -0.1600 -0.0137
  442loPI   GL2 7062   1.766  12.171  10.238 -0.3424  0.4029  0.0446
  442loPI   C1A 7063   2.161  12.447  10.018 -0.2932 -0.1131  0.0709
  442loPI   C2A 7064   1.993  12.543   9.613 -0.2000  0.0294  0.1316
  442loPI   C3A 7065   2.041  12.497   9.220 -0.1020 -0.0806  0.0876
  442loPI   C4A 7066   1.894  12.476   8.861  0.1598 -0.1691 -0.2850
  442loPI   C5A 7067   2.016  12.250   8.486  0.1927 -0.0245  0.1326
  442loPI   C6A 7068   2.325  11.920   8.375 -0.3783 -0.2327  0.0108
  442loPI   C1B 7069   1.862  12.046   9.780  0.1851 -0.1491  0.0211
  442loPI   C2B 7070   1.907  12.026   9.340  0.0487 -0.0006  0.1992
  442loPI   C3B 7071   1.948  11.960   8.916 -0.0118  0.1417 -0.1120
  442loPI   C4B 7072   2.077  11.584   8.611  0.4184 -0.1798 -0.0414
  443loPI    C1 7073   7.597   7.856  10.743 -0.2224 -0.0994  0.1134
  443loPI    C2 7074   7.284   8.081  10.849 -0.0310  0.1108  0.2445
  443loPI    C3 7075   7.539   7.951  11.128  0.0848  0.0714  0.1209
  443loPI   PO4 7076   7.626   7.918  10.466 -0.1115  0.1872 -0.0079
  443loPI   GL1 7077   7.675   7.826  10.100  0.1693 -0.0702  0.2404
  443loPI   GL2 7078   8.004   7.885  10.109  0.1830  0.3824  0.0601
  443loPI   C1A 7079   7.430   7.489   9.941  0.1751 -0.1538 -0.0186
  443loPI   C2A 7080   7.522   7.543   9.501  0.0038 -0.0141 -0.0102
  443loPI   C3A 7081   7.539   7.595   9.056  0.1485  0.0913  0.1590
  443loPI   C4A 7082   7.458   7.509   8.646 -0.1353 -0.0906  0.0841
  443loPI   C5A 7083   7.302   7.694   8.246 -0.0228  0.1299 -0.1482
  443loPI   C6A 7084   6.870   7.578   8.089  0.1109  0.1498  0.0449
  443loPI   C1B 7085   7.910   7.955   9.662 -0.0194  0.0925  0.0360
  443loPI   C2B 7086   7.900   7.933   9.084 -0.0228  0.2010  0.1202
  443loPI   C3B 7087   7.886   7.759   8.634 -0.1505  0.0635  0.3882
  443loPI   C4B 7088   7.818   7.674   8.217 -0.1161  0.0061  0.1414
  444loPI    C1 7089   2.486   8.337  10.697 -0.1875 -0.0228 -0.0295
  444loPI    C2 7090   2.139   8.268  10.884 -0.1144 -0.0691  0.0904
  444loPI    C3 7091   2.483   8.149  11.050 -0.0356  0.0346  0.0032
  444loPI   PO4 7092   2.367   8.231  10.417  0.0263 -0.4309  0.1730
  444loPI   GL1 7093   2.476   8.258  10.010 -0.0081 -0.1316 -0.0233
  444loPI   GL2 7094   2.165   8.365   9.984  0.1257  0.0053 -0.0294
  444loPI   C1A 7095   2.607   8.177   9.668 -0.0361 -0.1827 -0.2754
  444loPI   C2A 7096   2.631   8.165   9.242 -0.3035  0.4298  0.0262
  444loPI   C3A 7097   2.490   8.110   8.805  0.1572  0.2288 -0.2415
  444loPI   C4A 7098   2.408   8.424   8.497 -0.0817 -0.1174  0.1221
  444loPI   C5A 7099   2.073   8.520   8.219  0.0029 -0.1968  0.2094
  444loPI   C6A 7100   1.709   8.377   8.016 -0.3971 -0.2326 -0.0406
  444loPI   C1B 7101   2.119   8.360   9.547 -0.0870  0.0390 -0.0090
  444loPI   C2B 7102   2.090   8.315   9.116 -0.1421 -0.1030  0.0713
  444loPI   C3B 7103   2.006   8.202   8.636  0.0813 -0.0681 -0.0230
  444loPI   C4B 7104   1.549   8.137   8.406 -0.0221 -0.1988 -0.2029
  445loPI    C1 7105  15.298   0.181  10.698  0.0709  0.0543 -0.0654
  445loPI    C2 7106  15.325   0.575  10.764  0.1913 -0.0219  0.3725
  445loPI    C3 7107  15.265   0.325  11.070 -0.3122 -0.3131  0.0510
  445loPI   PO4 7108  15.489   0.168  10.533 -0.4717 -0.3349 -0.1591
  445loPI   GL1 7109  15.607   0.046  10.036 -0.2784 -0.1700 -0.1890
  445loPI   GL2 7110  15.571  -0.224  10.125  0.0609 -0.0895  0.1832
  445loPI   C1A 7111  15.594  -0.065   9.605  0.2771  0.2158  0.2135
  445loPI   C2A 7112  15.645  -0.112   9.053  0.2888 -0.1244 -0.1686
  445loPI   C3A 7113  15.709  -0.120   8.655 -0.1506 -0.3738  0.1210
  445loPI   C4A 7114  15.493  -0.179   8.097  0.1492  0.0664 -0.0483
  445loPI   C5A 7115  15.458   0.008   7.692 -0.2201  0.3949  0.1538
  445loPI   C6A 7116  15.502   0.025   7.232  0.0306  0.1653 -0.0086
  445loPI   C1B 7117  15.648  -0.495   9.820 -0.1908  0.2490  0.2309
  445loPI   C2B 7118  15.601  -0.506   9.365  0.1706  0.0153 -0.0701
  445loPI   C3B 7119  15.555  -0.574   8.922  0.0044 -0.1583 -0.2290
  445loPI   C4B 7120  15.597  -0.660   8.530  0.1267 -0.1866  0.3891
  446loPI    C1 7121   7.128  17.629  10.601  0.0797 -0.0226 -0.0719
  446loPI    C2 7122   7.104  17.244  10.496  0.1807 -0.0728  0.0837
  446loPI    C3 7123   7.380  17.362  10.760  0.3444  0.1562 -0.1838
  446loPI   PO4 7124   7.026  17.754  10.371 -0.0471  0.2790  0.3174
  446loPI   GL1 7125   7.001  17.883   9.990  0.1130 -0.1258  0.0715
  446loPI   GL2 7126   7.338  17.815   9.959 -0.2335 -0.1259  0.0042
  446loPI   C1A 7127   6.949  18.008   9.671 -0.2429 -0.1595 -0.1012
  446loPI   C2A 7128   7.018  18.046   9.347 -0.1552 -0.0217  0.0167
  446loPI   C3A 7129   7.041  18.128   8.905 -0.1752  0.1265  0.0029
  446loPI   C4A 7130   6.952  17.860   8.489  0.1249 -0.2125  0.0186
  446loPI   C5A 7131   6.808  17.701   8.028 -0.0600 -0.4095 -0.0150
  446loPI   C6A 7132   6.885  17.948   7.622  0.0683 -0.1369 -0.0255
  446loPI   C1B 7133   7.523  17.767   9.585  0.2164  0.2336 -0.0376
  446loPI   C2B 7134   7.596  17.361   9.374 -0.0148  0.0458  0.3540
  446loPI   C3B 7135   7.530  17.267   8.959 -0.1901  0.2423  0.0747
  446loPI   C4B 7136   7.468  17.193   8.543  0.2549  0.1439  0.1423
  447loPI    C1 7137   8.397  16.967  10.510  0.4998  0.1141  0.1637
  447loPI    C2 7138   8.700  16.725  10.609  0.1722 -0.2642  0.2732
  447loPI    C3 7139   8.462  16.874  10.893  0.0793 -0.2046  0.1652
  447loPI   PO4 7140   8.531  17.209  10.406 -0.0501  0.1998 -0.0119
  447loPI   GL1 7141   8.652  17.293  10.050  0.0876 -0.1591 -0.0852
  447loPI   GL2 7142   8.890  17.428   9.968  0.0156 -0.1770  0.1219
  447loPI   C1A 7143   8.480  17.498   9.722  0.0192  0.2284  0.1792
  447loPI   C2A 7144   8.426  17.426   9.236 -0.1838 -0.0595  0.1633
  447loPI   C3A 7145   8.364  17.327   8.884 -0.1125  0.2029  0.0389
  447loPI   C4A 7146   8.591  17.199   8.497 -0.1508 -0.2491 -0.1137
  447loPI   C5A 7147   8.675  17.169   8.045 -0.1397  0.2355 -0.2092
  447loPI   C6A 7148   8.764  17.599   7.770  0.0314  0.0195 -0.0753
  447loPI   C1B 7149   8.917  17.296   9.511  0.4070  0.0019 -0.0581
  447loPI   C2B 7150   8.849  17.153   9.046  0.1743 -0.1386  0.0406
  447loPI   C3B 7151   8.983  16.925   8.603 -0.0583  0.0247 -0.0422
  447loPI   C4B 7152   9.069  16.902   8.209 -0.0197  0.0640  0.1099
  448loPI    C1 7153   7.514   9.652  10.818 -0.1370 -0.1944 -0.1007
  448loPI    C2 7154   7.439   9.262  10.775 -0.0054 -0.2381  0.0525
  448loPI    C3 7155   7.494   9.415  11.140 -0.1471 -0.0582  0.0001
  448loPI   PO4 7156   7.299   9.694  10.605  0.2235  0.0609  0.0413
  448loPI   GL1 7157   7.074   9.778  10.344  0.0317 -0.1118 -0.0027
  448loPI   GL2 7158   7.000  10.033  10.225  0.2051 -0.0385  0.0423
  448loPI   C1A 7159   7.093   9.641   9.902  0.0894 -0.5667 -0.1503
  448loPI   C2A 7160   7.022   9.660   9.437  0.1123  0.0021 -0.1407
  448loPI   C3A 7161   6.932   9.935   9.102  0.1537  0.2348  0.3104
  448loPI   C4A 7162   6.722  10.194   8.864 -0.0178  0.0355 -0.2771
  448loPI   C5A 7163   6.631  10.226   8.434  0.1820  0.1233  0.3397
  448loPI   C6A 7164   6.256  10.324   8.310 -0.0472  0.2612  0.0324
  448loPI   C1B 7165   6.986  10.108   9.747  0.0436 -0.0514  0.1980
  448loPI   C2B 7166   6.948  10.339   9.415 -0.1162 -0.0500  0.1234
  448loPI   C3B 7167   6.814  10.602   9.134 -0.0237  0.1685  0.0763
  448loPI   C4B 7168   6.832  10.741   8.690 -0.2796  0.0693  0.4129
  449loPI    C1 7169   4.593  10.679  10.713 -0.0528 -0.3574  0.1832
  449loPI    C2 7170   4.447  10.400  10.959 -0.5074 -0.0140  0.3174
  449loPI    C3 7171   4.381  10.788  11.034 -0.0735  0.1262  0.0149
  449loPI   PO4 7172   4.633  10.578  10.464  0.1431 -0.0321 -0.0934
  449loPI   GL1 7173   4.587  10.715  10.122 -0.0591  0.0578  0.0769
  449loPI   GL2 7174   4.277  10.894   9.951  0.1958 -0.1806  0.0554
  449loPI   C1A 7175   4.823  10.756   9.804 -0.0269 -0.1111  0.0896
  449loPI   C2A 7176   4.860  10.744   9.293 -0.2815 -0.0306 -0.1311
  449loPI   C3A 7177   5.029  10.887   8.920 -0.1175  0.1371 -0.0887
  449loPI   C4A 7178   5.086  10.855   8.445 -0.1066  0.0604 -0.4351
  449loPI   C5A 7179   4.836  10.798   8.201 -0.1914 -0.1879  0.1199
  449loPI   C6A 7180   4.634  10.472   7.974 -0.0534  0.3658 -0.1448
  449loPI   C1B 7181   4.104  10.799   9.585 -0.2233  0.1878  0.1636
  449loPI   C2B 7182   4.101  10.839   9.082 -0.0995  0.2282  0.1285
  449loPI   C3B 7183   3.999  10.636   8.626  0.1130  0.2706  0.0185
  449loPI   C4B 7184   4.092  10.380   8.310 -0.1541 -0.0015 -0.0005
  450loPI    C1 7185   6.620   7.321  10.701  0.0391 -0.1213  0.0858
  450loPI    C2 7186   6.614   7.053  10.999  0.1410 -0.0500  0.1528
  450loPI    C3 7187   6.407   7.394  11.032  0.0739 -0.0854  0.1003
  450loPI   PO4 7188   6.564   7.134  10.448 -0.3112 -0.1782 -0.0152
  450loPI   GL1 7189   6.698   7.035  10.109 -0.0666 -0.2631  0.1587
  450loPI   GL2 7190   7.002   7.126  10.210 -0.0909 -0.0841 -0.0792
  450loPI   C1A 7191   6.569   7.239   9.716 -0.2267  0.0808  0.0277
  450loPI   C2A 7192   6.629   7.352   9.281 -0.2364 -0.1235 -0.1377
  450loPI   C3A 7193   6.598   7.424   8.974 -0.1522  0.1490  0.0829
  450loPI   C4A 7194   6.739   7.651   8.549 -0.0357  0.2984 -0.3336
  450loPI   C5A 7195   6.814   8.017   8.404 -0.0868 -0.1252  0.0734
  450loPI   C6A 7196   6.957   8.437   8.372 -0.0920  0.4517 -0.0315
  450loPI   C1B 7197   7.201   7.036   9.669 -0.0759 -0.0493  0.0997
  450loPI   C2B 7198   7.117   7.172   9.232  0.0510 -0.0847 -0.0086
  450loPI   C3B 7199   7.106   7.204   8.741  0.3188 -0.0329 -0.0914
  450loPI   C4B 7200   7.250   7.165   8.374  0.1507  0.0813  0.2909
  451loPI    C1 7201  10.564  10.413  11.095 -0.1345 -0.1800 -0.2550
  451loPI    C2 7202  10.746  10.085  11.233  0.0402 -0.1363 -0.3777
  451loPI    C3 7203  10.963  10.392  11.098 -0.1222  0.0290 -0.2683
  451loPI   PO4 7204  10.343  10.246  10.894  0.0439 -0.2822  0.1649
  451loPI   GL1 7205  10.382  10.221  10.461  0.1415  0.2200  0.3034
  451loPI   GL2 7206  10.436   9.967  10.240 -0.0416  0.0660 -0.0829
  451loPI   C1A 7207  10.126  10.455  10.124 -0.0178  0.0840  0.2804
  451loPI   C2A 7208  10.153  10.482   9.682 -0.3694  0.2709 -0.0019
  451loPI   C3A 7209  10.111  10.345   9.339 -0.0363  0.0754 -0.0054
  451loPI   C4A 7210  10.339  10.240   8.878  0.0260 -0.0438  0.1530
  451loPI   C5A 7211  10.353  10.159   8.516 -0.1928 -0.0333 -0.1360
  451loPI   C6A 7212  10.581   9.873   8.340 -0.0922  0.3301  0.0176
  451loPI   C1B 7213  10.659   9.750   9.924  0.3400  0.1728 -0.0115
  451loPI   C2B 7214  10.818   9.592   9.527 -0.2448  0.0867 -0.1752
  451loPI   C3B 7215  11.224   9.660   9.243 -0.1056 -0.0219 -0.3735
  451loPI   C4B 7216  11.417   9.542   8.835  0.2236  0.4865 -0.2012
  452loPI    C1 7217   7.073  15.220  10.643 -0.1317  0.0480 -0.2472
  452loPI    C2 7218   7.063  15.620  10.665 -0.0005  0.0292  0.2833
  452loPI    C3 7219   6.786  15.402  10.854  0.1036 -0.1376  0.2457
  452loPI   PO4 7220   7.160  15.176  10.381  0.0326  0.3191  0.0107
  452loPI   GL1 7221   7.122  15.259  10.014  0.2144  0.2170  0.0662
  452loPI   GL2 7222   6.950  15.623  10.135  0.0597  0.2357 -0.0243
  452loPI   C1A 7223   6.954  15.153   9.583  0.0586 -0.1649 -0.1176
  452loPI   C2A 7224   6.590  15.143   9.205 -0.0426 -0.1896  0.0908
  452loPI   C3A 7225   6.318  15.120   8.944 -0.3529  0.2331  0.0778
  452loPI   C4A 7226   6.057  15.423   8.700  0.2763  0.0833 -0.0424
  452loPI   C5A 7227   5.922  15.680   8.392 -0.0350 -0.1536 -0.4007
  452loPI   C6A 7228   6.154  16.141   8.148  0.0499  0.0057 -0.1912
  452loPI   C1B 7229   6.602  15.580   9.883  0.0735  0.2305 -0.3516
  452loPI   C2B 7230   6.632  15.612   9.478 -0.1607  0.0031 -0.0196
  452loPI   C3B 7231   6.571  15.621   9.053  0.0225 -0.0455 -0.0203
  452loPI   C4B 7232   6.516  15.470   8.658  0.2080 -0.0855 -0.2881
  453loPI    C1 7233  16.358   8.516  10.527  0.2254  0.0601  0.3555
  453loPI    C2 7234  15.994   8.682  10.512  0.0448 -0.3462  0.0350
  453loPI    C3 7235  16.141   8.553  10.861 -0.0617 -0.0643  0.1870
  453loPI   PO4 7236  16.502   8.526  10.257 -0.4653  0.2406  0.1349
  453loPI   GL1 7237  16.546   8.856   9.956 -0.0212 -0.3827  0.1026
  453loPI   GL2 7238  16.593   8.589   9.752  0.3961 -0.1696 -0.3364
  453loPI   C1A 7239  16.448   8.981   9.554  0.1489 -0.1428 -0.3123
  453loPI   C2A 7240  16.338   8.924   9.192 -0.1117  0.2050  0.0806
  453loPI   C3A 7241  16.409   9.027   8.830 -0.0166  0.1881  0.3501
  453loPI   C4A 7242  16.488   8.933   8.407 -0.3261 -0.0477 -0.3293
  453loPI   C5A 7243  16.531   8.781   8.027 -0.0450  0.1690  0.1069
  453loPI   C6A 7244  16.510   8.578   7.630 -0.0438  0.0235  0.1293
  453loPI   C1B 7245  16.555   8.482   9.359 -0.1008 -0.1463 -0.1978
  453loPI   C2B 7246  16.546   8.549   8.896  0.1605  0.2324 -0.1353
  453loPI   C3B 7247  16.618   8.445   8.429 -0.2520 -0.0523 -0.2977
  453loPI   C4B 7248  16.740   8.309   8.002 -0.1633 -0.3012  0.0152
  454loPI    C1 7249   8.706   9.135  10.966 -0.2666 -0.0550  0.1827
  454loPI    C2 7250   8.788   8.765  11.095 -0.1760 -0.0904  0.0254
  454loPI    C3 7251   8.761   9.067  11.357  0.1684 -0.1321  0.1131
  454loPI   PO4 7252   8.548   9.145  10.803  0.0965  0.0139 -0.2866
  454loPI   GL1 7253   8.358   9.049  10.516 -0.1834  0.0553 -0.1262
  454loPI   GL2 7254   8.173   9.227  10.376 -0.0821 -0.0673 -0.1435
  454loPI   C1A 7255   8.202   8.777  10.196  0.1438 -0.0995 -0.0175
  454loPI   C2A 7256   8.217   8.786   9.721  0.2652 -0.0025  0.2181
  454loPI   C3A 7257   8.353   8.783   9.290 -0.1173  0.0413  0.2059
  454loPI   C4A 7258   8.263   8.717   8.882  0.3600  0.2065 -0.1028
  454loPI   C5A 7259   8.015   8.717   8.492  0.0500 -0.0171  0.1503
  454loPI   C6A 7260   8.033   8.941   8.103  0.2263 -0.0250  0.0939
  454loPI   C1B 7261   8.168   9.276   9.943  0.1176  0.0023 -0.1478
  454loPI   C2B 7262   8.227   9.275   9.471  0.0540 -0.0317 -0.2445
  454loPI   C3B 7263   8.171   9.223   9.046 -0.1692  0.4861  0.1285
  454loPI   C4B 7264   8.258   9.255   8.585 -0.0069  0.1518 -0.0671
  455loPI    C1 7265  11.198   7.681  10.946  0.0588 -0.0662 -0.0475
  455loPI    C2 7266  11.104   7.903  10.627 -0.2115 -0.0066  0.0711
  455loPI    C3 7267  11.404   8.015  10.868 -0.1164  0.0382 -0.0671
  455loPI   PO4 7268  11.170   7.484  10.871 -0.2000 -0.0097  0.0024
  455loPI   GL1 7269  11.042   7.412  10.362  0.0712 -0.2241 -0.0577
  455loPI   GL2 7270  10.768   7.506  10.092 -0.0358 -0.3075 -0.0931
  455loPI   C1A 7271  11.318   7.272  10.072 -0.0784  0.2897 -0.0183
  455loPI   C2A 7272  11.371   7.141   9.665  0.0003  0.2301  0.1153
  455loPI   C3A 7273  11.368   7.086   9.224  0.0438 -0.0963  0.1468
  455loPI   C4A 7274  11.246   7.217   8.871 -0.2017  0.1409 -0.0177
  455loPI   C5A 7275  11.273   7.178   8.482 -0.2851 -0.1802  0.1151
  455loPI   C6A 7276  11.323   7.258   8.096  0.2521 -0.1222  0.0128
  455loPI   C1B 7277  10.915   7.347   9.816  0.4869  0.5303  0.1991
  455loPI   C2B 7278  10.917   7.395   9.334 -0.1599  0.2892  0.3693
  455loPI   C3B 7279  10.783   7.356   8.994  0.3926 -0.0792 -0.1122
  455loPI   C4B 7280  10.794   7.399   8.586 -0.2348 -0.0896  0.3026
  456loPI    C1 7281  15.113   4.257  10.340  0.0113 -0.0062  0.1090
  456loPI    C2 7282  14.834   4.015  10.187 -0.2790  0.1674  0.3516
  456loPI    C3 7283  14.744   4.252  10.496  0.0721  0.4033  0.2779
  456loPI   PO4 7284  15.161   4.433  10.199  0.2480 -0.3224 -0.1832
  456loPI   GL1 7285  15.380   4.469   9.764  0.0575  0.3309  0.1486
  456loPI   GL2 7286  15.121   4.710   9.717  0.6729  0.0098 -0.1224
  456loPI   C1A 7287  15.496   4.412   9.329 -0.0205 -0.1852  0.3106
  456loPI   C2A 7288  15.670   4.698   9.154  0.2333  0.0675  0.0622
  456loPI   C3A 7289  15.698   4.863   8.781  0.2925  0.1365  0.0606
  456loPI   C4A 7290  15.571   4.903   8.337  0.0085  0.2473 -0.0816
  456loPI   C5A 7291  15.729   5.040   8.006  0.1534  0.0162  0.1276
  456loPI   C6A 7292  15.913   5.488   7.945 -0.0197  0.1960  0.3443
  456loPI   C1B 7293  14.995   4.728   9.380  0.1869  0.0515 -0.3748
  456loPI   C2B 7294  15.171   4.552   8.967  0.1364  0.1085 -0.1063
  456loPI   C3B 7295  15.385   4.413   8.593 -0.0758  0.2365  0.0216
  456loPI   C4B 7296  15.833   4.300   8.399  0.1807  0.1487 -0.1835
  457loPI    C1 7297  11.604   8.194  10.513  0.2579 -0.0180  0.0504
  457loPI    C2 7298  11.824   8.521  10.443  0.4050 -0.0831  0.2009
  457loPI    C3 7299  11.902   8.292  10.761  0.1100 -0.1013  0.2634
  457loPI   PO4 7300  11.662   8.077  10.352  0.0516 -0.0236 -0.3699
  457loPI   GL1 7301  11.512   7.904   9.997  0.0301  0.1736 -0.1452
  457loPI   GL2 7302  11.139   7.829  10.123  0.2343 -0.1405 -0.2719
  457loPI   C1A 7303  11.594   7.885   9.624 -0.2379 -0.1499  0.1744
  457loPI   C2A 7304  11.746   7.951   9.222  0.0287 -0.0236  0.3301
  457loPI   C3A 7305  11.693   7.916   8.794  0.0086 -0.0398  0.0375
  457loPI   C4A 7306  11.639   8.085   8.458  0.1603  0.0186 -0.2463
  457loPI   C5A 7307  11.607   7.815   8.036 -0.1274 -0.0317  0.0318
  457loPI   C6A 7308  11.609   7.678   7.535  0.0154  0.1055 -0.3239
  457loPI   C1B 7309  11.097   7.741   9.623 -0.2848  0.0129 -0.0971
  457loPI   C2B 7310  11.279   7.760   9.168  0.0202 -0.0157 -0.0334
  457loPI   C3B 7311  11.248   7.751   8.749  0.0610  0.2950 -0.0366
  457loPI   C4B 7312  11.234   7.786   8.402 -0.0847 -0.0846 -0.0149
  458loPI    C1 7313   9.565   7.681  10.409 -0.0204  0.0066  0.0136
  458loPI    C2 7314   9.772   7.768  10.740  0.0041  0.0398 -0.0103
  458loPI    C3 7315   9.534   8.044  10.574  0.0281  0.0384 -0.0469
  458loPI   PO4 7316   9.788   7.422  10.373 -0.1862 -0.0343  0.0373
  458loPI   GL1 7317   9.938   7.345   9.956 -0.2358  0.0505  0.0097
  458loPI   GL2 7318   9.853   7.692   9.948 -0.3904  0.1255  0.0551
  458loPI   C1A 7319  10.048   7.282   9.514 -0.2107 -0.1204  0.1506
  458loPI   C2A 7320  10.006   7.293   9.079 -0.0509 -0.0454 -0.0825
  458loPI   C3A 7321   9.899   7.210   8.717  0.3243 -0.1382 -0.0036
  458loPI   C4A 7322  10.023   7.005   8.309  0.3067 -0.1762 -0.0403
  458loPI   C5A 7323   9.892   6.992   7.917 -0.1049  0.0689  0.5226
  458loPI   C6A 7324   9.400   6.941   7.812 -0.1706  0.1078  0.1237
  458loPI   C1B 7325   9.765   7.706   9.459 -0.1720 -0.0882  0.1656
  458loPI   C2B 7326   9.787   7.742   9.017  0.2896 -0.0831  0.0478
  458loPI   C3B 7327   9.804   7.664   8.609  0.0697 -0.0493  0.0036
  458loPI   C4B 7328   9.745   7.436   8.135 -0.3523 -0.2064  0.0672
  459loPI    C1 7329   0.883  11.248  10.458 -0.1646 -0.0679  0.0893
  459loPI    C2 7330   1.252  11.300  10.311 -0.2187  0.3730  0.0963
  459loPI    C3 7331   1.196  11.271  10.706 -0.1595 -0.0336  0.0796
  459loPI   PO4 7332   0.721  11.153  10.222 -0.1295  0.2234  0.0770
  459loPI   GL1 7333   0.410  11.351   9.977 -0.1445 -0.1505 -0.0455
  459loPI   GL2 7334   0.311  11.047   9.928 -0.0046 -0.0983  0.4009
  459loPI   C1A 7335   0.590  11.305   9.561  0.0025  0.1872  0.1594
  459loPI   C2A 7336   0.695  11.278   9.145  0.0299  0.1105  0.1106
  459loPI   C3A 7337   0.572  11.021   8.844 -0.2963  0.1348  0.1289
  459loPI   C4A 7338   0.731  11.007   8.489  0.1822  0.1832  0.1165
  459loPI   C5A 7339   0.803  11.134   8.082 -0.2042 -0.0618  0.2796
  459loPI   C6A 7340   0.728  11.489   7.915 -0.0954  0.2090 -0.0453
  459loPI   C1B 7341   0.125  11.296   9.593 -0.2848 -0.0546 -0.0723
  459loPI   C2B 7342   0.190  11.142   9.284 -0.1151 -0.1729 -0.0985
  459loPI   C3B 7343   0.219  11.337   9.031  0.3926  0.3774 -0.0359
  459loPI   C4B 7344   0.243  11.517   8.717  0.3251  0.2903  0.0024
  460loPI    C1 7345   3.435  10.016  10.478  0.1193 -0.0130 -0.0624
  460loPI    C2 7346   3.280  10.210  10.792 -0.0750  0.0752 -0.2105
  460loPI    C3 7347   3.665  10.102  10.793 -0.1310 -0.1382  0.1597
  460loPI   PO4 7348   3.264   9.789  10.297  0.0776 -0.0315  0.0532
  460loPI   GL1 7349   3.168   9.779   9.867 -0.1394  0.0895 -0.1931
  460loPI   GL2 7350   3.311  10.041   9.704  0.1034 -0.0961  0.1222
  460loPI   C1A 7351   2.971   9.539   9.623 -0.2123 -0.2240 -0.1970
  460loPI   C2A 7352   2.944   9.463   9.108  0.1639  0.0042  0.0819
  460loPI   C3A 7353   2.787   9.711   8.759 -0.1348  0.3166 -0.2910
  460loPI   C4A 7354   2.465   9.700   8.482 -0.0582 -0.0249  0.0882
  460loPI   C5A 7355   2.026   9.862   8.354 -0.2967  0.0122 -0.1762
  460loPI   C6A 7356   1.658   9.735   8.478 -0.1210 -0.1104 -0.0619
  460loPI   C1B 7357   3.623   9.930   9.385  0.3513 -0.0167 -0.2433
  460loPI   C2B 7358   3.653   9.719   8.921  0.1719  0.3638  0.1786
  460loPI   C3B 7359   3.763   9.412   8.619  0.4029  0.3765  0.0719
  460loPI   C4B 7360   3.929   9.132   8.353  0.1197  0.3351  0.1894
  461loPI    C1 7361   8.809  14.355  10.837 -0.2995 -0.1842  0.2090
  461loPI    C2 7362   9.088  14.455  11.106  0.1239  0.1460 -0.3314
  461loPI    C3 7363   8.717  14.602  11.138  0.1533  0.1389  0.0936
  461loPI   PO4 7364   9.038  14.451  10.566 -0.0003 -0.0253 -0.4655
  461loPI   GL1 7365   9.101  14.567  10.127 -0.0214 -0.0747 -0.0657
  461loPI   GL2 7366   9.182  14.058  10.102 -0.1675 -0.1925 -0.2471
  461loPI   C1A 7367   9.001  14.650   9.772 -0.3420  0.0849 -0.0302
  461loPI   C2A 7368   8.885  14.525   9.414 -0.3480 -0.0964 -0.0145
  461loPI   C3A 7369   8.488  14.583   9.249  0.1582 -0.3541  0.0079
  461loPI   C4A 7370   8.228  14.452   8.935  0.2197 -0.1297 -0.2187
  461loPI   C5A 7371   8.183  14.324   8.560  0.1013 -0.0086  0.1449
  461loPI   C6A 7372   8.162  13.926   8.442  0.2059  0.2870 -0.2836
  461loPI   C1B 7373   8.852  14.200   9.813 -0.0433 -0.1533 -0.1583
  461loPI   C2B 7374   8.611  14.096   9.377 -0.1831  0.0513  0.0911
  461loPI   C3B 7375   8.469  14.005   9.021 -0.0834  0.0228  0.1017
  461loPI   C4B 7376   8.600  14.139   8.629 -0.1131 -0.0040 -0.0412
  462loPI    C1 7377  17.640  12.914  11.197  0.1210  0.0989  0.1401
  462loPI    C2 7378  17.272  12.960  11.346  0.1399 -0.0223  0.2264
  462loPI    C3 7379  17.482  12.630  11.430  0.2139 -0.0183  0.0616
  462loPI   PO4 7380  17.696  12.969  10.937 -0.3915  0.2450 -0.2726
  462loPI   GL1 7381  17.678  13.245  10.628 -0.1248  0.1023 -0.2396
  462loPI   GL2 7382  17.837  13.002  10.455  0.1734 -0.1794 -0.1702
  462loPI   C1A 7383  17.928  13.474  10.280 -0.1971  0.1562 -0.2526
  462loPI   C2A 7384  17.974  13.659   9.872  0.3236 -0.0670 -0.1574
  462loPI   C3A 7385  17.974  13.655   9.453  0.0070 -0.1763  0.0282
  462loPI   C4A 7386  18.027  13.644   8.956 -0.0196 -0.0336 -0.1611
  462loPI   C5A 7387  18.095  13.660   8.580  0.1122  0.2596 -0.0240
  462loPI   C6A 7388  18.130  13.727   8.164  0.0651 -0.0634 -0.3397
  462loPI   C1B 7389  17.988  13.103   9.981 -0.1030  0.0492  0.1120
  462loPI   C2B 7390  17.959  13.187   9.522  0.1394 -0.1239 -0.3139
  462loPI   C3B 7391  17.961  13.149   9.132 -0.0316 -0.0100  0.4164
  462loPI   C4B 7392  17.817  13.183   8.655 -0.0920 -0.0169  0.1675
  463loPI    C1 7393  12.043  13.403  10.711  0.2525 -0.1933  0.0225
  463loPI    C2 7394  12.029  13.190  11.050 -0.2410  0.2880  0.3221
  463loPI    C3 7395  12.359  13.395  10.955  0.0437 -0.1670  0.2991
  463loPI   PO4 7396  11.997  13.216  10.493  0.0509  0.0993  0.0880
  463loPI   GL1 7397  11.753  13.347  10.065  0.1194  0.2747  0.0900
  463loPI   GL2 7398  12.129  13.245   9.975  0.1438  0.1191 -0.0317
  463loPI   C1A 7399  11.858  13.470   9.563  0.3986 -0.2202  0.2152
  463loPI   C2A 7400  11.893  13.580   9.198  0.2057  0.2141 -0.1011
  463loPI   C3A 7401  11.742  13.303   8.852 -0.0612 -0.0383 -0.0359
  463loPI   C4A 7402  11.682  13.309   8.430 -0.6149 -0.3926  0.0693
  463loPI   C5A 7403  11.417  13.064   8.108  0.2357 -0.1169 -0.0009
  463loPI   C6A 7404  10.989  13.135   7.859 -0.1996 -0.0114  0.1877
  463loPI   C1B 7405  12.077  12.946   9.592 -0.0806  0.0680  0.1724
  463loPI   C2B 7406  11.874  13.016   9.233 -0.3521  0.0074  0.0970
  463loPI   C3B 7407  11.497  13.237   9.291  0.0565  0.0450 -0.0819
  463loPI   C4B 7408  11.148  13.323   9.567 -0.2226 -0.1424 -0.0368
  464loPI    C1 7409   7.552   5.049  10.863 -0.0868 -0.0671 -0.3002
  464loPI    C2 7410   7.172   4.987  10.970 -0.0204  0.1134  0.0553
  464loPI    C3 7411   7.438   4.690  10.998 -0.0771  0.0637  0.0682
  464loPI   PO4 7412   7.554   5.142  10.646  0.0988  0.0075 -0.2171
  464loPI   GL1 7413   7.721   5.061  10.300  0.1741 -0.2286  0.0188
  464loPI   GL2 7414   8.020   5.079  10.377 -0.3247 -0.1135  0.0474
  464loPI   C1A 7415   7.777   5.241   9.897 -0.2992 -0.3905 -0.0573
  464loPI   C2A 7416   7.879   5.121   9.475 -0.1649 -0.1898  0.0727
  464loPI   C3A 7417   7.980   5.056   9.015  0.1583  0.1140  0.0901
  464loPI   C4A 7418   8.095   5.043   8.601  0.1877  0.2872 -0.2448
  464loPI   C5A 7419   8.474   4.910   8.345 -0.2832 -0.0196  0.2506
  464loPI   C6A 7420   8.511   4.740   7.943  0.0416  0.0737 -0.1274
  464loPI   C1B 7421   8.165   4.960  10.020 -0.0049  0.0482 -0.0044
  464loPI   C2B 7422   8.483   4.975   9.621 -0.0719 -0.1817  0.0352
  464loPI   C3B 7423   8.350   4.859   9.255 -0.1036  0.3038 -0.1107
  464loPI   C4B 7424   8.407   4.829   8.901  0.2844  0.1151  0.1015
  465loPI    C1 7425  14.658  12.326  10.764  0.2284 -0.1488 -0.0596
  465loPI    C2 7426  14.332  12.329  10.532  0.3248 -0.1976 -0.1967
  465loPI    C3 7427  14.509  11.982  10.624  0.2124 -0.1896  0.0567
  465loPI   PO4 7428  14.932  12.511  10.645 -0.0371 -0.0075  0.0081
  465loPI   GL1 7429  14.868  12.703  10.215 -0.0930 -0.0400 -0.0614
  465loPI   GL2 7430  14.670  12.315  10.129 -0.1174 -0.2449 -0.3187
  465loPI   C1A 7431  14.783  12.614   9.767  0.3360 -0.2241 -0.1055
  465loPI   C2A 7432  14.871  12.446   9.502  0.0701 -0.1654  0.1897
  465loPI   C3A 7433  15.173  12.285   9.119  0.2025 -0.0754 -0.1319
  465loPI   C4A 7434  15.202  12.447   8.600  0.1654 -0.1988  0.0884
  465loPI   C5A 7435  15.307  12.756   8.406  0.4082 -0.1505 -0.0054
  465loPI   C6A 7436  15.201  12.990   8.081 -0.1397  0.0814 -0.0116
  465loPI   C1B 7437  14.401  12.272   9.703  0.2071  0.2177 -0.1954
  465loPI   C2B 7438  14.396  12.054   9.272 -0.2030 -0.1824  0.2626
  465loPI   C3B 7439  14.483  12.148   8.826  0.1512 -0.1034 -0.0515
  465loPI   C4B 7440  14.636  12.415   8.543  0.0110 -0.1362  0.1060
  466loPI    C1 7441   5.065  14.202  10.672 -0.0977 -0.0277  0.2077
  466loPI    C2 7442   5.257  14.428  10.940 -0.0992 -0.1875  0.3447
  466loPI    C3 7443   5.364  14.047  10.886 -0.0815 -0.1492  0.0979
  466loPI   PO4 7444   5.042  14.247  10.484  0.2114 -0.3163  0.1776
  466loPI   GL1 7445   4.856  14.134  10.134  0.2373  0.0890  0.0677
  466loPI   GL2 7446   4.825  13.870  10.050 -0.4853 -0.1504  0.0915
  466loPI   C1A 7447   5.109  14.415   9.876  0.3645  0.1179 -0.2573
  466loPI   C2A 7448   5.450  14.541   9.622  0.3644  0.0227 -0.1707
  466loPI   C3A 7449   5.447  14.591   9.244 -0.0685 -0.0428  0.2814
  466loPI   C4A 7450   5.302  14.893   8.932  0.0619  0.2685  0.0138
  466loPI   C5A 7451   5.315  14.888   8.422  0.1095 -0.1795 -0.2282
  466loPI   C6A 7452   5.410  14.530   8.195  0.1037 -0.0425  0.1615
  466loPI   C1B 7453   4.807  14.062   9.666 -0.1482  0.1490  0.0992
  466loPI   C2B 7454   4.932  14.312   9.335  0.2314 -0.1333 -0.1324
  466loPI   C3B 7455   4.948  14.502   8.943 -0.2008  0.4055 -0.2200
  466loPI   C4B 7456   4.929  14.641   8.522 -0.0649  0.2761 -0.3181
  467loPI    C1 7457  17.892   1.992  10.621 -0.1454 -0.1073 -0.1173
  467loPI    C2 7458  17.775   2.322  10.428  0.3156  0.1231 -0.0147
  467loPI    C3 7459  18.019   2.350  10.744  0.5405 -0.3279 -0.1398
  467loPI   PO4 7460  17.505   1.837  10.488  0.0148 -0.2674 -0.1998
  467loPI   GL1 7461  17.264   1.839  10.153 -0.1345 -0.2945  0.0145
  467loPI   GL2 7462  16.998   1.679  10.241  0.2660  0.0373 -0.0303
  467loPI   C1A 7463  17.337   1.945   9.730 -0.0068  0.0785  0.0971
  467loPI   C2A 7464  17.393   1.952   9.325  0.1421 -0.4064 -0.1233
  467loPI   C3A 7465  17.336   1.890   8.902  0.1735 -0.1621  0.3332
  467loPI   C4A 7466  17.302   1.841   8.508 -0.2320 -0.0771 -0.0900
  467loPI   C5A 7467  17.186   1.647   8.215  0.3348 -0.1209 -0.0277
  467loPI   C6A 7468  17.423   1.258   8.112  0.0495 -0.3537  0.0040
  467loPI   C1B 7469  16.812   1.434   9.904 -0.3566  0.3693  0.2855
  467loPI   C2B 7470  16.868   1.305   9.628 -0.0084  0.0806 -0.0089
  467loPI   C3B 7471  16.783   1.258   9.230 -0.0017 -0.2188 -0.0818
  467loPI   C4B 7472  16.797   1.226   8.794 -0.1534 -0.3719  0.0811
  468loPI    C1 7473  11.109  13.241  10.742 -0.2096 -0.0372 -0.0720
  468loPI    C2 7474  10.717  13.316  10.768 -0.1389  0.3024  0.0655
  468loPI    C3 7475  10.968  13.460  11.046  0.1032  0.2283 -0.1111
  468loPI   PO4 7476  11.097  13.081  10.523 -0.2671  0.2221 -0.0455
  468loPI   GL1 7477  11.327  13.040  10.130 -0.2422  0.0911 -0.0154
  468loPI   GL2 7478  11.260  13.400  10.117  0.0778 -0.1727 -0.3432
  468loPI   C1A 7479  10.883  13.074   9.905  0.1152 -0.0647  0.1179
  468loPI   C2A 7480  10.625  12.730   9.951  0.3623 -0.2520  0.0540
  468loPI   C3A 7481  10.430  12.683   9.575  0.0088 -0.0465  0.3724
  468loPI   C4A 7482  10.472  12.846   9.189 -0.1133 -0.0660 -0.0717
  468loPI   C5A 7483  10.352  12.913   8.776  0.1228  0.1554  0.1431
  468loPI   C6A 7484  10.291  12.973   8.314 -0.0209  0.0651 -0.0743
  468loPI   C1B 7485  11.423  13.641   9.779  0.3232 -0.2518  0.0228
  468loPI   C2B 7486  11.458  13.757   9.389 -0.0472 -0.2307  0.0084
  468loPI   C3B 7487  11.405  13.682   9.035  0.0356 -0.3101 -0.3788
  468loPI   C4B 7488  11.518  13.765   8.639  0.0630 -0.0702  0.0642
  469loPI    C1 7489   0.948   7.439  10.331 -0.1508  0.0123 -0.2166
  469loPI    C2 7490   0.781   7.337  10.680  0.1207 -0.2359 -0.1548
  469loPI    C3 7491   0.669   7.152  10.344  0.0266 -0.1603 -0.1656
  469loPI   PO4 7492   0.953   7.656  10.301 -0.1825  0.0782  0.1638
  469loPI   GL1 7493   0.864   7.836   9.965  0.2490 -0.1398 -0.0331
  469loPI   GL2 7494   0.586   7.947  10.045 -0.0374  0.0454 -0.0818
  469loPI   C1A 7495   0.961   8.007   9.619  0.3066 -0.1182  0.2230
  469loPI   C2A 7496   0.914   8.327   9.505  0.1311  0.1800  0.0337
  469loPI   C3A 7497   0.684   8.716   9.553  0.3516 -0.3430  0.0630
  469loPI   C4A 7498   0.848   9.073   9.248 -0.2787 -0.0511  0.0236
  469loPI   C5A 7499   1.036   9.156   8.841  0.1315 -0.1346  0.0351
  469loPI   C6A 7500   1.028   9.199   8.240  0.3008 -0.0039  0.4248
  469loPI   C1B 7501   0.483   8.065   9.692 -0.1928 -0.3101  0.0461
  469loPI   C2B 7502   0.488   8.039   9.289  0.0557  0.1229  0.0211
  469loPI   C3B 7503   0.307   8.228   8.819  0.3299  0.0182  0.0104
  469loPI   C4B 7504  -0.042   8.133   8.554  0.1443  0.2037  0.2287
  470loPI    C1 7505   3.329   9.138  10.769 -0.0276 -0.0413 -0.1843
  470loPI    C2 7506   3.051   9.345  10.569  0.0299  0.1811 -0.0379
  470loPI    C3 7507   3.049   9.342  10.969 -0.0013 -0.1476 -0.0376
  470loPI   PO4 7508   3.491   9.103  10.443  0.1337  0.1431 -0.0928
  470loPI   GL1 7509   3.373   8.867  10.030  0.3019 -0.2484 -0.1494
  470loPI   GL2 7510   3.260   9.278  10.022 -0.1595 -0.0341 -0.2474
  470loPI   C1A 7511   3.466   8.844   9.622  0.1693 -0.1942  0.3837
  470loPI   C2A 7512   3.471   8.793   9.183  0.1134  0.0162  0.3948
  470loPI   C3A 7513   3.271   8.580   8.935 -0.1055 -0.3768 -0.0207
  470loPI   C4A 7514   3.261   8.406   8.513 -0.0315  0.2363  0.0548
  470loPI   C5A 7515   3.363   8.065   8.338  0.1966 -0.0901 -0.0185
  470loPI   C6A 7516   3.330   7.575   8.358 -0.1526 -0.1490  0.1916
  470loPI   C1B 7517   3.018   9.056   9.694 -0.0296  0.1416 -0.0274
  470loPI   C2B 7518   2.974   9.026   9.311  0.2675  0.2850 -0.1173
  470loPI   C3B 7519   2.768   9.031   8.975  0.0157 -0.2516  0.0002
  470loPI   C4B 7520   2.434   9.302   8.935  0.2568  0.1685 -0.0328
  471loPI    C1 7521  16.812  16.024  10.988 -0.1807 -0.0761 -0.1433
  471loPI    C2 7522  16.597  15.829  11.263 -0.0296 -0.0335  0.0066
  471loPI    C3 7523  16.639  16.226  11.286 -0.0147 -0.0299 -0.0771
  471loPI   PO4 7524  16.773  15.950  10.779  0.0500  0.0208  0.0117
  471loPI   GL1 7525  17.018  15.849  10.463  0.0381  0.1770  0.0793
  471loPI   GL2 7526  17.239  15.927  10.464 -0.1263 -0.0899  0.0251
  471loPI   C1A 7527  16.867  15.649  10.106  0.1577  0.0015 -0.1161
  471loPI   C2A 7528  16.985  15.635   9.655  0.1130  0.2067  0.0585
  471loPI   C3A 7529  16.994  15.644   9.163  0.0280 -0.3534 -0.2020
  471loPI   C4A 7530  17.043  15.572   8.751  0.2366 -0.1636  0.0384
  471loPI   C5A 7531  17.097  15.258   8.485  0.3664  0.0806  0.3537
  471loPI   C6A 7532  17.221  15.340   8.129  0.1595  0.2290  0.3267
  471loPI   C1B 7533  17.471  15.867  10.137  0.1019  0.0830 -0.1604
  471loPI   C2B 7534  17.461  15.729   9.792  0.2137 -0.0802 -0.0256
  471loPI   C3B 7535  17.480  15.728   9.395  0.1537  0.1506  0.0424
  471loPI   C4B 7536  17.491  15.783   8.942  0.2809  0.1005  0.0442
  472loPI    C1 7537  11.707   7.478  10.928  0.0288  0.0307 -0.0696
  472loPI    C2 7538  11.920   7.467  11.266 -0.1575 -0.1350  0.0442
  472loPI    C3 7539  11.534   7.361  11.269 -0.2633  0.2276 -0.1461
  472loPI   PO4 7540  11.905   7.311  10.734 -0.0100 -0.1667 -0.2327
  472loPI   GL1 7541  12.085   7.372  10.299  0.1354  0.0634 -0.1503
  472loPI   GL2 7542  11.784   7.360  10.180 -0.0519  0.0255 -0.0947
  472loPI   C1A 7543  12.209   7.318   9.869 -0.1956 -0.1308  0.3335
  472loPI   C2A 7544  12.211   7.209   9.413 -0.1468  0.3519 -0.4516
  472loPI   C3A 7545  12.230   7.192   8.942 -0.1249  0.0506 -0.0172
  472loPI   C4A 7546  12.130   7.174   8.638  0.0155  0.1114  0.1230
  472loPI   C5A 7547  11.805   7.034   8.243 -0.1801 -0.2824 -0.3597
  472loPI   C6A 7548  11.684   6.634   8.198 -0.1272 -0.0881 -0.1097
  472loPI   C1B 7549  11.757   7.413   9.789  0.1836  0.2788 -0.1745
  472loPI   C2B 7550  11.755   7.425   9.349 -0.2454 -0.0454 -0.3157
  472loPI   C3B 7551  11.754   7.380   8.873 -0.0638 -0.3079  0.0304
  472loPI   C4B 7552  11.682   7.447   8.431 -0.0015  0.1264  0.1615
  473loPI    C1 7553  15.871   4.904  10.704  0.0774 -0.1311  0.1823
  473loPI    C2 7554  16.247   4.929  10.572  0.0131 -0.1129 -0.0002
  473loPI    C3 7555  16.153   4.664  10.856  0.2179  0.0701  0.2433
  473loPI   PO4 7556  15.771   4.899  10.519 -0.0778 -0.2609 -0.1344
  473loPI   GL1 7557  15.481   4.872  10.127  0.0804 -0.2614 -0.0497
  473loPI   GL2 7558  15.339   5.077   9.910 -0.0282 -0.1527  0.0363
  473loPI   C1A 7559  15.783   4.904   9.788 -0.1276  0.2834  0.0910
  473loPI   C2A 7560  15.844   5.273   9.610  0.2067 -0.0444 -0.1090
  473loPI   C3A 7561  15.730   5.312   9.057  0.1286  0.0108  0.1683
  473loPI   C4A 7562  15.701   5.417   8.603 -0.1736  0.0581 -0.0820
  473loPI   C5A 7563  15.549   5.537   8.313  0.0685 -0.0739  0.0092
  473loPI   C6A 7564  15.386   5.406   7.903 -0.1395 -0.1463 -0.1885
  473loPI   C1B 7565  15.401   4.988   9.474 -0.0356  0.1241 -0.1552
  473loPI   C2B 7566  15.270   5.024   9.045  0.0476  0.1631 -0.0660
  473loPI   C3B 7567  15.229   4.985   8.691 -0.1131 -0.0009  0.2384
  473loPI   C4B 7568  15.137   5.234   8.289 -0.1831  0.1603  0.1162
  474loPI    C1 7569   3.743  15.441  11.074  0.0739  0.1943 -0.0520
  474loPI    C2 7570   3.970  15.338  11.386 -0.0795  0.0793  0.0227
  474loPI    C3 7571   3.611  15.504  11.446 -0.1474 -0.0251 -0.0909
  474loPI   PO4 7572   3.813  15.220  10.879 -0.2126  0.0629 -0.1347
  474loPI   GL1 7573   3.803  14.859  10.527 -0.0213 -0.2597  0.1555
  474loPI   GL2 7574   3.463  15.090  10.461 -0.3027 -0.0404 -0.0479
  474loPI   C1A 7575   3.732  14.803  10.028  0.2201  0.0829  0.0924
  474loPI   C2A 7576   3.568  14.742   9.678 -0.0809  0.0250  0.1018
  474loPI   C3A 7577   3.598  14.890   9.277  0.1100 -0.2817  0.1100
  474loPI   C4A 7578   3.450  14.834   8.798  0.0959 -0.0299 -0.0978
  474loPI   C5A 7579   3.612  14.408   8.579  0.2111 -0.0538 -0.0393
  474loPI   C6A 7580   4.030  14.318   8.475 -0.1659 -0.0186 -0.0306
  474loPI   C1B 7581   3.260  15.061  10.013 -0.0471  0.0159  0.1338
  474loPI   C2B 7582   3.100  15.057   9.596 -0.0509  0.2188  0.0655
  474loPI   C3B 7583   3.144  15.086   9.113  0.1106 -0.1519  0.3002
  474loPI   C4B 7584   2.947  15.098   8.749  0.0417 -0.3023 -0.0236
  475loPI    C1 7585  15.411  17.182  10.835  0.0667  0.1123  0.0469
  475loPI    C2 7586  15.159  17.256  11.136 -0.0661 -0.0347 -0.0264
  475loPI    C3 7587  15.452  16.987  11.182  0.1429  0.2083  0.0925
  475loPI   PO4 7588  15.501  17.369  10.760  0.0445 -0.0722  0.2580
  475loPI   GL1 7589  15.561  17.375  10.279 -0.1638 -0.0697  0.1784
  475loPI   GL2 7590  15.266  17.325  10.321  0.0177  0.1246 -0.2932
  475loPI   C1A 7591  15.879  17.168   9.984 -0.2067 -0.2426  0.2354
  475loPI   C2A 7592  15.959  17.292   9.531 -0.0515  0.0412  0.0688
  475loPI   C3A 7593  15.964  17.196   9.103 -0.2789 -0.3105 -0.1393
  475loPI   C4A 7594  15.949  17.044   8.760  0.1467  0.0884  0.2346
  475loPI   C5A 7595  15.928  17.013   8.332  0.0433  0.3084 -0.2359
  475loPI   C6A 7596  15.748  17.269   7.951 -0.1414  0.1930 -0.1056
  475loPI   C1B 7597  15.166  17.407   9.947  0.1514 -0.0001  0.1544
  475loPI   C2B 7598  15.008  17.348   9.524  0.0941 -0.0472 -0.0098
  475loPI   C3B 7599  15.058  17.279   9.046 -0.0807 -0.0336 -0.1283
  475loPI   C4B 7600  15.109  17.358   8.587  0.4255  0.0684  0.0004
  476loPI    C1 7601  12.428  12.150  10.633 -0.1012  0.2296 -0.0604
  476loPI    C2 7602  12.528  12.471  10.849  0.4018  0.0765 -0.0509
  476loPI    C3 7603  12.382  12.145  11.030 -0.0821  0.2802 -0.0576
  476loPI   PO4 7604  12.445  12.171  10.387 -0.0787 -0.2406 -0.2371
  476loPI   GL1 7605  12.799  12.443  10.169  0.0513 -0.2483 -0.3949
  476loPI   GL2 7606  13.065  12.656  10.128  0.0883 -0.1003  0.2021
  476loPI   C1A 7607  12.773  12.066   9.846  0.0562  0.2767  0.1164
  476loPI   C2A 7608  12.790  11.859   9.418 -0.0692 -0.1784 -0.1564
  476loPI   C3A 7609  12.714  12.114   9.136  0.0124 -0.2297 -0.0597
  476loPI   C4A 7610  12.608  12.180   8.728  0.1857 -0.0851  0.0026
  476loPI   C5A 7611  12.673  12.390   8.311 -0.2508  0.2405  0.0654
  476loPI   C6A 7612  12.413  12.652   7.978  0.0295  0.2613  0.1483
  476loPI   C1B 7613  12.872  12.511   9.691  0.1155 -0.0706 -0.0486
  476loPI   C2B 7614  12.853  12.519   9.376 -0.1512 -0.2023  0.1083
  476loPI   C3B 7615  12.991  12.523   8.996  0.0077 -0.0676  0.0373
  476loPI   C4B 7616  13.087  12.545   8.646  0.0809 -0.1699  0.2391
  477loPI    C1 7617   1.689   0.267  10.862  0.1212 -0.0672 -0.1262
  477loPI    C2 7618   1.972   0.374  11.123  0.0898 -0.3397  0.0235
  477loPI    C3 7619   1.600   0.301  11.250 -0.0371 -0.0414 -0.1639
  477loPI   PO4 7620   1.721   0.351  10.610 -0.0175 -0.2413  0.0750
  477loPI   GL1 7621   1.804   0.366  10.196 -0.0223 -0.0572  0.2257
  477loPI   GL2 7622   1.926   0.664  10.258  0.1735  0.1043 -0.1644
  477loPI   C1A 7623   1.908   0.276   9.840  0.0337  0.2271  0.0744
  477loPI   C2A 7624   1.867   0.435   9.404  0.2696  0.2144 -0.1317
  477loPI   C3A 7625   1.768   0.368   8.986  0.1524  0.3375  0.3216
  477loPI   C4A 7626   1.772   0.333   8.613  0.2211  0.3509  0.1531
  477loPI   C5A 7627   1.710   0.701   8.284 -0.2149 -0.0660 -0.0808
  477loPI   C6A 7628   1.844   0.940   8.022  0.0300 -0.0376 -0.1013
  477loPI   C1B 7629   1.829   0.765   9.869  0.2311 -0.4510  0.1430
  477loPI   C2B 7630   1.816   1.011   9.555 -0.0951  0.0165  0.1315
  477loPI   C3B 7631   1.875   0.881   9.194  0.1044 -0.0056  0.0646
  477loPI   C4B 7632   1.880   0.883   8.809 -0.1077  0.0125 -0.1937
  478loPI    C1 7633   5.086  17.305  10.863 -0.0954 -0.1010 -0.2011
  478loPI    C2 7634   5.004  16.914  10.847  0.2231 -0.1744 -0.1034
  478loPI    C3 7635   5.312  17.045  11.066 -0.1377  0.1735  0.2089
  478loPI   PO4 7636   5.047  17.383  10.632  0.0958  0.1806 -0.0997
  478loPI   GL1 7637   4.788  17.500  10.259 -0.2297 -0.2495  0.0842
  478loPI   GL2 7638   5.068  17.490  10.124 -0.0307  0.1268  0.0461
  478loPI   C1A 7639   4.529  17.695  10.000  0.1818 -0.0228 -0.0177
  478loPI   C2A 7640   4.332  17.707   9.631 -0.1075 -0.2413 -0.0627
  478loPI   C3A 7641   4.351  17.573   9.243 -0.0018 -0.0474 -0.0265
  478loPI   C4A 7642   4.395  17.575   8.838 -0.0738 -0.0196 -0.2953
  478loPI   C5A 7643   4.354  17.640   8.418  0.2522 -0.0513 -0.0938
  478loPI   C6A 7644   4.112  17.365   8.104 -0.1078  0.3231 -0.2219
  478loPI   C1B 7645   5.155  17.400   9.785  0.3717 -0.0987  0.0008
  478loPI   C2B 7646   5.190  17.387   9.363 -0.0162 -0.4158 -0.1131
  478loPI   C3B 7647   5.191  17.423   8.873 -0.2753 -0.2497 -0.0484
  478loPI   C4B 7648   5.348  17.611   8.533  0.0972 -0.0659  0.4403
  479loPI    C1 7649  14.840   0.535  10.882  0.2916 -0.2791  0.1774
  479loPI    C2 7650  15.014   0.865  11.026 -0.3921  0.2896 -0.2306
  479loPI    C3 7651  14.730   0.679  11.239 -0.1297  0.0545 -0.0776
  479loPI   PO4 7652  14.858   0.528  10.574  0.0744  0.2964 -0.1710
  479loPI   GL1 7653  14.793   0.414  10.192  0.2276 -0.1496 -0.2758
  479loPI   GL2 7654  14.990   0.150  10.304 -0.2754  0.0482  0.1705
  479loPI   C1A 7655  14.807   0.617   9.705  0.0403 -0.3212  0.0208
  479loPI   C2A 7656  14.775   0.663   9.244  0.0318  0.0207 -0.1593
  479loPI   C3A 7657  14.887   0.625   8.765  0.0913  0.1252 -0.1547
  479loPI   C4A 7658  14.795   0.814   8.368  0.1176 -0.0284  0.0740
  479loPI   C5A 7659  14.971   1.175   8.160 -0.3499  0.1749 -0.0541
  479loPI   C6A 7660  15.140   1.613   7.930 -0.2475  0.2629  0.0636
  479loPI   C1B 7661  15.135  -0.136   9.931  0.0420  0.3799  0.1151
  479loPI   C2B 7662  15.131  -0.249   9.494 -0.0799 -0.0659 -0.0450
  479loPI   C3B 7663  15.148  -0.316   9.029  0.0392 -0.0695  0.0297
  479loPI   C4B 7664  15.228  -0.248   8.607 -0.3224  0.1940  0.3193
  480loPI    C1 7665   9.330  14.013  10.591 -0.0460  0.1970 -0.1665
  480loPI    C2 7666   8.986  13.848  10.469 -0.0857  0.1427  0.0164
  480loPI    C3 7667   9.057  13.898  10.860  0.1689  0.0366 -0.0142
  480loPI   PO4 7668   9.464  13.957  10.484 -0.1585  0.2409 -0.0385
  480loPI   GL1 7669   9.696  14.234  10.221 -0.0823 -0.0611  0.2646
  480loPI   GL2 7670   9.979  14.258   9.998  0.0162  0.1390  0.0274
  480loPI   C1A 7671   9.567  14.108   9.801 -0.2219  0.1878  0.3679
  480loPI   C2A 7672   9.288  14.145   9.520 -0.0741 -0.1219 -0.3339
  480loPI   C3A 7673   9.107  14.155   9.094 -0.1265  0.0781  0.1927
  480loPI   C4A 7674   9.184  14.142   8.693  0.2199  0.0593 -0.1387
  480loPI   C5A 7675   9.141  14.541   8.547  0.1261 -0.2678  0.1621
  480loPI   C6A 7676   8.940  14.911   8.446 -0.0599  0.0008  0.1051
  480loPI   C1B 7677  10.222  14.051   9.621  0.0585 -0.0290  0.2451
  480loPI   C2B 7678  10.348  14.261   9.331 -0.3099 -0.0312  0.0548
  480loPI   C3B 7679  10.239  14.270   8.781  0.0027 -0.1207 -0.0245
  480loPI   C4B 7680  10.117  14.278   8.410 -0.2305 -0.0559 -0.1761
  481loPI    C1 7681  14.755   1.458  10.381  0.0513 -0.3057  0.0798
  481loPI    C2 7682  14.765   1.711  10.691 -0.2461 -0.1748 -0.0135
  481loPI    C3 7683  15.034   1.744  10.397 -0.2507 -0.0006  0.0011
  481loPI   PO4 7684  14.572   1.508  10.238  0.0546 -0.0383  0.0969
  481loPI   GL1 7685  14.392   1.658   9.856 -0.2684  0.2121  0.4175
  481loPI   GL2 7686  14.338   1.839   9.747 -0.1145  0.0994 -0.1071
  481loPI   C1A 7687  14.543   1.512   9.416  0.0372  0.4787  0.0435
  481loPI   C2A 7688  14.627   1.480   8.984 -0.1880 -0.0431 -0.0087
  481loPI   C3A 7689  14.653   1.358   8.475 -0.2271 -0.1519 -0.2379
  481loPI   C4A 7690  14.586   1.493   8.102 -0.1855 -0.2006  0.0879
  481loPI   C5A 7691  14.686   1.416   7.656  0.2142 -0.0579 -0.1005
  481loPI   C6A 7692  14.943   1.193   7.688  0.2115  0.0420 -0.1105
  481loPI   C1B 7693  14.209   1.840   9.350 -0.1235  0.0918 -0.2969
  481loPI   C2B 7694  14.152   1.802   8.888 -0.1771  0.0139 -0.3604
  481loPI   C3B 7695  14.397   1.735   8.631 -0.3425  0.0118  0.0120
  481loPI   C4B 7696  14.764   1.819   8.400  0.1596  0.4284 -0.0294
  482loPI    C1 7697   0.516   0.877  10.932  0.0348  0.1228  0.0580
  482loPI    C2 7698   0.338   0.950  11.282  0.0097  0.1601  0.0376
  482loPI    C3 7699   0.693   0.766  11.273  0.0987  0.3272  0.0924
  482loPI   PO4 7700   0.614   1.128  10.819  0.1237 -0.1418  0.0460
  482loPI   GL1 7701   0.690   1.101  10.394  0.2658 -0.1201  0.0521
  482loPI   GL2 7702   0.935   0.968  10.444 -0.1322  0.1645  0.2635
  482loPI   C1A 7703   0.579   1.012  10.087 -0.0107 -0.0940  0.2453
  482loPI   C2A 7704   0.510   0.972   9.574 -0.2984 -0.0979  0.1021
  482loPI   C3A 7705   0.430   0.890   9.180  0.1063  0.2492  0.0130
  482loPI   C4A 7706   0.486   0.811   8.750  0.2002  0.2689  0.0258
  482loPI   C5A 7707   0.494   0.937   8.347  0.1241 -0.3563 -0.0436
  482loPI   C6A 7708   0.659   1.193   8.112 -0.1471  0.1649  0.1616
  482loPI   C1B 7709   1.010   1.146   9.921 -0.0637 -0.2957 -0.0614
  482loPI   C2B 7710   0.969   1.168   9.464  0.1130  0.1012 -0.1066
  482loPI   C3B 7711   0.885   1.133   9.068 -0.0590  0.1886  0.0014
  482loPI   C4B 7712   0.928   1.006   8.647  0.2442 -0.0737  0.2365
  483loPI    C1 7713   0.267   0.518  10.719  0.1173  0.1278  0.2025
  483loPI    C2 7714   0.027   0.590  11.031 -0.0417 -0.0827  0.1315
  483loPI    C3 7715   0.328   0.328  11.066 -0.1445 -0.2103  0.0697
  483loPI   PO4 7716   0.241   0.760  10.573  0.0907 -0.0238 -0.1607
  483loPI   GL1 7717   0.112   1.047  10.237 -0.1506  0.2642 -0.1003
  483loPI   GL2 7718  -0.113   1.001  10.187 -0.0964  0.1889  0.2802
  483loPI   C1A 7719   0.176   1.253   9.815  0.1662 -0.1497 -0.0816
  483loPI   C2A 7720   0.125   1.372   9.293 -0.1701 -0.4277 -0.2321
  483loPI   C3A 7721   0.022   1.282   8.931 -0.0773  0.0011  0.0058
  483loPI   C4A 7722   0.111   1.180   8.544  0.0270  0.1558 -0.0349
  483loPI   C5A 7723   0.199   1.350   8.259 -0.0126 -0.3791  0.1203
  483loPI   C6A 7724   0.456   1.677   7.901  0.0022 -0.0098 -0.1048
  483loPI   C1B 7725  -0.018   0.815   9.791 -0.4267 -0.2046 -0.0113
  483loPI   C2B 7726  -0.036   0.808   9.280 -0.2382  0.1794 -0.1613
  483loPI   C3B 7727  -0.079   0.814   8.832  0.0800  0.3765 -0.4173
  483loPI   C4B 7728   0.013   0.689   8.415 -0.2669  0.1216  0.1039
  484loPI    C1 7729   7.399   0.689  10.711  0.1159 -0.0263  0.2658
  484loPI    C2 7730   7.455   0.965  10.426 -0.0155 -0.1808  0.0877
  484loPI    C3 7731   7.340   1.076  10.793 -0.3325 -0.0181 -0.0569
  484loPI   PO4 7732   7.271   0.526  10.585  0.2347 -0.0653 -0.0513
  484loPI   GL1 7733   6.927   0.477  10.282  0.0475  0.2521 -0.1287
  484loPI   GL2 7734   7.202   0.630  10.060 -0.0768 -0.1139  0.1587
  484loPI   C1A 7735   6.868   0.347   9.898  0.1346  0.2307  0.2063
  484loPI   C2A 7736   6.805   0.404   9.442  0.1543 -0.1855 -0.0594
  484loPI   C3A 7737   6.687   0.434   8.982 -0.0233 -0.0335 -0.0788
  484loPI   C4A 7738   6.861   0.377   8.518 -0.2033  0.2415 -0.2413
  484loPI   C5A 7739   7.066   0.125   8.166  0.0549  0.2754 -0.2474
  484loPI   C6A 7740   7.280  -0.147   7.962 -0.0348 -0.2085  0.1646
  484loPI   C1B 7741   7.208   0.725   9.604 -0.0838 -0.1568  0.1494
  484loPI   C2B 7742   7.237   0.499   9.199 -0.1711 -0.0054  0.2607
  484loPI   C3B 7743   7.500   0.250   8.891 -0.0819 -0.1136  0.1719
  484loPI   C4B 7744   7.403   0.161   8.529  0.0828 -0.0991  0.0713
  485loPI    C1 7745  12.731   4.023  10.760 -0.0852 -0.0497  0.0624
  485loPI    C2 7746  12.415   4.030  11.005  0.0119  0.0821  0.1851
  485loPI    C3 7747  12.786   4.046  11.155  0.0834 -0.2511  0.0527
  485loPI   PO4 7748  12.755   4.195  10.525  0.1389 -0.0128 -0.0363
  485loPI   GL1 7749  12.734   4.161  10.169  0.0552 -0.0169 -0.0645
  485loPI   GL2 7750  12.484   3.900  10.196  0.0575  0.1994  0.0035
  485loPI   C1A 7751  12.653   4.407   9.810  0.0982  0.1962  0.0309
  485loPI   C2A 7752  12.707   4.652   9.569  0.1468  0.1017  0.3360
  485loPI   C3A 7753  12.612   4.734   9.184 -0.0273  0.0824  0.1022
  485loPI   C4A 7754  12.476   4.689   8.762 -0.0673 -0.0218 -0.5040
  485loPI   C5A 7755  12.517   4.711   8.386  0.1166  0.1593 -0.2270
  485loPI   C6A 7756  12.266   5.036   8.158 -0.0518 -0.0438  0.0655
  485loPI   C1B 7757  12.329   4.028   9.707  0.0171 -0.1384  0.1414
  485loPI   C2B 7758  12.282   4.358   9.420 -0.1154  0.1000 -0.0367
  485loPI   C3B 7759  12.202   4.325   8.998  0.0853 -0.1979 -0.2410
  485loPI   C4B 7760  12.103   4.360   8.591  0.2105 -0.0009 -0.0736
  486loPI    C1 7761   8.134   5.717  11.029  0.0322 -0.2451 -0.1098
  486loPI    C2 7762   8.278   5.400  11.225 -0.2689 -0.0910  0.3786
  486loPI    C3 7763   8.367   5.769  11.350 -0.1678  0.0186 -0.0039
  486loPI   PO4 7764   8.200   5.765  10.752 -0.1665  0.0283 -0.4180
  486loPI   GL1 7765   8.313   5.619  10.431 -0.0224  0.0084  0.2513
  486loPI   GL2 7766   8.333   5.442  10.169 -0.0278  0.3159 -0.1283
  486loPI   C1A 7767   8.315   5.945  10.085 -0.1695  0.0070  0.1355
  486loPI   C2A 7768   8.356   5.956   9.673 -0.3553 -0.1939 -0.2136
  486loPI   C3A 7769   8.244   5.899   9.211 -0.1309 -0.0352 -0.5372
  486loPI   C4A 7770   8.321   5.855   8.751  0.1357 -0.4161  0.1210
  486loPI   C5A 7771   7.996   5.821   8.411  0.0068  0.3022  0.0280
  486loPI   C6A 7772   8.084   5.579   7.986 -0.2422  0.0880 -0.1325
  486loPI   C1B 7773   8.267   5.394   9.742 -0.1586 -0.1603 -0.0383
  486loPI   C2B 7774   8.309   5.374   9.300  0.1176 -0.0720 -0.1441
  486loPI   C3B 7775   8.416   5.388   8.905  0.0258 -0.1415 -0.1528
  486loPI   C4B 7776   8.453   5.427   8.410  0.1727  0.1973  0.2070
  487loPI    C1 7777  15.875  16.802  10.893 -0.1680  0.2310  0.0892
  487loPI    C2 7778  16.017  16.902  11.254 -0.1781  0.0463  0.1453
  487loPI    C3 7779  16.000  17.176  10.963  0.4584  0.0340  0.0835
  487loPI   PO4 7780  15.653  16.665  10.805  0.4887  0.1108  0.0928
  487loPI   GL1 7781  15.423  16.701  10.503  0.3287  0.0790 -0.1133
  487loPI   GL2 7782  15.223  16.855  10.344  0.2723 -0.1684  0.0355
  487loPI   C1A 7783  15.354  16.422  10.108  0.0336  0.0783  0.1643
  487loPI   C2A 7784  15.389  16.386   9.722  0.2314  0.0007 -0.0463
  487loPI   C3A 7785  15.264  16.509   9.405 -0.0165  0.3619  0.2068
  487loPI   C4A 7786  15.387  16.611   8.973 -0.5887  0.0422  0.0583
  487loPI   C5A 7787  15.328  16.595   8.518  0.3159  0.1171 -0.0336
  487loPI   C6A 7788  15.011  16.528   8.177  0.0242  0.1985 -0.2081
  487loPI   C1B 7789  15.448  16.974  10.050 -0.1638 -0.1571 -0.2918
  487loPI   C2B 7790  15.488  17.121   9.649  0.1078 -0.0391  0.1984
  487loPI   C3B 7791  15.475  17.096   9.219 -0.0956  0.1068 -0.1198
  487loPI   C4B 7792  15.460  17.047   8.761 -0.0489  0.3659  0.2164
  488loPI    C1 7793   7.011   3.986  10.587  0.0630  0.0342  0.2261
  488loPI    C2 7794   7.001   3.738  10.901  0.1476  0.0564  0.2468
  488loPI    C3 7795   6.764   4.061  10.893  0.0305 -0.0298  0.2154
  488loPI   PO4 7796   7.080   3.835  10.415  0.0410  0.1859 -0.0224
  488loPI   GL1 7797   7.323   3.551  10.214 -0.0848 -0.1909 -0.1774
  488loPI   GL2 7798   7.585   3.590  10.262 -0.0137 -0.2496  0.1804
  488loPI   C1A 7799   7.236   3.546   9.769 -0.0681 -0.0610 -0.1826
  488loPI   C2A 7800   7.212   3.455   9.384 -0.0817 -0.0559  0.3191
  488loPI   C3A 7801   7.179   3.404   8.993  0.2075  0.0657  0.0444
  488loPI   C4A 7802   7.230   3.461   8.558 -0.0966 -0.0200 -0.0114
  488loPI   C5A 7803   7.269   3.380   8.106  0.0880 -0.1632  0.1672
  488loPI   C6A 7804   7.147   3.095   7.853  0.0283  0.0447 -0.1912
  488loPI   C1B 7805   7.712   3.750   9.844  0.0576 -0.1879  0.1419
  488loPI   C2B 7806   7.668   3.690   9.360  0.0436 -0.1013  0.0169
  488loPI   C3B 7807   7.573   3.694   9.002 -0.0062 -0.0167 -0.0469
  488loPI   C4B 7808   7.659   3.701   8.515 -0.2113  0.2076 -0.2809
  489loPI    C1 7809  14.386   0.731  10.731  0.0670  0.0541 -0.0154
  489loPI    C2 7810  14.593   1.073  10.716  0.0894  0.0446  0.0720
  489loPI    C3 7811  14.320   1.017  11.004  0.0988 -0.0183  0.0688
  489loPI   PO4 7812  14.285   0.684  10.468  0.1058  0.1841 -0.3618
  489loPI   GL1 7813  14.270   0.707  10.032  0.0475 -0.2446 -0.0659
  489loPI   GL2 7814  14.388   0.491   9.903 -0.2193 -0.1406 -0.0469
  489loPI   C1A 7815  13.943   0.793   9.722  0.1351  0.0324 -0.4105
  489loPI   C2A 7816  14.011   0.788   9.293 -0.0877 -0.0948 -0.0729
  489loPI   C3A 7817  14.027   0.847   8.870  0.1158 -0.0688  0.2869
  489loPI   C4A 7818  13.922   0.700   8.424  0.2437  0.2630  0.4221
  489loPI   C5A 7819  13.954   0.644   8.044  0.1820 -0.0943 -0.0750
  489loPI   C6A 7820  14.141   0.687   7.674  0.3684  0.1093  0.1282
  489loPI   C1B 7821  14.292   0.428   9.473 -0.0144  0.0682  0.0375
  489loPI   C2B 7822  14.352   0.503   8.972  0.0324  0.1414 -0.4373
  489loPI   C3B 7823  14.435   0.558   8.568 -0.1787  0.1723  0.0208
  489loPI   C4B 7824  14.483   0.492   8.167  0.0524  0.0868 -0.0368
  490loPI    C1 7825   5.070  17.844  10.744  0.0860 -0.0389 -0.0586
  490loPI    C2 7826   4.698  17.779  10.612  0.1188  0.1296 -0.2386
  490loPI    C3 7827   4.789  17.710  10.995 -0.0764  0.0087 -0.2128
  490loPI   PO4 7828   5.103  18.027  10.609 -0.2771  0.2799  0.2771
  490loPI   GL1 7829   5.222  18.108  10.203 -0.1863  0.2230 -0.0789
  490loPI   GL2 7830   4.874  18.020  10.186  0.0752 -0.2220 -0.1074
  490loPI   C1A 7831   5.463  18.305   9.980 -0.3496 -0.1398  0.0733
  490loPI   C2A 7832   5.434  18.392   9.535 -0.2362 -0.0067  0.2714
  490loPI   C3A 7833   5.400  18.351   9.067 -0.2939  0.0270  0.0176
  490loPI   C4A 7834   5.598  18.466   8.803  0.5167  0.1949  0.3603
  490loPI   C5A 7835   5.807  18.517   8.409  0.0063  0.2430  0.2555
  490loPI   C6A 7836   6.093  18.657   8.091  0.0351  0.2361 -0.1134
  490loPI   C1B 7837   4.914  17.844   9.739 -0.3554  0.0634  0.0106
  490loPI   C2B 7838   4.843  17.851   9.246 -0.1149 -0.3683  0.0853
  490loPI   C3B 7839   4.847  17.760   8.825  0.3774 -0.0589  0.0143
  490loPI   C4B 7840   4.811  17.764   8.378 -0.3770  0.1944  0.3406
  491loPI    C1 7841   5.106   3.630  10.612 -0.2295  0.0042 -0.2175
  491loPI    C2 7842   4.856   3.917  10.490 -0.0934  0.2320  0.0284
  491loPI    C3 7843   4.936   3.875  10.880  0.1301  0.0605 -0.0344
  491loPI   PO4 7844   5.140   3.476  10.441  0.1398  0.2447 -0.0574
  491loPI   GL1 7845   5.004   3.638  10.017  0.0074  0.0052  0.0169
  491loPI   GL2 7846   4.880   3.845  10.023  0.1696  0.0775  0.1037
  491loPI   C1A 7847   5.107   3.436   9.627  0.1503 -0.2466 -0.1124
  491loPI   C2A 7848   5.135   3.525   9.246  0.1910  0.0651  0.0061
  491loPI   C3A 7849   5.428   3.452   8.826 -0.0969 -0.0303 -0.0744
  491loPI   C4A 7850   5.805   3.356   8.745 -0.2190 -0.0020  0.0857
  491loPI   C5A 7851   5.857   3.051   9.120  0.0620 -0.1460  0.1302
  491loPI   C6A 7852   6.137   2.776   9.373  0.1902 -0.0090 -0.1826
  491loPI   C1B 7853   4.974   3.951   9.584 -0.0339 -0.1122  0.0709
  491loPI   C2B 7854   5.027   4.050   9.114  0.0904 -0.2637  0.2953
  491loPI   C3B 7855   5.092   3.769   8.672 -0.1645 -0.0499 -0.0475
  491loPI   C4B 7856   5.142   3.912   8.278  0.0048 -0.2791  0.0430
  492loPI    C1 7857   7.993   1.208  10.513  0.0233  0.1291  0.1545
  492loPI    C2 7858   8.190   1.044  10.820  0.1957  0.1947  0.0805
  492loPI    C3 7859   7.834   1.217  10.879  0.1498  0.0568  0.2117
  492loPI   PO4 7860   7.923   1.003  10.263 -0.0976 -0.1656  0.1177
  492loPI   GL1 7861   8.117   1.146   9.926 -0.1787  0.2402 -0.1435
  492loPI   GL2 7862   8.251   0.910   9.917  0.1504  0.0458  0.1806
  492loPI   C1A 7863   7.954   1.321   9.638  0.0522 -0.2505 -0.1012
  492loPI   C2A 7864   7.906   1.199   9.297 -0.0533 -0.0553 -0.1261
  492loPI   C3A 7865   7.846   1.120   8.870  0.3830  0.2704 -0.3406
  492loPI   C4A 7866   7.783   0.938   8.469 -0.2641 -0.0605 -0.1101
  492loPI   C5A 7867   7.890   0.719   8.116 -0.1535 -0.0072  0.0738
  492loPI   C6A 7868   7.503   0.340   8.078 -0.3442 -0.2554  0.3630
  492loPI   C1B 7869   8.314   0.903   9.468  0.0750 -0.0907  0.1339
  492loPI   C2B 7870   8.322   0.927   9.040  0.0270  0.0847 -0.0933
  492loPI   C3B 7871   8.251   0.842   8.626 -0.1956 -0.1257  0.0226
  492loPI   C4B 7872   8.219   1.044   8.277 -0.2166 -0.3360  0.0038
  493loPI    C1 7873  10.848  14.550  10.491  0.0568 -0.0862  0.3274
  493loPI    C2 7874  11.162  14.687  10.697  0.0504  0.1496  0.1835
  493loPI    C3 7875  10.796  14.830  10.772  0.0143  0.0632  0.1727
  493loPI   PO4 7876  10.985  14.472  10.222 -0.2875  0.0056  0.3039
  493loPI   GL1 7877  11.102  14.707   9.793 -0.1626 -0.1569  0.2918
  493loPI   GL2 7878  11.383  14.703   9.716  0.3321  0.2739  0.2148
  493loPI   C1A 7879  11.024  15.098   9.592 -0.0746 -0.0586  0.2434
  493loPI   C2A 7880  10.849  15.149   9.183 -0.5566 -0.0371  0.1879
  493loPI   C3A 7881  10.824  15.137   8.780  0.0735 -0.1971 -0.0448
  493loPI   C4A 7882  10.752  15.069   8.377  0.0894  0.2003 -0.0233
  493loPI   C5A 7883  10.916  14.960   7.975  0.0017  0.1040  0.2812
  493loPI   C6A 7884  10.867  14.767   7.467  0.1667  0.1048 -0.5396
  493loPI   C1B 7885  11.255  14.788   9.255  0.2932  0.3097 -0.1787
  493loPI   C2B 7886  11.226  14.893   8.825 -0.4331  0.3976 -0.1755
  493loPI   C3B 7887  11.234  14.661   8.433 -0.1922  0.0805  0.0895
  493loPI   C4B 7888  11.461  14.536   8.024 -0.0130  0.0112 -0.1394
  494loPI    C1 7889  12.367  16.933  10.575  0.1422 -0.2507  0.0919
  494loPI    C2 7890  12.573  17.251  10.702 -0.0114 -0.1080 -0.0123
  494loPI    C3 7891  12.272  17.107  10.923 -0.0630 -0.0649 -0.0541
  494loPI   PO4 7892  12.266  16.999  10.348 -0.1198  0.0469 -0.3368
  494loPI   GL1 7893  12.503  17.080  10.015  0.1490  0.3936  0.0021
  494loPI   GL2 7894  12.737  17.120  10.158 -0.0076  0.0921  0.1309
  494loPI   C1A 7895  12.774  17.038   9.665 -0.0640 -0.0450  0.1959
  494loPI   C2A 7896  12.774  17.030   9.187 -0.0860 -0.1450 -0.2033
  494loPI   C3A 7897  12.635  17.009   8.759  0.0486 -0.1528  0.1246
  494loPI   C4A 7898  12.645  17.057   8.337 -0.3390 -0.3781  0.1782
  494loPI   C5A 7899  12.330  17.263   8.020  0.0678 -0.0523 -0.1749
  494loPI   C6A 7900  12.312  17.732   7.845  0.0016  0.0713 -0.2931
  494loPI   C1B 7901  12.726  17.469   9.880 -0.4743 -0.0317  0.0551
  494loPI   C2B 7902  12.840  17.518   9.392  0.2741  0.5613 -0.2061
  494loPI   C3B 7903  12.898  17.481   9.008  0.1756  0.0179  0.1356
  494loPI   C4B 7904  12.931  17.400   8.552  0.0620 -0.1639 -0.1318
  495loPI    C1 7905   2.441  13.639  11.295 -0.0308 -0.0735  0.0855
  495loPI    C2 7906   2.735  13.386  11.196  0.0479  0.0378  0.0320
  495loPI    C3 7907   2.447  13.269  11.447 -0.0133 -0.1631 -0.1282
  495loPI   PO4 7908   2.309  13.740  11.025 -0.0078 -0.1950 -0.0793
  495loPI   GL1 7909   2.448  13.715  10.653  0.2952  0.0903  0.0037
  495loPI   GL2 7910   2.667  13.475  10.665 -0.0962 -0.4013 -0.1146
  495loPI   C1A 7911   2.504  13.908  10.243 -0.1013  0.3214  0.0430
  495loPI   C2A 7912   2.290  13.969   9.816  0.0388 -0.0911  0.0427
  495loPI   C3A 7913   2.192  13.987   9.415 -0.4250  0.3032 -0.0392
  495loPI   C4A 7914   2.288  13.952   8.935 -0.2798 -0.0917 -0.0093
  495loPI   C5A 7915   2.495  13.631   8.600  0.0751 -0.1339 -0.0936
  495loPI   C6A 7916   2.914  13.689   8.326  0.0219 -0.0793 -0.0616
  495loPI   C1B 7917   2.770  13.479  10.257  0.4159  0.0430 -0.2372
  495loPI   C2B 7918   2.764  13.632   9.855 -0.0097  0.1278 -0.2140
  495loPI   C3B 7919   2.704  13.701   9.555  0.2270 -0.0469 -0.0547
  495loPI   C4B 7920   2.798  13.648   9.044  0.1660 -0.1507 -0.0072
  496loPI    C1 7921   7.209   4.702  10.548 -0.1548  0.1309  0.0473
  496loPI    C2 7922   6.843   4.837  10.635 -0.0547  0.2292  0.3271
  496loPI    C3 7923   6.964   4.483  10.777 -0.0820  0.1423  0.1368
  496loPI   PO4 7924   7.282   4.828  10.337  0.0618 -0.2538 -0.0471
  496loPI   GL1 7925   7.436   4.742  10.009 -0.1635 -0.3605 -0.0876
  496loPI   GL2 7926   7.296   4.506   9.881  0.1141 -0.2895  0.1665
  496loPI   C1A 7927   7.554   4.727   9.570 -0.0018 -0.1495 -0.0909
  496loPI   C2A 7928   7.608   4.780   9.230  0.1117 -0.0174  0.0401
  496loPI   C3A 7929   7.561   4.723   8.861  0.1705  0.2809  0.0603
  496loPI   C4A 7930   7.641   4.604   8.483 -0.2087 -0.5285 -0.1309
  496loPI   C5A 7931   7.824   4.693   8.154  0.0309  0.0126  0.1692
  496loPI   C6A 7932   8.086   5.015   7.964  0.1936  0.2131  0.2668
  496loPI   C1B 7933   7.225   4.390   9.386 -0.0312 -0.0621  0.1015
  496loPI   C2B 7934   7.125   4.377   8.947 -0.2028 -0.1554 -0.1723
  496loPI   C3B 7935   7.064   4.326   8.512 -0.0099 -0.2124  0.3407
  496loPI   C4B 7936   7.047   4.280   8.105  0.0480 -0.1456  0.2279
  497loPI    C1 7937  15.711  14.557  10.962  0.0126 -0.0865 -0.1144
  497loPI    C2 7938  15.530  14.208  11.034 -0.0263 -0.0557 -0.0618
  497loPI    C3 7939  15.496  14.508  11.296  0.1291 -0.0607 -0.0353
  497loPI   PO4 7940  15.664  14.602  10.787 -0.0041 -0.1463  0.0868
  497loPI   GL1 7941  15.791  14.760  10.391 -0.0010 -0.0691 -0.0745
  497loPI   GL2 7942  15.541  15.008  10.475 -0.0839  0.1138  0.0371
  497loPI   C1A 7943  15.859  14.750   9.925  0.0329 -0.0643 -0.1770
  497loPI   C2A 7944  15.976  14.822   9.460  0.1053  0.0791  0.1746
  497loPI   C3A 7945  15.774  14.783   8.989 -0.0794 -0.1525 -0.2111
  497loPI   C4A 7946  15.727  14.638   8.528 -0.1460  0.2288 -0.1668
  497loPI   C5A 7947  15.363  14.778   8.289 -0.1142 -0.0150 -0.3101
  497loPI   C6A 7948  14.894  14.843   8.330 -0.3824 -0.0834  0.1884
  497loPI   C1B 7949  15.454  15.037  10.038 -0.1043  0.1192  0.3927
  497loPI   C2B 7950  15.607  15.120   9.560  0.1693 -0.0469  0.2211
  497loPI   C3B 7951  15.463  15.157   9.061  0.2450  0.1964  0.2742
  497loPI   C4B 7952  15.516  15.211   8.659 -0.1674 -0.2745 -0.1344
  498loPI    C1 7953   9.342   0.267  10.783  0.2957 -0.0521 -0.1940
  498loPI    C2 7954   9.322   0.306  11.181 -0.3533 -0.2370 -0.1979
  498loPI    C3 7955   9.290   0.629  10.947  0.0887 -0.1202 -0.1060
  498loPI   PO4 7956   9.547   0.147  10.710  0.0037 -0.1062  0.0321
  498loPI   GL1 7957   9.467   0.177  10.305 -0.3954 -0.1053  0.2755
  498loPI   GL2 7958   9.843   0.111  10.240  0.1984 -0.0631 -0.0241
  498loPI   C1A 7959   9.464  -0.035   9.978 -0.2446  0.0126 -0.0797
  498loPI   C2A 7960   9.370   0.027   9.526  0.1438  0.2147  0.3001
  498loPI   C3A 7961   9.271  -0.181   9.210  0.1494 -0.1433  0.4427
  498loPI   C4A 7962   9.211  -0.185   8.684 -0.0812 -0.2944 -0.1019
  498loPI   C5A 7963   9.185  -0.147   8.170  0.0321  0.0325 -0.1301
  498loPI   C6A 7964   8.975  -0.057   7.869  0.3516 -0.1378 -0.0606
  498loPI   C1B 7965  10.128   0.150   9.963  0.2243  0.1006  0.4933
  498loPI   C2B 7966  10.221   0.060   9.493  0.1619 -0.0313 -0.3454
  498loPI   C3B 7967  10.156   0.059   9.045  0.2118  0.1715  0.0670
  498loPI   C4B 7968  10.089  -0.025   8.579 -0.2456  0.1247  0.2509
  499loPI    C1 7969   6.924  16.119  10.850 -0.0770  0.1824  0.1594
  499loPI    C2 7970   6.872  16.495  10.976 -0.2167  0.0917  0.3787
  499loPI    C3 7971   7.183  16.282  11.108  0.1514  0.2922 -0.1346
  499loPI   PO4 7972   6.866  16.163  10.538 -0.0210  0.0576  0.0175
  499loPI   GL1 7973   7.026  16.166  10.141 -0.0950  0.1572  0.2406
  499loPI   GL2 7974   7.219  16.508  10.165  0.0541  0.1467 -0.4565
  499loPI   C1A 7975   6.934  16.052   9.773 -0.1018 -0.4160  0.0817
  499loPI   C2A 7976   6.808  16.090   9.354  0.1534  0.1433  0.1818
  499loPI   C3A 7977   6.532  16.134   9.022 -0.2325 -0.0224  0.1018
  499loPI   C4A 7978   6.443  16.048   8.590 -0.0253  0.1135  0.5839
  499loPI   C5A 7979   6.611  15.773   8.235  0.1792 -0.1616  0.3307
  499loPI   C6A 7980   6.808  15.557   7.884 -0.2607 -0.1749  0.0186
  499loPI   C1B 7981   7.044  16.542   9.796 -0.0571  0.0385 -0.4522
  499loPI   C2B 7982   6.838  16.621   9.472 -0.1462  0.1417 -0.0493
  499loPI   C3B 7983   6.674  16.667   8.991 -0.2613  0.0420 -0.1552
  499loPI   C4B 7984   6.613  16.524   8.639  0.0568 -0.1060  0.1206
  500loPI    C1 7985  14.868   8.939  10.670 -0.2583  0.0579 -0.1078
  500loPI    C2 7986  14.579   8.994  10.942 -0.1121 -0.2218  0.1098
  500loPI    C3 7987  14.880   9.256  10.914 -0.2100 -0.1089  0.1105
  500loPI   PO4 7988  14.665   8.949  10.412 -0.0342 -0.0783 -0.1573
  500loPI   GL1 7989  14.826   8.898  10.005  0.0634  0.1656 -0.2410
  500loPI   GL2 7990  15.083   9.019   9.878  0.0338 -0.1551 -0.0605
  500loPI   C1A 7991  14.693   8.684   9.676 -0.0218 -0.1718  0.0205
  500loPI   C2A 7992  14.729   8.613   9.156 -0.1355 -0.0543 -0.2567
  500loPI   C3A 7993  14.712   8.711   8.619 -0.1160  0.2123  0.0668
  500loPI   C4A 7994  14.829   8.777   8.197 -0.1528 -0.2426 -0.1855
  500loPI   C5A 7995  15.189   8.800   8.035 -0.1362 -0.2110 -0.2887
  500loPI   C6A 7996  15.677   8.638   7.947  0.1075  0.0461  0.1222
  500loPI   C1B 7997  15.033   8.991   9.463 -0.1248 -0.1087 -0.2691
  500loPI   C2B 7998  15.046   8.959   9.009  0.3725 -0.1243 -0.1433
  500loPI   C3B 7999  15.090   9.036   8.508  0.0049  0.1812 -0.2823
  500loPI   C4B 8000  14.965   9.265   8.219 -0.0848 -0.2282 -0.1908
  501loPI    C1 8001   6.246   8.641  10.825 -0.0277  0.0511  0.1370
  501loPI    C2 8002   6.033   8.306  10.874 -0.1494  0.0989 -0.0557
  501loPI    C3 8003   6.433   8.289  10.862 -0.1641 -0.0937 -0.4445
  501loPI   PO4 8004   6.063   8.802  10.611  0.0282  0.0760 -0.0406
  501loPI   GL1 8005   5.899   9.085  10.307  0.0716  0.2795 -0.3135
  501loPI   GL2 8006   6.256   9.064  10.254  0.2605  0.0477 -0.0865
  501loPI   C1A 8007   5.771   9.109   9.884  0.0654  0.0418 -0.2810
  501loPI   C2A 8008   5.837   9.131   9.408  0.0951  0.1378 -0.1834
  501loPI   C3A 8009   5.845   9.122   8.944 -0.2091  0.1105 -0.1487
  501loPI   C4A 8010   5.989   9.031   8.572  0.0208 -0.2283  0.2645
  501loPI   C5A 8011   6.221   8.849   8.282  0.0575  0.1577  0.3819
  501loPI   C6A 8012   6.504   8.478   8.127  0.1933  0.0907 -0.0385
  501loPI   C1B 8013   6.242   8.970   9.858 -0.0360 -0.0831  0.2401
  501loPI   C2B 8014   6.301   8.982   9.437 -0.0692 -0.1362 -0.1632
  501loPI   C3B 8015   6.369   9.018   8.973 -0.0499  0.1484  0.0496
  501loPI   C4B 8016   6.521   9.237   8.572 -0.3876 -0.4815 -0.2119
  502loPI    C1 8017   3.985   3.711  10.510 -0.0195 -0.1328 -0.2060
  502loPI    C2 8018   3.686   3.602  10.752 -0.1095  0.2192 -0.1532
  502loPI    C3 8019   3.874   3.950  10.811  0.3186 -0.0006 -0.1817
  502loPI   PO4 8020   3.917   3.704  10.319 -0.2313 -0.0128  0.0208
  502loPI   GL1 8021   4.010   3.785   9.963  0.1127  0.1824  0.1686
  502loPI   GL2 8022   3.726   3.643   9.887  0.3313  0.3149  0.0323
  502loPI   C1A 8023   4.124   3.778   9.515  0.1165 -0.2172 -0.0124
  502loPI   C2A 8024   4.088   3.801   9.083 -0.3221 -0.0603 -0.0026
  502loPI   C3A 8025   4.073   4.023   8.782  0.0762  0.0661  0.1442
  502loPI   C4A 8026   3.876   4.208   8.483  0.0280  0.0849  0.0685
  502loPI   C5A 8027   3.528   4.427   8.295  0.2861 -0.4738  0.0747
  502loPI   C6A 8028   3.400   4.727   8.023  0.3161 -0.0056  0.2856
  502loPI   C1B 8029   3.577   3.595   9.466  0.2081  0.1453  0.3550
  502loPI   C2B 8030   3.695   3.569   9.031 -0.3499  0.2359  0.0723
  502loPI   C3B 8031   3.658   3.624   8.544 -0.0455  0.0537 -0.0215
  502loPI   C4B 8032   3.503   3.900   8.188 -0.0382  0.2538 -0.0430
  503loPI    C1 8033  14.845   0.027  10.838 -0.0027 -0.2687  0.1014
  503loPI    C2 8034  14.527   0.112  11.064  0.0255 -0.1035  0.0800
  503loPI    C3 8035  14.889   0.085  11.231  0.0292 -0.0974  0.0732
  503loPI   PO4 8036  14.751  -0.159  10.673 -0.0660  0.3333  0.0030
  503loPI   GL1 8037  14.488  -0.238  10.360 -0.0782  0.0209  0.4759
  503loPI   GL2 8038  14.781  -0.395  10.228 -0.0881  0.1170 -0.2213
  503loPI   C1A 8039  14.649   0.016   9.984 -0.0327 -0.0726 -0.1957
  503loPI   C2A 8040  14.723   0.124   9.560  0.0650  0.0367 -0.0373
  503loPI   C3A 8041  14.742   0.083   9.092 -0.0811  0.1256 -0.1557
  503loPI   C4A 8042  14.814   0.143   8.603  0.0686 -0.0650  0.2842
  503loPI   C5A 8043  15.010   0.226   8.185  0.0701 -0.1035 -0.3158
  503loPI   C6A 8044  15.459   0.343   8.135  0.0346  0.0360  0.1608
  503loPI   C1B 8045  14.623  -0.439   9.780 -0.0783 -0.0253 -0.1668
  503loPI   C2B 8046  14.647  -0.330   9.437  0.3556  0.3553 -0.0074
  503loPI   C3B 8047  14.690  -0.417   8.930  0.0570  0.2094  0.2116
  503loPI   C4B 8048  14.691  -0.371   8.527  0.1148 -0.5238 -0.0183
  504loPI    C1 8049  10.788  16.350  10.491  0.3120  0.1575 -0.0532
  504loPI    C2 8050  10.817  16.490  10.865  0.5801  0.0934 -0.0484
  504loPI    C3 8051  10.701  16.113  10.802 -0.1005  0.2912 -0.0595
  504loPI   PO4 8052  10.588  16.422  10.327 -0.1193 -0.3410 -0.1144
  504loPI   GL1 8053  10.421  16.726   9.963 -0.2211  0.0622 -0.3050
  504loPI   GL2 8054  10.168  16.514  10.015  0.0356 -0.1015  0.0583
  504loPI   C1A 8055  10.400  16.603   9.566  0.1258  0.2424  0.1350
  504loPI   C2A 8056  10.338  16.457   9.176  0.0629  0.0322 -0.1254
  504loPI   C3A 8057  10.267  16.417   8.784  0.1453  0.0095 -0.0635
  504loPI   C4A 8058  10.206  16.433   8.409  0.0565  0.0793 -0.0621
  504loPI   C5A 8059  10.412  16.620   8.086  0.0927 -0.3327 -0.1938
  504loPI   C6A 8060  10.726  16.829   7.822  0.1384  0.0798 -0.0471
  504loPI   C1B 8061  10.328  16.194   9.773 -0.0300  0.0692 -0.1658
  504loPI   C2B 8062  10.388  16.058   9.449  0.1075  0.0480 -0.0318
  504loPI   C3B 8063  10.385  15.947   9.071  0.0655 -0.2110  0.1467
  504loPI   C4B 8064  10.282  15.918   8.644  0.2729  0.2130  0.0531
  505loPI    C1 8065  10.054   0.967  10.593  0.0029  0.0108 -0.2427
  505loPI    C2 8066   9.734   1.073  10.808  0.0138 -0.0328 -0.2049
  505loPI    C3 8067  10.056   0.921  10.991  0.0690  0.0426 -0.2392
  505loPI   PO4 8068  10.024   1.196  10.385 -0.2023  0.2875 -0.1247
  505loPI   GL1 8069   9.824   1.257   9.935 -0.0020  0.2247  0.1602
  505loPI   GL2 8070   9.657   0.991   9.903  0.3012 -0.2408 -0.0594
  505loPI   C1A 8071   9.748   1.301   9.514  0.1998  0.1253  0.1103
  505loPI   C2A 8072   9.669   1.234   9.164  0.0424 -0.1059  0.2997
  505loPI   C3A 8073   9.668   1.213   8.717  0.0745  0.0287  0.0015
  505loPI   C4A 8074   9.792   1.224   8.205  0.2912  0.1154 -0.3335
  505loPI   C5A 8075  10.030   1.526   7.998 -0.0417  0.1411 -0.2830
  505loPI   C6A 8076  10.310   1.708   7.731  0.3537 -0.0874  0.0427
  505loPI   C1B 8077   9.745   0.803   9.476 -0.2748  0.2198  0.0322
  505loPI   C2B 8078   9.689   0.764   9.011 -0.0120  0.1316 -0.2555
  505loPI   C3B 8079   9.721   0.546   8.639 -0.0955 -0.0883  0.0329
  505loPI   C4B 8080   9.806   0.448   8.180  0.2282  0.1085 -0.0184
  506loPI    C1 8081  15.847  12.300  10.798 -0.0519 -0.1556 -0.0290
  506loPI    C2 8082  16.058  12.589  10.976 -0.0406 -0.1703 -0.0183
  506loPI    C3 8083  15.697  12.489  11.117 -0.2452  0.1537 -0.2967
  506loPI   PO4 8084  16.015  12.182  10.564 -0.2900  0.1197 -0.0602
  506loPI   GL1 8085  15.975  11.809  10.227  0.0216 -0.0044 -0.0339
  506loPI   GL2 8086  15.786  11.564  10.115 -0.0723 -0.1372 -0.0631
  506loPI   C1A 8087  16.139  11.902   9.809 -0.3103  0.2860 -0.0176
  506loPI   C2A 8088  16.212  12.017   9.449 -0.4470  0.2159 -0.0893
  506loPI   C3A 8089  16.217  12.049   9.007 -0.3320  0.0393  0.1418
  506loPI   C4A 8090  16.143  12.304   8.696 -0.0030 -0.1007 -0.4251
  506loPI   C5A 8091  16.129  12.677   8.475 -0.4878  0.1285  0.1416
  506loPI   C6A 8092  16.212  12.887   8.064 -0.1332 -0.0673  0.0192
  506loPI   C1B 8093  15.810  11.546   9.663 -0.0392 -0.0304  0.0563
  506loPI   C2B 8094  15.798  11.662   9.195  0.0755  0.0550  0.1678
  506loPI   C3B 8095  15.919  11.594   8.799  0.0346  0.0893  0.1174
  506loPI   C4B 8096  16.134  11.802   8.516 -0.0225  0.2041 -0.1923
  507loPI    C1 8097  10.809   4.634  10.604  0.0486 -0.2372 -0.1017
  507loPI    C2 8098  10.994   4.779  10.927 -0.0099  0.1570 -0.2387
  507loPI    C3 8099  10.668   4.550  10.968  0.0245  0.1454 -0.0184
  507loPI   PO4 8100  10.694   4.807  10.491 -0.1010  0.1812  0.2970
  507loPI   GL1 8101  10.490   5.132  10.273 -0.1489  0.1485 -0.0975
  507loPI   GL2 8102  10.325   4.883  10.167  0.1243  0.3421  0.3682
  507loPI   C1A 8103  10.670   5.059   9.865 -0.0035 -0.3197 -0.0441
  507loPI   C2A 8104  10.646   5.054   9.460 -0.2117  0.1096  0.1644
  507loPI   C3A 8105  10.768   5.069   9.072  0.0556 -0.0971  0.0946
  507loPI   C4A 8106  10.648   4.864   8.681 -0.3934  0.1853 -0.1191
  507loPI   C5A 8107  10.501   4.655   8.295  0.2285 -0.1046 -0.1851
  507loPI   C6A 8108  10.582   4.291   8.036 -0.3136  0.0803 -0.2874
  507loPI   C1B 8109  10.316   4.751   9.702  0.1381  0.1977 -0.1906
  507loPI   C2B 8110  10.457   4.526   9.392 -0.1435 -0.0802  0.3763
  507loPI   C3B 8111  10.780   4.511   9.049 -0.3520 -0.3528 -0.1816
  507loPI   C4B 8112  10.745   4.338   8.614 -0.1825 -0.3966 -0.0273
  508loPI    C1 8113   8.427   6.612  11.000  0.1531  0.1930 -0.1617
  508loPI    C2 8114   8.075   6.706  11.164  0.1248 -0.0210 -0.0969
  508loPI    C3 8115   8.414   6.854  11.318  0.0740  0.0655 -0.0674
  508loPI   PO4 8116   8.361   6.621  10.718 -0.0090  0.0446  0.3674
  508loPI   GL1 8117   8.639   6.658  10.333 -0.1593 -0.0720 -0.2177
  508loPI   GL2 8118   8.333   6.485  10.194 -0.2084  0.3881  0.2970
  508loPI   C1A 8119   8.614   6.781   9.904  0.1376  0.1026  0.0690
  508loPI   C2A 8120   8.606   6.709   9.378  0.1680 -0.0670 -0.0373
  508loPI   C3A 8121   8.546   6.681   8.973 -0.1211 -0.3566 -0.1124
  508loPI   C4A 8122   8.558   6.874   8.564 -0.0532  0.1389  0.0320
  508loPI   C5A 8123   8.270   7.073   8.191 -0.1813 -0.0959 -0.0991
  508loPI   C6A 8124   8.227   7.470   8.004  0.4914 -0.1973  0.1721
  508loPI   C1B 8125   8.276   6.449   9.667 -0.0182 -0.1346  0.0604
  508loPI   C2B 8126   8.141   6.462   9.197 -0.0396 -0.0742 -0.3708
  508loPI   C3B 8127   7.730   6.570   8.926 -0.1239 -0.0402 -0.0555
  508loPI   C4B 8128   7.257   6.741   9.027  0.0271 -0.1565  0.0387
  509loPI    C1 8129  14.585  13.303  10.729 -0.0945 -0.1496  0.0374
  509loPI    C2 8130  14.801  13.603  10.882 -0.1540 -0.0443 -0.0833
  509loPI    C3 8131  14.469  13.480  11.069 -0.1775  0.0238 -0.0800
  509loPI   PO4 8132  14.559  13.314  10.529  0.2167  0.2615  0.3679
  509loPI   GL1 8133  14.483  13.567  10.150  0.1394  0.0181  0.0283
  509loPI   GL2 8134  14.194  13.755  10.112 -0.2841 -0.0712  0.0928
  509loPI   C1A 8135  14.585  13.587   9.739  0.1301 -0.0241  0.0340
  509loPI   C2A 8136  14.698  13.511   9.316  0.0024 -0.1784 -0.0375
  509loPI   C3A 8137  14.832  13.423   8.915  0.2848  0.0212 -0.1766
  509loPI   C4A 8138  14.715  13.514   8.542  0.1541 -0.0815  0.0847
  509loPI   C5A 8139  14.543  13.690   8.203  0.1551  0.1200  0.1868
  509loPI   C6A 8140  14.217  13.903   8.242  0.1882  0.1021  0.0062
  509loPI   C1B 8141  14.137  13.800   9.573 -0.1066  0.0978 -0.1247
  509loPI   C2B 8142  14.343  13.826   9.231 -0.2031  0.1338 -0.3097
  509loPI   C3B 8143  14.443  13.900   8.714 -0.3654 -0.1585 -0.0212
  509loPI   C4B 8144  14.677  14.108   8.374  0.1810 -0.1218  0.0367
  510loPI    C1 8145   6.004  12.600  10.800 -0.3881  0.2776  0.1281
  510loPI    C2 8146   6.255  12.675  11.103 -0.1983 -0.0116  0.0463
  510loPI    C3 8147   5.980  12.385  11.137 -0.2081 -0.0125 -0.0402
  510loPI   PO4 8148   6.071  12.681  10.544  0.1064 -0.2048 -0.2588
  510loPI   GL1 8149   5.839  12.649  10.185  0.0804 -0.5229  0.2125
  510loPI   GL2 8150   5.432  12.715  10.228  0.1172 -0.2383 -0.1852
  510loPI   C1A 8151   5.575  12.508   9.714 -0.2850 -0.0450 -0.2045
  510loPI   C2A 8152   5.500  12.494   9.260  0.1895 -0.1577  0.0854
  510loPI   C3A 8153   5.560  12.727   8.888  0.0472 -0.0348  0.5346
  510loPI   C4A 8154   5.718  12.788   8.490 -0.0106  0.3393  0.0235
  510loPI   C5A 8155   5.922  13.107   8.302 -0.1500  0.0905  0.0267
  510loPI   C6A 8156   6.273  13.063   8.076 -0.1945 -0.0438  0.0235
  510loPI   C1B 8157   5.374  12.944   9.719 -0.2966  0.0488 -0.1332
  510loPI   C2B 8158   5.385  13.024   9.379  0.2283  0.0259  0.3427
  510loPI   C3B 8159   5.195  13.055   9.047 -0.0605 -0.3364 -0.1203
  510loPI   C4B 8160   4.954  13.146   8.683  0.0234  0.5086 -0.1025
  511loPI    C1 8161  13.882  13.828  10.937 -0.2457  0.0082  0.0565
  511loPI    C2 8162  13.589  13.560  10.989 -0.2235 -0.0255  0.0090
  511loPI    C3 8163  13.966  13.437  10.935 -0.2090  0.0162  0.0139
  511loPI   PO4 8164  13.771  13.967  10.712  0.2295  0.1769  0.0703
  511loPI   GL1 8165  13.776  13.996  10.287  0.1172  0.0451  0.1999
  511loPI   GL2 8166  13.474  14.028  10.169 -0.1689  0.1142 -0.1984
  511loPI   C1A 8167  13.769  13.653   9.991 -0.0490  0.1396 -0.2215
  511loPI   C2A 8168  13.711  13.650   9.606  0.2182  0.1128 -0.0641
  511loPI   C3A 8169  13.803  13.533   9.271 -0.1641  0.2171  0.1994
  511loPI   C4A 8170  13.792  13.276   8.888  0.0100  0.1217 -0.2060
  511loPI   C5A 8171  13.765  13.146   8.409  0.0421 -0.3046  0.1660
  511loPI   C6A 8172  13.801  13.046   7.991 -0.1836 -0.0636 -0.1235
  511loPI   C1B 8173  13.410  14.040   9.895  0.0016  0.3095 -0.0705
  511loPI   C2B 8174  13.173  14.074   9.574 -0.0186 -0.1803  0.0351
  511loPI   C3B 8175  13.250  14.038   9.118  0.2050 -0.2615 -0.1548
  511loPI   C4B 8176  13.487  13.809   8.753 -0.0353  0.0269 -0.2330
  512loPI    C1 8177   6.208  14.746  10.443 -0.2073 -0.1436 -0.1437
  512loPI    C2 8178   6.026  14.419  10.301 -0.0228 -0.2580 -0.1201
  512loPI    C3 8179   6.198  14.411  10.662 -0.0865 -0.1100 -0.0859
  512loPI   PO4 8180   6.387  14.797  10.253  0.0993  0.0178  0.2340
  512loPI   GL1 8181   6.297  15.006   9.961 -0.2500  0.1067  0.1169
  512loPI   GL2 8182   6.602  14.893   9.809  0.0827  0.0609  0.0263
  512loPI   C1A 8183   6.225  14.990   9.511  0.0022  0.1630  0.2025
  512loPI   C2A 8184   6.130  14.631   9.232  0.0987  0.0291  0.0634
  512loPI   C3A 8185   5.793  14.652   8.903 -0.0555 -0.1323  0.0323
  512loPI   C4A 8186   5.769  14.862   8.504  0.1084  0.2683 -0.0751
  512loPI   C5A 8187   6.132  15.098   8.311  0.1533 -0.1177 -0.1451
  512loPI   C6A 8188   6.449  15.304   8.136 -0.0083 -0.3070 -0.1651
  512loPI   C1B 8189   6.687  14.623   9.386  0.0391 -0.2248 -0.0000
  512loPI   C2B 8190   6.594  14.654   8.934  0.0126  0.0620  0.1709
  512loPI   C3B 8191   6.219  14.586   8.669  0.4434 -0.0325  0.2027
  512loPI   C4B 8192   6.166  14.362   8.359 -0.2519  0.0783  0.3602
  513loPI    C1 8193   5.284   0.340  11.038 -0.1801 -0.2339 -0.2751
  513loPI    C2 8194   5.671   0.431  11.077 -0.2220 -0.1110 -0.1355
  513loPI    C3 8195   5.394   0.655  11.259 -0.3494 -0.2953 -0.1001
  513loPI   PO4 8196   5.192   0.386  10.812 -0.0140  0.0390  0.0179
  513loPI   GL1 8197   4.870   0.333  10.477  0.1769  0.3720  0.0713
  513loPI   GL2 8198   4.795   0.570  10.309  0.1601  0.0977  0.2163
  513loPI   C1A 8199   4.455   0.197  10.271  0.1391  0.0884  0.1096
  513loPI   C2A 8200   4.416   0.106   9.842  0.2381 -0.0271 -0.1357
  513loPI   C3A 8201   4.436   0.102   9.419  0.2325 -0.2324 -0.0976
  513loPI   C4A 8202   4.417   0.030   8.990  0.0389 -0.1355  0.0354
  513loPI   C5A 8203   4.528   0.042   8.563 -0.0284 -0.1129  0.0078
  513loPI   C6A 8204   4.678   0.107   8.149  0.2026  0.0503 -0.1967
  513loPI   C1B 8205   4.843   0.389   9.963 -0.0735  0.2010  0.1426
  513loPI   C2B 8206   4.920   0.251   9.515  0.1971 -0.1284 -0.2904
  513loPI   C3B 8207   4.876   0.265   8.954  0.2685  0.3138  0.0486
  513loPI   C4B 8208   5.065   0.022   8.551 -0.0902  0.0428 -0.0741
  514loPI    C1 8209   7.527  16.143  10.348 -0.0392  0.1458  0.1151
  514loPI    C2 8210   7.732  15.869  10.555 -0.2435 -0.2208 -0.1573
  514loPI    C3 8211   7.385  16.009  10.697 -0.0157  0.0930  0.1044
  514loPI   PO4 8212   7.517  16.108  10.188 -0.0226  0.2206 -0.0851
  514loPI   GL1 8213   7.415  16.079   9.835 -0.0600  0.3854  0.0332
  514loPI   GL2 8214   7.317  15.748   9.820 -0.1022  0.0774  0.0732
  514loPI   C1A 8215   7.339  16.021   9.363  0.2770  0.0801 -0.2024
  514loPI   C2A 8216   7.277  15.925   8.968  0.1344  0.4158 -0.0894
  514loPI   C3A 8217   6.931  15.972   8.762  0.2077  0.1690  0.1449
  514loPI   C4A 8218   6.994  16.079   8.360 -0.0461  0.0653  0.0080
  514loPI   C5A 8219   6.659  16.288   8.189  0.1788  0.0728  0.0624
  514loPI   C6A 8220   6.360  16.671   8.137  0.2392 -0.0548 -0.0053
  514loPI   C1B 8221   7.228  15.536   9.538 -0.0563  0.0984  0.2090
  514loPI   C2B 8222   7.028  15.561   9.173 -0.0759  0.3126 -0.1579
  514loPI   C3B 8223   7.000  15.511   8.770  0.2396 -0.1576 -0.0934
  514loPI   C4B 8224   7.014  15.533   8.380 -0.1787  0.1511 -0.0331
  515loPI    C1 8225   3.704  10.460  10.455  0.1348  0.2695  0.1669
  515loPI    C2 8226   4.023  10.678  10.352  0.1795  0.1590  0.0694
  515loPI    C3 8227   3.982  10.549  10.729  0.2813  0.1214  0.0679
  515loPI   PO4 8228   3.633  10.393  10.152  0.1026  0.3187  0.4018
  515loPI   GL1 8229   3.671  10.395   9.742  0.1929  0.1117  0.1542
  515loPI   GL2 8230   4.077  10.359   9.957  0.4428  0.1263  0.1163
  515loPI   C1A 8231   3.669  10.480   9.305 -0.2701  0.1777  0.1434
  515loPI   C2A 8232   3.613  10.606   8.875  0.0863 -0.0950  0.3246
  515loPI   C3A 8233   3.552  10.557   8.418 -0.1961  0.0460  0.1147
  515loPI   C4A 8234   3.585  10.673   8.052 -0.0824  0.2794  0.1352
  515loPI   C5A 8235   3.430  10.517   7.620  0.0898 -0.0089  0.0936
  515loPI   C6A 8236   3.050  10.378   7.510 -0.3337  0.4481  0.1254
  515loPI   C1B 8237   4.086  10.125   9.575  0.0317 -0.0162 -0.2002
  515loPI   C2B 8238   4.054  10.099   9.103  0.1910 -0.0446  0.1413
  515loPI   C3B 8239   3.769  10.171   8.699 -0.2656 -0.0374  0.3227
  515loPI   C4B 8240   3.856   9.842   8.365 -0.3397  0.1146  0.0414
  516loPI    C1 8241  16.668   9.726  10.446 -0.2279  0.1559 -0.2340
  516loPI    C2 8242  16.768  10.099  10.550  0.0930  0.0131 -0.0141
  516loPI    C3 8243  16.531   9.881  10.788  0.0730  0.0055 -0.0407
  516loPI   PO4 8244  16.622   9.775  10.117  0.1375 -0.4422  0.0819
  516loPI   GL1 8245  16.844   9.622   9.837 -0.0309  0.0627 -0.0650
  516loPI   GL2 8246  16.778   9.281   9.803 -0.2509  0.2485 -0.0188
  516loPI   C1A 8247  16.706   9.856   9.500  0.0010 -0.1360 -0.3292
  516loPI   C2A 8248  16.694   9.943   9.153 -0.3171  0.3802  0.2358
  516loPI   C3A 8249  16.794   9.819   8.768  0.1442  0.0476 -0.2551
  516loPI   C4A 8250  16.955   9.731   8.324 -0.1914 -0.0474  0.1347
  516loPI   C5A 8251  17.143   9.696   7.939  0.0278 -0.0633 -0.1344
  516loPI   C6A 8252  17.563   9.483   7.830 -0.3152 -0.2903 -0.1966
  516loPI   C1B 8253  16.797   9.404   9.391  0.1795  0.1249  0.0713
  516loPI   C2B 8254  16.779   9.384   9.042  0.0375 -0.0633  0.4329
  516loPI   C3B 8255  17.072   9.343   8.714 -0.1380  0.1800  0.0759
  516loPI   C4B 8256  17.282   9.259   8.322 -0.0617  0.0038  0.1079
  517loPI    C1 8257   1.307  12.161  10.521 -0.2854 -0.0696 -0.0654
  517loPI    C2 8258   1.303  12.468  10.777 -0.3572 -0.0264 -0.1178
  517loPI    C3 8259   1.617  12.220  10.767 -0.3437 -0.0144 -0.0047
  517loPI   PO4 8260   1.244  12.266  10.312  0.3274 -0.1905 -0.1069
  517loPI   GL1 8261   1.305  12.370   9.913  0.1742 -0.0319  0.0857
  517loPI   GL2 8262   1.029  12.146   9.771 -0.1274 -0.1014  0.2767
  517loPI   C1A 8263   1.517  12.246   9.538 -0.2365 -0.2378  0.0775
  517loPI   C2A 8264   1.466  12.277   9.118 -0.2854  0.0901  0.2643
  517loPI   C3A 8265   1.467  12.325   8.671  0.1864  0.0754  0.3015
  517loPI   C4A 8266   1.679  12.578   8.420  0.1408 -0.2610  0.2739
  517loPI   C5A 8267   2.044  12.733   8.134  0.0249  0.0427 -0.0904
  517loPI   C6A 8268   2.307  12.944   8.139  0.1187 -0.0480 -0.0702
  517loPI   C1B 8269   0.967  12.148   9.323 -0.0180 -0.3050  0.0868
  517loPI   C2B 8270   0.933  12.199   8.955 -0.1038 -0.0307  0.0768
  517loPI   C3B 8271   0.926  12.028   8.608 -0.2617 -0.1350  0.0190
  517loPI   C4B 8272   0.786  11.873   8.203 -0.0178 -0.0836 -0.2022
  518loPI    C1 8273  15.708   9.141  10.502  0.0053  0.2205 -0.0190
  518loPI    C2 8274  15.358   9.155  10.695  0.0815  0.2760  0.1161
  518loPI    C3 8275  15.682   9.008  10.878  0.0340 -0.1852 -0.1552
  518loPI   PO4 8276  15.707   8.997  10.282  0.1969 -0.1786 -0.1613
  518loPI   GL1 8277  15.543   9.098  10.020  0.1333  0.0587  0.2502
  518loPI   GL2 8278  15.386   9.373  10.110  0.2199 -0.0994  0.2282
  518loPI   C1A 8279  15.437   9.206   9.614 -0.4529 -0.3014  0.1539
  518loPI   C2A 8280  15.291   9.306   9.186  0.0780  0.2147 -0.2077
  518loPI   C3A 8281  15.459   9.361   8.818 -0.1524 -0.2024 -0.1528
  518loPI   C4A 8282  15.563   9.228   8.436 -0.3844 -0.0519 -0.2849
  518loPI   C5A 8283  15.672   9.152   8.101  0.1909 -0.3617  0.0181
  518loPI   C6A 8284  15.460   8.970   7.603  0.2278 -0.2303  0.0615
  518loPI   C1B 8285  15.045   9.489   9.855  0.0288  0.1906 -0.2481
  518loPI   C2B 8286  14.892   9.542   9.412  0.0031  0.1311  0.4122
  518loPI   C3B 8287  14.914   9.588   9.008 -0.1906 -0.0323 -0.3522
  518loPI   C4B 8288  15.034   9.544   8.620 -0.0034 -0.0806 -0.0130
  519loPI    C1 8289   8.381   8.463  11.259  0.2604  0.0184  0.0285
  519loPI    C2 8290   8.618   8.213  11.463 -0.0370 -0.2423  0.0631
  519loPI    C3 8291   8.228   8.233  11.548 -0.0038  0.3089  0.1243
  519loPI   PO4 8292   8.426   8.426  10.963  0.3402 -0.0201  0.2512
  519loPI   GL1 8293   8.304   8.371  10.539 -0.0834  0.2401 -0.4212
  519loPI   GL2 8294   7.908   8.405  10.424 -0.0776  0.2927 -0.2217
  519loPI   C1A 8295   8.584   8.493  10.230 -0.0415  0.1302 -0.0607
  519loPI   C2A 8296   8.688   8.575   9.875  0.2409  0.4209  0.1674
  519loPI   C3A 8297   8.790   8.541   9.493 -0.0432  0.1748 -0.0729
  519loPI   C4A 8298   8.810   8.601   9.048  0.0625  0.0655  0.0220
  519loPI   C5A 8299   8.789   8.647   8.596  0.4108 -0.1992 -0.1723
  519loPI   C6A 8300   8.496   8.839   8.431 -0.0599 -0.1410 -0.2956
  519loPI   C1B 8301   8.200   8.313   9.959  0.0848 -0.0835  0.2143
  519loPI   C2B 8302   8.281   8.300   9.534 -0.1673 -0.2692  0.0918
  519loPI   C3B 8303   8.387   8.238   9.037  0.1564  0.0134 -0.1089
  519loPI   C4B 8304   8.204   8.132   8.757 -0.1464 -0.1977 -0.0854
  520loPI    C1 8305   5.294  15.379  10.935  0.1835 -0.1385 -0.1878
  520loPI    C2 8306   5.330  14.985  10.879  0.0490 -0.1998  0.1360
  520loPI    C3 8307   5.544  15.167  11.164 -0.2980 -0.1371  0.3625
  520loPI   PO4 8308   5.255  15.467  10.676 -0.1242 -0.0647 -0.0325
  520loPI   GL1 8309   5.221  15.407  10.286 -0.1631 -0.2379 -0.1107
  520loPI   GL2 8310   5.359  15.113  10.077  0.1419 -0.0928  0.0444
  520loPI   C1A 8311   4.987  15.700   9.977 -0.0622  0.0374  0.0176
  520loPI   C2A 8312   4.548  15.641   9.744 -0.2368 -0.0500  0.1434
  520loPI   C3A 8313   4.237  15.445   9.441 -0.0160  0.3969  0.0922
  520loPI   C4A 8314   4.135  15.582   9.041 -0.0227  0.0287  0.0653
  520loPI   C5A 8315   4.045  15.536   8.644 -0.0478 -0.0359  0.0832
  520loPI   C6A 8316   4.164  15.277   8.322  0.0321 -0.2819  0.2422
  520loPI   C1B 8317   5.194  15.324   9.722 -0.1535 -0.0876 -0.0233
  520loPI   C2B 8318   4.906  15.368   9.530 -0.3632 -0.2006  0.1465
  520loPI   C3B 8319   4.533  15.294   9.101 -0.0130  0.1407  0.0546
  520loPI   C4B 8320   4.550  15.344   8.684  0.0083  0.1423 -0.0425
  521loPI    C1 8321   4.387   1.258  10.662  0.2287 -0.1956 -0.1503
  521loPI    C2 8322   4.206   1.259  11.019 -0.0847  0.2298 -0.3003
  521loPI    C3 8323   4.596   1.173  10.992 -0.1039 -0.0155  0.1139
  521loPI   PO4 8324   4.340   1.452  10.555 -0.0091  0.2438 -0.1205
  521loPI   GL1 8325   4.296   1.471  10.184  0.0095  0.1767 -0.1320
  521loPI   GL2 8326   4.368   1.869  10.095 -0.1922 -0.0295  0.3952
  521loPI   C1A 8327   4.193   1.128   9.934  0.2006  0.1225  0.1792
  521loPI   C2A 8328   4.151   0.896   9.657  0.2042 -0.2220  0.1540
  521loPI   C3A 8329   4.110   0.865   9.283 -0.2501 -0.1030 -0.0677
  521loPI   C4A 8330   4.108   0.827   8.890 -0.0836  0.3023 -0.0926
  521loPI   C5A 8331   4.138   0.720   8.503 -0.0473  0.1221  0.1161
  521loPI   C6A 8332   3.945   0.687   8.159 -0.0727  0.2899 -0.2139
  521loPI   C1B 8333   4.413   1.991   9.742  0.3820  0.2215 -0.1351
  521loPI   C2B 8334   4.391   1.842   9.368 -0.0176 -0.2041 -0.0280
  521loPI   C3B 8335   4.388   1.894   8.896 -0.2294  0.1167  0.1607
  521loPI   C4B 8336   4.304   1.825   8.530 -0.4612  0.1838  0.1656
  522loPI    C1 8337   9.889   8.257  10.933  0.0088 -0.4134 -0.3177
  522loPI    C2 8338   9.514   8.159  11.030 -0.0988  0.2460 -0.0101
  522loPI    C3 8339   9.821   7.998  11.229 -0.2257 -0.0747 -0.0674
  522loPI   PO4 8340   9.925   8.344  10.701  0.0927  0.0461 -0.1177
  522loPI   GL1 8341   9.829   8.378  10.258  0.4267 -0.1668  0.0527
  522loPI   GL2 8342   9.686   8.179  10.149  0.0186  0.0148 -0.2420
  522loPI   C1A 8343   9.968   8.534   9.946  0.2471  0.0692  0.2570
  522loPI   C2A 8344  10.190   8.475   9.621 -0.0352  0.1306 -0.0478
  522loPI   C3A 8345  10.356   8.397   9.289  0.2353 -0.0494  0.0632
  522loPI   C4A 8346  10.516   8.436   8.947  0.3212  0.0527  0.1004
  522loPI   C5A 8347  10.640   8.402   8.574 -0.1189 -0.0219 -0.0220
  522loPI   C6A 8348  10.839   8.556   8.191  0.3128  0.1982  0.0357
  522loPI   C1B 8349   9.668   8.209   9.701  0.1629  0.0041 -0.0205
  522loPI   C2B 8350   9.818   8.317   9.287 -0.0248 -0.0373 -0.0177
  522loPI   C3B 8351   9.700   8.155   8.793 -0.0773 -0.0138 -0.2197
  522loPI   C4B 8352   9.708   8.309   8.421  0.1073  0.1151 -0.0139
  523loPI    C1 8353   5.674   9.274  10.835 -0.0454  0.1310  0.1185
  523loPI    C2 8354   5.563   8.935  10.654 -0.0543  0.0691  0.2391
  523loPI    C3 8355   5.328   9.258  10.634  0.1375  0.1896 -0.2094
  523loPI   PO4 8356   5.945   9.405  10.707 -0.0136 -0.0604  0.1299
  523loPI   GL1 8357   6.209   9.550  10.407 -0.3285 -0.0488 -0.0127
  523loPI   GL2 8358   6.575   9.603  10.469 -0.3399 -0.0545  0.1311
  523loPI   C1A 8359   6.132   9.468   9.965  0.1120  0.0312 -0.0725
  523loPI   C2A 8360   6.201   9.482   9.635 -0.0655 -0.1553  0.0705
  523loPI   C3A 8361   6.197   9.417   9.200 -0.1871 -0.1488  0.2661
  523loPI   C4A 8362   6.149   9.518   8.768  0.2656 -0.0629 -0.0051
  523loPI   C5A 8363   6.029   9.489   8.481  0.0833 -0.0660  0.1983
  523loPI   C6A 8364   6.146   9.306   8.139 -0.2912  0.1383  0.1951
  523loPI   C1B 8365   6.627   9.370  10.061  0.0589  0.0117  0.0978
  523loPI   C2B 8366   6.710   9.325   9.679  0.0725 -0.0174  0.0089
  523loPI   C3B 8367   6.809   9.309   9.206  0.0193 -0.0314  0.0266
  523loPI   C4B 8368   7.098   9.551   8.908  0.1514  0.0018  0.0487
  524loPI    C1 8369  10.713  17.853  11.072  0.0443  0.0014  0.0822
  524loPI    C2 8370  10.354  17.989  10.961  0.0812 -0.0121 -0.0547
  524loPI    C3 8371  10.553  18.168  11.258 -0.0125  0.0321 -0.0186
  524loPI   PO4 8372  10.802  17.797  10.754 -0.1827 -0.1419  0.1940
  524loPI   GL1 8373  10.661  17.744  10.346  0.0236 -0.2096 -0.3368
  524loPI   GL2 8374  10.826  17.426  10.197  0.0158  0.1196  0.0746
  524loPI   C1A 8375  10.747  17.818   9.900  0.0276  0.1769  0.4003
  524loPI   C2A 8376  10.718  17.731   9.495  0.4031  0.1863 -0.0418
  524loPI   C3A 8377  10.500  17.844   9.041 -0.0581  0.2012  0.0570
  524loPI   C4A 8378  10.601  17.749   8.712 -0.0128  0.1234  0.1246
  524loPI   C5A 8379  10.637  17.551   8.303 -0.1287 -0.1662 -0.0316
  524loPI   C6A 8380  10.472  17.212   8.121 -0.2641 -0.1401  0.0364
  524loPI   C1B 8381  10.565  17.291   9.745  0.2032  0.0664  0.2001
  524loPI   C2B 8382  10.713  17.215   9.315 -0.0976 -0.0081  0.1181
  524loPI   C3B 8383  10.727  17.202   8.928 -0.2852  0.1170  0.0686
  524loPI   C4B 8384  10.719  17.107   8.579  0.0923  0.0964  0.1081
  525loPI    C1 8385  15.580  12.930  10.912 -0.0269  0.0340  0.2159
  525loPI    C2 8386  15.392  12.726  10.625  0.2916 -0.2231  0.1854
  525loPI    C3 8387  15.233  12.748  10.991 -0.1014  0.0815  0.0031
  525loPI   PO4 8388  15.649  13.148  10.757 -0.1050 -0.0898 -0.1697
  525loPI   GL1 8389  15.579  13.194  10.327  0.2128 -0.1374 -0.0553
  525loPI   GL2 8390  15.347  13.045  10.191  0.0684 -0.0138  0.2645
  525loPI   C1A 8391  15.894  13.384   9.988  0.0287 -0.0505 -0.2431
  525loPI   C2A 8392  16.026  13.441   9.553  0.1832 -0.1652 -0.1007
  525loPI   C3A 8393  15.864  13.372   9.170 -0.1511 -0.1502  0.3450
  525loPI   C4A 8394  15.529  13.272   8.930  0.0849  0.0215  0.1021
  525loPI   C5A 8395  15.111  12.978   8.780  0.0561 -0.2668 -0.1820
  525loPI   C6A 8396  14.711  12.974   8.686  0.2677  0.1170  0.0116
  525loPI   C1B 8397  15.229  12.822   9.846  0.2156  0.1201 -0.0616
  525loPI   C2B 8398  15.204  12.881   9.322  0.3409 -0.0982  0.2461
  525loPI   C3B 8399  15.458  12.732   8.942  0.1892  0.1154  0.1175
  525loPI   C4B 8400  15.656  12.515   8.696 -0.0088  0.2722 -0.3228
  526loPI    C1 8401  12.235  15.066  10.772 -0.1285  0.2324  0.0372
  526loPI    C2 8402  12.156  14.684  10.858 -0.0075  0.2128  0.0633
  526loPI    C3 8403  11.952  14.975  11.040 -0.1313  0.1601  0.0099
  526loPI   PO4 8404  12.413  14.984  10.540 -0.2728  0.4083  0.0806
  526loPI   GL1 8405  12.626  15.240  10.253 -0.1250 -0.2406 -0.0505
  526loPI   GL2 8406  12.981  15.340  10.121 -0.1701 -0.0340  0.2526
  526loPI   C1A 8407  12.753  15.127   9.748  0.0308  0.3801 -0.1375
  526loPI   C2A 8408  12.757  15.157   9.349 -0.1954 -0.0763 -0.2309
  526loPI   C3A 8409  12.523  15.337   9.072  0.0901 -0.0460 -0.1717
  526loPI   C4A 8410  12.487  15.477   8.683  0.0572 -0.0531  0.2186
  526loPI   C5A 8411  12.707  15.620   8.295 -0.1053 -0.3863  0.3448
  526loPI   C6A 8412  12.922  15.713   7.881  0.3269  0.5437 -0.2260
  526loPI   C1B 8413  13.198  15.352   9.693  0.0166 -0.0443  0.0104
  526loPI   C2B 8414  13.363  15.358   9.232 -0.1947 -0.0423 -0.0604
  526loPI   C3B 8415  13.456  15.259   8.759  0.4501 -0.1585 -0.0206
  526loPI   C4B 8416  13.488  15.040   8.304  0.3305  0.0263  0.1090
  527loPI    C1 8417   3.613   8.450  11.178 -0.0606 -0.2771  0.0103
  527loPI    C2 8418   3.587   8.295  11.546 -0.2966  0.1651  0.1873
  527loPI    C3 8419   3.685   8.680  11.497  0.1655  0.0052 -0.2379
  527loPI   PO4 8420   3.699   8.259  11.019 -0.2354  0.1982 -0.3040
  527loPI   GL1 8421   3.672   8.275  10.623 -0.5660  0.0993 -0.0515
  527loPI   GL2 8422   3.891   8.100  10.467 -0.0834 -0.2414  0.0938
  527loPI   C1A 8423   3.500   8.282  10.187  0.0141 -0.2542  0.1283
  527loPI   C2A 8424   3.515   8.281   9.735 -0.0651  0.1427  0.3193
  527loPI   C3A 8425   3.564   8.254   9.224  0.1241 -0.4047 -0.0753
  527loPI   C4A 8426   3.716   8.334   8.803  0.1761  0.0976 -0.0070
  527loPI   C5A 8427   3.863   8.491   8.359  0.0040 -0.0643 -0.1240
  527loPI   C6A 8428   4.244   8.630   8.090  0.1035 -0.4236 -0.1834
  527loPI   C1B 8429   3.975   8.116  10.004  0.2517  0.0259  0.0461
  527loPI   C2B 8430   3.989   8.225   9.533  0.1268  0.2242 -0.2568
  527loPI   C3B 8431   4.133   8.217   9.149 -0.0267  0.1568  0.1999
  527loPI   C4B 8432   4.236   8.194   8.734 -0.2190 -0.0877 -0.0066
  528loPI    C1 8433  15.641   1.508  10.520 -0.1735 -0.0026  0.0936
  528loPI    C2 8434  15.975   1.288  10.510 -0.2487 -0.1120 -0.0466
  528loPI    C3 8435  15.854   1.452  10.854  0.1486  0.2386 -0.0664
  528loPI   PO4 8436  15.468   1.330  10.384 -0.2835 -0.0869  0.0051
  528loPI   GL1 8437  15.128   1.314  10.086 -0.0534 -0.3197  0.1881
  528loPI   GL2 8438  14.773   1.321   9.844 -0.4899  0.2264  0.0382
  528loPI   C1A 8439  15.418   1.299   9.747  0.0379  0.1012  0.2983
  528loPI   C2A 8440  15.464   1.236   9.307 -0.1448 -0.2031  0.2631
  528loPI   C3A 8441  15.506   1.241   8.969 -0.1637 -0.1503  0.2170
  528loPI   C4A 8442  15.549   1.256   8.514  0.2540  0.2488 -0.1382
  528loPI   C5A 8443  15.514   1.214   8.116  0.0132 -0.0664 -0.0288
  528loPI   C6A 8444  15.351   0.850   7.906  0.2334 -0.0126 -0.0713
  528loPI   C1B 8445  14.853   1.096   9.522  0.1227  0.0337 -0.1130
  528loPI   C2B 8446  15.034   1.075   9.125  0.1584 -0.0355  0.1406
  528loPI   C3B 8447  15.074   1.248   8.767  0.0411  0.1669 -0.0753
  528loPI   C4B 8448  15.153   1.554   8.457 -0.1520 -0.4282  0.2335
  529loPI    C1 8449  16.550   0.377  10.731  0.0413 -0.0132  0.1539
  529loPI    C2 8450  16.217   0.598  10.726 -0.0336 -0.1278  0.0256
  529loPI    C3 8451  16.298   0.366  11.041 -0.0429 -0.0513  0.0846
  529loPI   PO4 8452  16.516   0.273  10.486  0.0327 -0.0568  0.1321
  529loPI   GL1 8453  16.396   0.328  10.108 -0.1494  0.0757  0.1460
  529loPI   GL2 8454  16.533   0.043  10.009  0.0151  0.3725 -0.1628
  529loPI   C1A 8455  16.505   0.391   9.649  0.0340 -0.0596  0.1136
  529loPI   C2A 8456  16.609   0.269   9.288 -0.1185 -0.2617  0.1985
  529loPI   C3A 8457  16.646   0.245   8.866  0.0708 -0.1302  0.0094
  529loPI   C4A 8458  16.645   0.191   8.362 -0.1877 -0.0176  0.1397
  529loPI   C5A 8459  16.420   0.069   8.090 -0.1112 -0.0234  0.5283
  529loPI   C6A 8460  16.378  -0.268   7.903 -0.3171  0.2299 -0.1216
  529loPI   C1B 8461  16.533  -0.160   9.685 -0.0696 -0.0713  0.0623
  529loPI   C2B 8462  16.552  -0.255   9.217  0.2424 -0.1496  0.2989
  529loPI   C3B 8463  16.531  -0.235   8.800  0.1223 -0.2340 -0.1381
  529loPI   C4B 8464  16.524  -0.377   8.389 -0.1152  0.0521 -0.1447
  530loPI    C1 8465  14.916  11.543  10.770 -0.0475 -0.1233  0.0627
  530loPI    C2 8466  14.908  11.922  10.895  0.1840 -0.0947 -0.0049
  530loPI    C3 8467  14.876  11.624  11.159  0.0790 -0.0293  0.0566
  530loPI   PO4 8468  14.847  11.591  10.469  0.2223  0.1311  0.0002
  530loPI   GL1 8469  14.655  11.852  10.133 -0.2017 -0.1490 -0.0473
  530loPI   GL2 8470  14.956  11.886   9.892  0.1237  0.1402  0.0824
  530loPI   C1A 8471  14.576  11.739   9.666 -0.1334 -0.0035  0.1476
  530loPI   C2A 8472  14.540  11.526   9.298 -0.3374 -0.1758  0.0427
  530loPI   C3A 8473  14.477  11.654   8.881  0.0401 -0.0031 -0.0409
  530loPI   C4A 8474  14.634  11.736   8.461  0.2981 -0.0456  0.2146
  530loPI   C5A 8475  14.424  11.890   8.252 -0.0700  0.2206 -0.1143
  530loPI   C6A 8476  14.289  12.370   8.231  0.2174 -0.0230 -0.1306
  530loPI   C1B 8477  14.940  11.984   9.434  0.0528 -0.6046 -0.3311
  530loPI   C2B 8478  14.825  11.883   9.141 -0.1248 -0.1509  0.3193
  530loPI   C3B 8479  14.980  12.006   8.735  0.1588 -0.1338  0.1481
  530loPI   C4B 8480  15.116  12.043   8.313 -0.0535  0.1735  0.1102
  531loPI    C1 8481   0.693  12.472  10.839  0.2541  0.0323  0.1816
  531loPI    C2 8482   0.487  12.809  10.782 -0.1368 -0.2437 -0.0908
  531loPI    C3 8483   0.596  12.701  11.151 -0.4891 -0.0945  0.0617
  531loPI   PO4 8484   0.803  12.454  10.624 -0.2633 -0.1991  0.0255
  531loPI   GL1 8485   0.909  12.584  10.153 -0.2589 -0.0965 -0.0140
  531loPI   GL2 8486   0.598  12.460  10.106 -0.1147  0.1326 -0.0944
  531loPI   C1A 8487   0.947  12.659   9.698 -0.3415 -0.0207 -0.0600
  531loPI   C2A 8488   1.115  12.640   9.260 -0.0684 -0.0247  0.1394
  531loPI   C3A 8489   1.046  12.636   8.730 -0.2929 -0.4145  0.0346
  531loPI   C4A 8490   1.213  12.530   8.307  0.0413 -0.2992 -0.0111
  531loPI   C5A 8491   1.519  12.206   8.183  0.2797  0.0486  0.3074
  531loPI   C6A 8492   1.827  11.851   8.250  0.0270  0.1672 -0.3690
  531loPI   C1B 8493   0.583  12.374   9.639 -0.2070 -0.1238 -0.1319
  531loPI   C2B 8494   0.553  12.440   9.118  0.0178 -0.1004  0.2187
  531loPI   C3B 8495   0.511  12.513   8.727  0.1711 -0.0195 -0.2124
  531loPI   C4B 8496   0.705  12.426   8.363  0.0251  0.1165  0.2469
  532loPI    C1 8497   8.860   4.803  10.659 -0.1984 -0.0413 -0.0939
  532loPI    C2 8498   8.944   4.687  11.033  0.2991  0.1293 -0.1453
  532loPI    C3 8499   8.765   4.433  10.780  0.1644 -0.0634  0.1375
  532loPI   PO4 8500   9.019   4.868  10.562 -0.2990 -0.1631  0.1035
  532loPI   GL1 8501   9.139   5.065  10.168 -0.1902  0.3300 -0.1015
  532loPI   GL2 8502   8.713   5.085  10.109 -0.0242  0.0898 -0.1537
  532loPI   C1A 8503   9.393   5.058   9.685 -0.2975 -0.2137  0.0222
  532loPI   C2A 8504   9.334   5.056   9.275 -0.0064 -0.2216  0.3665
  532loPI   C3A 8505   9.314   4.977   8.832  0.1571  0.2215  0.0429
  532loPI   C4A 8506   9.323   4.663   8.456  0.0182  0.1403  0.5195
  532loPI   C5A 8507   8.983   4.546   8.157  0.1092 -0.0149  0.0452
  532loPI   C6A 8508   8.859   4.212   8.026  0.1065  0.0542  0.1769
  532loPI   C1B 8509   8.905   5.198   9.753 -0.0734 -0.1531 -0.0443
  532loPI   C2B 8510   8.875   5.248   9.298  0.0923  0.1218 -0.1270
  532loPI   C3B 8511   8.911   5.237   8.955  0.0294 -0.0722 -0.1943
  532loPI   C4B 8512   8.857   5.100   8.581  0.0639 -0.1618 -0.1632
  533loPI    C1 8513   8.005   2.834  10.607  0.2222  0.0481  0.0394
  533loPI    C2 8514   8.119   2.950  10.972 -0.0463 -0.2435  0.2208
  533loPI    C3 8515   7.730   2.925  10.883  0.0171  0.0121 -0.1506
  533loPI   PO4 8516   8.084   2.984  10.462 -0.2902  0.0187  0.1209
  533loPI   GL1 8517   7.838   3.218  10.055  0.1138 -0.1366 -0.0746
  533loPI   GL2 8518   7.775   2.865  10.052 -0.3441 -0.3557 -0.3234
  533loPI   C1A 8519   7.633   3.276   9.667  0.0016  0.0485 -0.3201
  533loPI   C2A 8520   7.657   3.216   9.196 -0.3124 -0.3273  0.0775
  533loPI   C3A 8521   7.671   3.253   8.791  0.0856  0.2540  0.3921
  533loPI   C4A 8522   7.676   3.264   8.326  0.4055  0.0865  0.0496
  533loPI   C5A 8523   7.654   2.969   8.012  0.1285  0.1721  0.2330
  533loPI   C6A 8524   7.933   2.704   7.994  0.3476  0.0004  0.1836
  533loPI   C1B 8525   7.631   2.618   9.754 -0.0653 -0.0229  0.1437
  533loPI   C2B 8526   7.622   2.619   9.300  0.1222  0.0049  0.1680
  533loPI   C3B 8527   7.798   2.650   8.882 -0.0087  0.0972  0.0777
  533loPI   C4B 8528   7.757   2.692   8.470 -0.2398 -0.0866 -0.1437
  534loPI    C1 8529  16.104  11.169  10.294 -0.0010  0.0477  0.0908
  534loPI    C2 8530  16.006  11.119  10.679 -0.2031 -0.1072  0.0212
  534loPI    C3 8531  16.183  11.458  10.560 -0.2349 -0.0148  0.2315
  534loPI   PO4 8532  16.254  10.943  10.267 -0.2015 -0.0125  0.1960
  534loPI   GL1 8533  16.296  10.654   9.807 -0.4266  0.4413 -0.3509
  534loPI   GL2 8534  16.157  10.491   9.615  0.4102 -0.0949 -0.1714
  534loPI   C1A 8535  16.522  10.908   9.507 -0.1483 -0.3126 -0.0415
  534loPI   C2A 8536  16.712  11.022   9.129 -0.0308 -0.2199 -0.1317
  534loPI   C3A 8537  16.713  10.842   8.745  0.2909  0.1851  0.1048
  534loPI   C4A 8538  17.055  10.693   8.411 -0.0521 -0.1035  0.1724
  534loPI   C5A 8539  17.443  10.694   8.422 -0.1272 -0.0914 -0.0804
  534loPI   C6A 8540  17.917  10.793   8.440  0.2591 -0.2420 -0.1445
  534loPI   C1B 8541  16.162  10.531   9.187  0.1876 -0.0886 -0.0462
  534loPI   C2B 8542  16.229  10.598   8.728 -0.1934  0.0505 -0.1896
  534loPI   C3B 8543  16.253  10.378   8.321 -0.0902 -0.0392 -0.1432
  534loPI   C4B 8544  16.319  10.178   7.981  0.0054 -0.3912 -0.2035
  535loPI    C1 8545   8.670   0.385  10.467 -0.1140  0.1704  0.0474
  535loPI    C2 8546   9.056   0.493  10.467 -0.0167 -0.1612 -0.1905
  535loPI    C3 8547   8.888   0.350  10.801  0.0451  0.0515 -0.0670
  535loPI   PO4 8548   8.624   0.355  10.221  0.0132 -0.0514  0.1488
  535loPI   GL1 8549   8.681   0.562   9.938 -0.0562  0.2144  0.3497
  535loPI   GL2 8550   8.733   0.802   9.767  0.1645 -0.1820 -0.1596
  535loPI   C1A 8551   8.350   0.430   9.588 -0.0733 -0.1952 -0.1540
  535loPI   C2A 8552   8.347   0.443   9.096 -0.0436 -0.1068 -0.2242
  535loPI   C3A 8553   8.357   0.367   8.727 -0.1302 -0.0124  0.0766
  535loPI   C4A 8554   8.248   0.106   8.379 -0.0447 -0.1188  0.2776
  535loPI   C5A 8555   8.269  -0.201   7.954 -0.1492 -0.1833  0.1453
  535loPI   C6A 8556   8.230  -0.562   7.862 -0.1073  0.1583  0.1000
  535loPI   C1B 8557   8.874   0.720   9.432  0.3977  0.2549 -0.0202
  535loPI   C2B 8558   8.805   0.651   9.005  0.2697 -0.0785 -0.0392
  535loPI   C3B 8559   8.834   0.626   8.569  0.1530  0.1141 -0.3167
  535loPI   C4B 8560   8.532   0.658   8.240 -0.0222  0.2157 -0.0012
  536loPI    C1 8561   2.769   2.897  10.978  0.2720 -0.1794  0.0791
  536loPI    C2 8562   2.741   3.039  11.351  0.1646 -0.0265  0.0136
  536loPI    C3 8563   2.428   2.853  11.184  0.1936 -0.0444 -0.0208
  536loPI   PO4 8564   3.093   2.969  10.885  0.1856 -0.1650 -0.0429
  536loPI   GL1 8565   3.099   2.847  10.457 -0.0607 -0.0776  0.3982
  536loPI   GL2 8566   3.438   2.781  10.200 -0.3111 -0.2967  0.0559
  536loPI   C1A 8567   3.059   3.040   9.978 -0.2420  0.1787 -0.0864
  536loPI   C2A 8568   3.135   2.932   9.590  0.0120  0.0633  0.2094
  536loPI   C3A 8569   3.142   2.790   9.114  0.0202 -0.0416 -0.2400
  536loPI   C4A 8570   3.125   2.702   8.608  0.0334  0.1640 -0.3860
  536loPI   C5A 8571   3.356   2.821   8.298  0.0361  0.0793  0.3206
  536loPI   C6A 8572   3.125   3.000   7.924  0.4476 -0.1875 -0.0614
  536loPI   C1B 8573   3.431   2.584   9.869 -0.0629  0.0171  0.0055
  536loPI   C2B 8574   3.519   2.613   9.390  0.0991  0.1860 -0.0254
  536loPI   C3B 8575   3.525   2.518   9.008  0.0066 -0.0399  0.2842
  536loPI   C4B 8576   3.561   2.501   8.597 -0.0890  0.0584 -0.2081
  537loPI    C1 8577   8.195   7.584  10.966  0.1266  0.0604 -0.1335
  537loPI    C2 8578   7.971   7.760  11.247  0.2091 -0.0157 -0.0192
  537loPI    C3 8579   8.309   7.933  11.124  0.1281  0.0609 -0.1357
  537loPI   PO4 8580   7.922   7.483  10.732  0.0333  0.0282  0.1067
  537loPI   GL1 8581   7.618   7.292  10.391 -0.0721 -0.0517 -0.1615
  537loPI   GL2 8582   7.879   7.357  10.213 -0.0241  0.0366  0.3241
  537loPI   C1A 8583   7.579   6.965  10.060  0.2677 -0.0770 -0.1140
  537loPI   C2A 8584   7.658   6.852   9.555 -0.3297 -0.2185 -0.1644
  537loPI   C3A 8585   7.628   7.104   9.130  0.3110  0.2871  0.1668
  537loPI   C4A 8586   7.567   6.986   8.672  0.4148 -0.0344 -0.0961
  537loPI   C5A 8587   7.437   6.741   8.225 -0.1902 -0.1473  0.1383
  537loPI   C6A 8588   7.243   6.293   8.204  0.0896 -0.2159  0.2192
  537loPI   C1B 8589   7.897   7.338   9.806  0.1700 -0.0719  0.2600
  537loPI   C2B 8590   7.971   7.442   9.368  0.0259  0.2367 -0.5151
  537loPI   C3B 8591   8.034   7.373   8.919 -0.1224  0.0159 -0.1381
  537loPI   C4B 8592   7.930   7.295   8.494  0.0980 -0.3474  0.0054
  538loPI    C1 8593  18.010   6.633  10.500 -0.0279  0.0330  0.0873
  538loPI    C2 8594  18.225   6.485  10.803  0.0602  0.3107  0.1632
  538loPI    C3 8595  17.833   6.548  10.848 -0.0204 -0.0895  0.0618
  538loPI   PO4 8596  18.088   6.838  10.468  0.2299  0.2202 -0.2504
  538loPI   GL1 8597  18.179   7.038  10.118  0.0755 -0.2830  0.2366
  538loPI   GL2 8598  18.487   7.026   9.900  0.0693  0.0327 -0.1531
  538loPI   C1A 8599  17.990   7.412  10.017  0.1261  0.0818  0.1123
  538loPI   C2A 8600  17.821   7.637   9.754  0.0797 -0.1052  0.0381
  538loPI   C3A 8601  17.660   7.706   9.333  0.0997 -0.1568  0.0604
  538loPI   C4A 8602  17.623   7.748   8.880 -0.0040  0.1522 -0.3383
  538loPI   C5A 8603  17.676   7.739   8.455  0.0245  0.1117  0.1397
  538loPI   C6A 8604  17.651   7.427   8.045 -0.0718  0.1171  0.0141
  538loPI   C1B 8605  18.461   7.141   9.616  0.1099  0.1782  0.0282
  538loPI   C2B 8606  18.548   7.278   9.126  0.0632  0.0337 -0.1337
  538loPI   C3B 8607  18.416   7.260   8.642 -0.0530 -0.3404 -0.4171
  538loPI   C4B 8608  18.105   7.345   8.278  0.2782 -0.5920  0.0118
  539loPI    C1 8609   3.067  18.084  11.032  0.2016 -0.0622 -0.2123
  539loPI    C2 8610   3.045  17.697  10.931 -0.0762 -0.0971 -0.0289
  539loPI    C3 8611   2.795  17.847  11.206  0.0434  0.2091 -0.0834
  539loPI   PO4 8612   3.325  18.130  11.045 -0.1839  0.2006 -0.1422
  539loPI   GL1 8613   3.583  17.994  10.715  0.0631  0.2580 -0.0283
  539loPI   GL2 8614   3.453  17.808  10.625 -0.0388  0.0455 -0.0548
  539loPI   C1A 8615   3.879  18.204  10.530  0.0937  0.1915  0.2176
  539loPI   C2A 8616   3.932  18.381  10.140 -0.0276 -0.3356 -0.1236
  539loPI   C3A 8617   4.008  18.522   9.750 -0.2773 -0.1513  0.0165
  539loPI   C4A 8618   4.026  18.453   9.278 -0.0331  0.0989  0.0045
  539loPI   C5A 8619   4.026  18.406   8.863 -0.0143 -0.1789 -0.0534
  539loPI   C6A 8620   4.012  18.373   8.509 -0.1194 -0.0665 -0.1830
  539loPI   C1B 8621   3.473  17.779  10.206 -0.1203  0.0360  0.2684
  539loPI   C2B 8622   3.551  17.755   9.748 -0.1896  0.1389  0.1711
  539loPI   C3B 8623   3.533  17.705   9.319  0.1473  0.1610  0.1643
  539loPI   C4B 8624   3.426  17.640   8.846 -0.0966 -0.0618 -0.1764
  540loPI    C1 8625   4.149   5.146  10.551 -0.1294  0.0004 -0.1197
  540loPI    C2 8626   3.786   5.102  10.714 -0.0132  0.0482  0.1571
  540loPI    C3 8627   4.031   5.390  10.845  0.1491 -0.0224  0.0137
  540loPI   PO4 8628   4.242   5.228  10.294  0.0587 -0.1293  0.0741
  540loPI   GL1 8629   4.510   5.513  10.095 -0.3993  0.0544  0.1373
  540loPI   GL2 8630   4.612   5.864  10.056  0.3011 -0.0512  0.1430
  540loPI   C1A 8631   4.670   5.294   9.754  0.0424 -0.1441 -0.0499
  540loPI   C2A 8632   4.670   5.212   9.374 -0.0018 -0.0021 -0.3190
  540loPI   C3A 8633   4.829   5.251   8.968  0.0013  0.1566  0.2274
  540loPI   C4A 8634   4.950   5.237   8.469  0.3187 -0.1722  0.0686
  540loPI   C5A 8635   5.153   5.154   8.211  0.4370  0.1343  0.1410
  540loPI   C6A 8636   5.594   5.144   8.189 -0.1194  0.2462  0.1027
  540loPI   C1B 8637   4.636   5.760   9.609 -0.0629 -0.2258  0.0315
  540loPI   C2B 8638   4.648   5.717   9.117  0.0944 -0.0593  0.2326
  540loPI   C3B 8639   4.747   5.781   8.673  0.1190  0.0310 -0.0993
  540loPI   C4B 8640   5.124   5.694   8.305 -0.2188 -0.0602  0.1244
  541POPI    C1 8641   4.386  15.773  10.696 -0.0310 -0.1755  0.0078
  541POPI    C2 8642   3.999  15.816  10.788 -0.0216 -0.1209  0.0219
  541POPI    C3 8643   4.208  15.511  10.941 -0.0594 -0.1515  0.0127
  541POPI   PO4 8644   4.461  15.966  10.667  0.4133  0.0438  0.3151
  541POPI   GL1 8645   4.643  16.108  10.285  0.2254 -0.1302 -0.1043
  541POPI   GL2 8646   4.456  16.394  10.142  0.1508  0.2129 -0.1090
  541POPI   C1A 8647   4.758  16.100   9.843  0.0384  0.2980  0.2688
  541POPI   D2A 8648   4.629  16.281   9.349  0.0159  0.3056  0.0018
  541POPI   C3A 8649   4.560  16.420   9.002  0.1051 -0.1515 -0.0096
  541POPI   C4A 8650   4.665  16.342   8.630 -0.1995 -0.3789  0.0477
  541POPI   C1B 8651   4.399  16.470   9.781 -0.0937 -0.2704 -0.3439
  541POPI   C2B 8652   4.223  16.588   9.332 -0.0419  0.0156 -0.2288
  541POPI   C3B 8653   4.015  16.553   8.950  0.1834  0.0771 -0.0670
  541POPI   C4B 8654   4.202  16.552   8.629 -0.1244  0.0339 -0.1659
  542POPI    C1 8655   1.555   9.060  10.687 -0.0264 -0.0284 -0.1794
  542POPI    C2 8656   1.344   8.744  10.813 -0.1256  0.1156  0.0217
  542POPI    C3 8657   1.163   9.037  10.610 -0.0510  0.0847 -0.0903
  542POPI   PO4 8658   1.831   8.982  10.557 -0.1182  0.0136 -0.2683
  542POPI   GL1 8659   2.146   9.192  10.277  0.3213  0.0416 -0.1275
  542POPI   GL2 8660   2.372   9.258  10.061 -0.0444  0.0771  0.2084
  542POPI   C1A 8661   1.993   8.901   9.938 -0.0477  0.3172  0.0839
  542POPI   D2A 8662   1.769   8.663   9.932 -0.1049 -0.2778 -0.0611
  542POPI   C3A 8663   1.305   8.755   9.801 -0.0666  0.1995  0.0915
  542POPI   C4A 8664   1.209   8.749   9.322  0.1519 -0.1783 -0.3409
  542POPI   C1B 8665   2.561   9.349   9.724  0.2679  0.1411  0.2954
  542POPI   C2B 8666   2.479   9.110   9.403  0.1309 -0.2287  0.1413
  542POPI   C3B 8667   2.109   8.892   9.390  0.1689  0.1411  0.0611
  542POPI   C4B 8668   1.716   8.622   9.287  0.0002  0.1254 -0.1189
  543POPI    C1 8669  14.596  16.909  11.193  0.1419 -0.0847  0.0206
  543POPI    C2 8670  14.269  17.055  11.372  0.0619  0.0274 -0.2128
  543POPI    C3 8671  14.516  16.811  11.572 -0.0939  0.0477  0.0065
  543POPI   PO4 8672  14.614  17.080  10.976 -0.1126 -0.0365  0.2827
  543POPI   GL1 8673  14.746  17.000  10.505 -0.0013 -0.1249 -0.0340
  543POPI   GL2 8674  14.759  17.193  10.195  0.0112 -0.1238  0.2173
  543POPI   C1A 8675  14.321  16.937  10.206  0.2970 -0.3466  0.1774
  543POPI   D2A 8676  13.983  16.990   9.888 -0.2099  0.2012 -0.1254
  543POPI   C3A 8677  14.153  17.012   9.494  0.1531 -0.3119  0.3133
  543POPI   C4A 8678  14.091  16.989   9.137  0.0280 -0.3635 -0.0378
  543POPI   C1B 8679  14.541  17.184   9.776 -0.0781 -0.1128  0.2032
  543POPI   C2B 8680  14.567  17.265   9.310 -0.0982 -0.1653 -0.1869
  543POPI   C3B 8681  14.557  17.162   8.952 -0.2745  0.1690 -0.1749
  543POPI   C4B 8682  14.297  16.891   8.655 -0.1720  0.1046 -0.1287
  544POPI    C1 8683  17.828   0.735  10.634 -0.1611 -0.1546  0.0460
  544POPI    C2 8684  17.703   1.113  10.675 -0.0754 -0.1325  0.1050
  544POPI    C3 8685  17.733   0.876  10.996  0.2351 -0.0739  0.1223
  544POPI   PO4 8686  17.700   0.583  10.364  0.0670 -0.0738  0.1252
  544POPI   GL1 8687  17.646   0.627   9.945  0.1247  0.2106 -0.0458
  544POPI   GL2 8688  17.440   0.366   9.933  0.1152 -0.3190 -0.3623
  544POPI   C1A 8689  17.726   0.576   9.526  0.0461 -0.0655 -0.1079
  544POPI   D2A 8690  17.591   0.625   9.127 -0.1517  0.0165  0.1772
  544POPI   C3A 8691  17.646   0.519   8.724 -0.2104 -0.3412  0.1836
  544POPI   C4A 8692  17.583   0.513   8.214 -0.2217  0.1680  0.0284
  544POPI   C1B 8693  17.484   0.085   9.609 -0.1624  0.2908 -0.2185
  544POPI   C2B 8694  17.597   0.076   9.161 -0.0270 -0.0706  0.2807
  544POPI   C3B 8695  17.423  -0.005   8.761 -0.0191 -0.0374 -0.0132
  544POPI   C4B 8696  17.435  -0.022   8.313  0.4176 -0.0521  0.1926
  545POPI    C1 8697   1.604   8.575  10.403 -0.1324 -0.0216 -0.0940
  545POPI    C2 8698   1.749   8.214  10.312  0.0743  0.0240  0.0479
  545POPI    C3 8699   1.979   8.480  10.502 -0.2388  0.0491  0.4029
  545POPI   PO4 8700   1.324   8.462  10.381  0.0376 -0.1107  0.3952
  545POPI   GL1 8701   1.242   8.263   9.937  0.0302  0.0228 -0.0069
  545POPI   GL2 8702   1.418   7.881  10.082  0.1159 -0.3032  0.2403
  545POPI   C1A 8703   1.465   8.299   9.643  0.0888 -0.1492  0.0829
  545POPI   D2A 8704   1.334   8.171   9.186 -0.0270  0.1727 -0.7498
  545POPI   C3A 8705   1.598   8.346   8.920  0.1609 -0.2631 -0.2343
  545POPI   C4A 8706   1.771   8.657   8.557  0.1808  0.0146 -0.0252
  545POPI   C1B 8707   1.393   7.764   9.666 -0.0571 -0.0079 -0.0634
  545POPI   C2B 8708   1.266   7.665   9.255  0.0177 -0.2311  0.0187
  545POPI   C3B 8709   1.054   7.390   9.085  0.1507 -0.0890  0.1096
  545POPI   C4B 8710   0.821   7.401   8.729 -0.2774  0.2253 -0.0460
  546POPI    C1 8711  16.663   3.666  10.257  0.1615  0.0711 -0.0012
  546POPI    C2 8712  16.922   3.918  10.084  0.1106  0.1046 -0.0292
  546POPI    C3 8713  16.813   3.974  10.465  0.0996  0.1244 -0.0352
  546POPI   PO4 8714  16.663   3.498  10.243 -0.1360  0.1313  0.0009
  546POPI   GL1 8715  16.635   3.255   9.837  0.2073 -0.1021 -0.0402
  546POPI   GL2 8716  16.685   3.603   9.767 -0.1933  0.1974 -0.1708
  546POPI   C1A 8717  16.751   3.197   9.453 -0.0029  0.3942  0.1042
  546POPI   D2A 8718  16.776   3.358   9.037  0.2269  0.3566  0.0145
  546POPI   C3A 8719  16.622   3.015   8.867  0.1627  0.1138 -0.3497
  546POPI   C4A 8720  16.288   2.862   8.577 -0.1555 -0.0709  0.1203
  546POPI   C1B 8721  16.911   3.728   9.282 -0.1143 -0.2998  0.2174
  546POPI   C2B 8722  17.004   3.751   8.891 -0.0545  0.0009  0.1896
  546POPI   C3B 8723  17.176   3.785   8.504 -0.2721 -0.0820 -0.1590
  546POPI   C4B 8724  17.139   3.549   8.133 -0.0276 -0.1168  0.0498
  547POPI    C1 8725   1.560   7.419  10.382 -0.1115  0.3542 -0.0889
  547POPI    C2 8726   1.301   7.122  10.450  0.1007  0.1256 -0.2584
  547POPI    C3 8727   1.352   7.410  10.724 -0.0339 -0.0472 -0.0477
  547POPI   PO4 8728   1.738   7.231  10.201  0.0745  0.2936 -0.0034
  547POPI   GL1 8729   1.724   7.281   9.835  0.2618 -0.1511  0.1415
  547POPI   GL2 8730   1.874   7.450   9.619  0.3615  0.0762  0.0786
  547POPI   C1A 8731   1.418   7.257   9.460  0.3086 -0.0214  0.1112
  547POPI   D2A 8732   1.333   6.857   9.321  0.1396 -0.0904  0.2115
  547POPI   C3A 8733   1.333   6.861   8.866 -0.1335  0.0543  0.0285
  547POPI   C4A 8734   1.437   6.852   8.510 -0.0726 -0.1177 -0.3751
  547POPI   C1B 8735   1.874   7.461   9.171  0.0398 -0.2603 -0.1158
  547POPI   C2B 8736   1.529   7.325   8.938  0.0327 -0.1547 -0.2942
  547POPI   C3B 8737   1.382   7.378   8.490  0.1439 -0.0234 -0.1312
  547POPI   C4B 8738   1.136   7.530   8.247 -0.1469  0.0440  0.0232
  548POPI    C1 8739  15.233  16.265  10.871  0.0313  0.0040  0.0447
  548POPI    C2 8740  15.343  16.489  11.184  0.0381 -0.0661  0.0926
  548POPI    C3 8741  15.400  16.093  11.191  0.0638 -0.0646 -0.0088
  548POPI   PO4 8742  15.007  16.320  10.798 -0.1334 -0.1119  0.0523
  548POPI   GL1 8743  14.929  16.453  10.460  0.1921 -0.1966 -0.1549
  548POPI   GL2 8744  14.568  16.358  10.343 -0.0568  0.0591 -0.2489
  548POPI   C1A 8745  14.750  16.681  10.031  0.1159 -0.1524 -0.1731
  548POPI   D2A 8746  15.028  16.885   9.707  0.0199  0.0164  0.0997
  548POPI   C3A 8747  14.942  16.852   9.258 -0.1343  0.0271 -0.2463
  548POPI   C4A 8748  14.914  16.877   8.728 -0.0621  0.1896 -0.1056
  548POPI   C1B 8749  14.924  16.234  10.017 -0.3084  0.2859 -0.0870
  548POPI   C2B 8750  14.825  16.276   9.625 -0.0498 -0.2084 -0.1527
  548POPI   C3B 8751  14.835  16.331   9.209 -0.1025  0.0507 -0.1384
  548POPI   C4B 8752  14.984  16.393   8.877  0.3382 -0.3047 -0.0215
  549POPI    C1 8753   4.644  12.239  11.037  0.0001  0.1733 -0.0294
  549POPI    C2 8754   5.030  12.133  11.033 -0.0653 -0.0717 -0.0200
  549POPI    C3 8755   4.926  12.508  11.126  0.1478 -0.1064  0.3779
  549POPI   PO4 8756   4.577  12.122  10.778 -0.0053 -0.1804  0.0874
  549POPI   GL1 8757   4.639  12.223  10.301 -0.1510 -0.1431 -0.0666
  549POPI   GL2 8758   4.661  12.186  10.037 -0.1153  0.1775  0.1767
  549POPI   C1A 8759   4.200  12.233   9.954  0.1168 -0.1463  0.0416
  549POPI   D2A 8760   3.880  12.283   9.649 -0.1396 -0.0879 -0.3573
  549POPI   C3A 8761   3.849  12.173   9.348 -0.2051 -0.0333  0.1438
  549POPI   C4A 8762   3.921  12.162   8.873 -0.1462  0.0713 -0.1556
  549POPI   C1B 8763   4.640  12.151   9.515 -0.0947 -0.2162  0.0028
  549POPI   C2B 8764   4.839  11.895   9.110 -0.1730  0.0004  0.0933
  549POPI   C3B 8765   4.781  11.648   8.761  0.0927  0.1593 -0.1259
  549POPI   C4B 8766   4.770  11.732   8.330  0.0736  0.0399 -0.1999
  550POPI    C1 8767   0.097  16.225  11.162 -0.2593 -0.1181  0.1263
  550POPI    C2 8768  -0.298  16.195  11.222 -0.2744 -0.0174  0.0795
  550POPI    C3 8769  -0.108  16.538  11.304 -0.2306 -0.0013 -0.0838
  550POPI   PO4 8770   0.129  16.157  10.969  0.2030 -0.0666  0.1110
  550POPI   GL1 8771   0.053  16.109  10.609  0.2152 -0.0547 -0.1091
  550POPI   GL2 8772   0.367  16.074  10.407 -0.2648 -0.1102  0.0897
  550POPI   C1A 8773  -0.147  16.010  10.204 -0.0974  0.1474 -0.3643
  550POPI   D2A 8774  -0.130  15.882   9.794 -0.1305 -0.1097  0.1013
  550POPI   C3A 8775  -0.144  15.928   9.369  0.1694  0.3071 -0.0214
  550POPI   C4A 8776  -0.121  15.985   8.926  0.2782 -0.1779 -0.1940
  550POPI   C1B 8777   0.347  16.061  10.073 -0.0130  0.0941  0.0468
  550POPI   C2B 8778   0.299  16.111   9.708 -0.1171  0.0636  0.0399
  550POPI   C3B 8779   0.335  16.147   9.228 -0.1216 -0.0542 -0.1184
  550POPI   C4B 8780   0.385  16.106   8.827  0.0493 -0.0019  0.0894
  551POPI    C1 8781  17.317   5.775  10.351 -0.3042 -0.2314  0.1801
  551POPI    C2 8782  17.140   6.083  10.534 -0.0709  0.0221 -0.0125
  551POPI    C3 8783  16.937   5.867  10.265 -0.2051  0.0670  0.0517
  551POPI   PO4 8784  17.493   5.834  10.233 -0.0744  0.1768  0.2600
  551POPI   GL1 8785  17.704   5.610   9.905  0.1050 -0.1691 -0.2585
  551POPI   GL2 8786  17.806   5.330   9.895 -0.1223 -0.1003 -0.0767
  551POPI   C1A 8787  17.588   5.730   9.458 -0.1316 -0.1113 -0.1813
  551POPI   D2A 8788  17.548   5.785   8.994 -0.1803 -0.2754  0.0755
  551POPI   C3A 8789  17.401   5.717   8.639 -0.3726 -0.1118 -0.1506
  551POPI   C4A 8790  17.671   5.649   8.255 -0.0519 -0.1167 -0.1711
  551POPI   C1B 8791  17.667   5.189   9.426  0.1753  0.4225  0.0217
  551POPI   C2B 8792  17.637   5.262   9.003  0.2362  0.0197  0.1373
  551POPI   C3B 8793  17.530   5.225   8.626 -0.1915 -0.1110  0.0430
  551POPI   C4B 8794  17.528   5.045   8.231 -0.0815  0.0380  0.1245
  552POPI    C1 8795   1.997   6.670  10.488 -0.1385 -0.0272 -0.0356
  552POPI    C2 8796   1.782   6.966  10.651 -0.2675 -0.1118 -0.0507
  552POPI    C3 8797   1.775   6.600  10.813  0.0696 -0.0548  0.1024
  552POPI   PO4 8798   2.172   6.754  10.413 -0.2263  0.4513  0.0824
  552POPI   GL1 8799   2.334   7.010  10.148  0.0077 -0.2400 -0.0699
  552POPI   GL2 8800   2.217   7.308   9.982 -0.0172 -0.2197  0.1110
  552POPI   C1A 8801   2.405   6.893   9.737  0.0582  0.0485  0.0344
  552POPI   D2A 8802   2.372   6.640   9.440  0.0805  0.1179  0.1437
  552POPI   C3A 8803   2.462   6.802   9.116 -0.2306  0.3131  0.1448
  552POPI   C4A 8804   2.514   7.002   8.784 -0.0217 -0.1737 -0.2670
  552POPI   C1B 8805   2.315   7.322   9.507  0.0196 -0.0295  0.0465
  552POPI   C2B 8806   2.330   7.299   9.164  0.3910  0.0459  0.0225
  552POPI   C3B 8807   2.116   7.254   8.735 -0.0918 -0.1257  0.2133
  552POPI   C4B 8808   1.906   7.278   8.302  0.0216  0.2041  0.1074
  553POPI    C1 8809   8.561  17.739  10.266  0.2058  0.3525  0.0797
  553POPI    C2 8810   8.605  17.686  10.660  0.1401 -0.0343  0.0389
  553POPI    C3 8811   8.904  17.593  10.411  0.0797 -0.0592 -0.0245
  553POPI   PO4 8812   8.534  17.952  10.240 -0.0684 -0.0088  0.0153
  553POPI   GL1 8813   8.280  18.188   9.971  0.2771  0.2999  0.2661
  553POPI   GL2 8814   8.166  17.838   9.920 -0.0186  0.0048 -0.1208
  553POPI   C1A 8815   8.451  18.006   9.585  0.0635  0.1016  0.0820
  553POPI   D2A 8816   8.449  17.985   9.185 -0.0131 -0.0927 -0.0687
  553POPI   C3A 8817   8.360  17.874   8.819 -0.0354  0.0774  0.3477
  553POPI   C4A 8818   8.241  17.602   8.437 -0.0602 -0.0856 -0.0372
  553POPI   C1B 8819   8.023  17.592   9.526 -0.0264 -0.0042  0.4122
  553POPI   C2B 8820   7.967  17.691   9.123 -0.3144  0.1447  0.1976
  553POPI   C3B 8821   7.875  17.494   8.710 -0.2503  0.3460  0.1083
  553POPI   C4B 8822   7.845  17.356   8.249  0.0779  0.2458  0.1442
  554POPI    C1 8823   3.480   3.454  10.332 -0.1727 -0.0684 -0.0694
  554POPI    C2 8824   3.216   3.411  10.630  0.0099  0.0396  0.1109
  554POPI    C3 8825   3.512   3.145  10.584 -0.0689 -0.0252 -0.0288
  554POPI   PO4 8826   3.274   3.551  10.151  0.1048 -0.0775 -0.5748
  554POPI   GL1 8827   3.156   3.459   9.678 -0.0546  0.3990 -0.1550
  554POPI   GL2 8828   3.040   3.761   9.835 -0.1226  0.1435  0.1589
  554POPI   C1A 8829   3.233   3.274   9.187 -0.1586 -0.1405 -0.1950
  554POPI   D2A 8830   3.270   3.241   8.749 -0.1334  0.1157 -0.0294
  554POPI   C3A 8831   3.153   3.352   8.422 -0.2243  0.3088 -0.0725
  554POPI   C4A 8832   3.206   3.516   8.049  0.0679 -0.4685 -0.0239
  554POPI   C1B 8833   2.727   3.709   9.522  0.0845 -0.1221  0.1210
  554POPI   C2B 8834   2.666   3.598   9.133  0.0956  0.3059  0.1389
  554POPI   C3B 8835   2.688   3.568   8.652 -0.0860 -0.2244  0.1636
  554POPI   C4B 8836   2.690   3.582   8.172  0.0724  0.1286  0.1265
  555POPI    C1 8837  10.765   8.771  10.643 -0.0526  0.0699 -0.0158
  555POPI    C2 8838  11.016   9.075  10.576  0.0289  0.0574  0.2220
  555POPI    C3 8839  10.651   9.147  10.721 -0.0886  0.0711 -0.0740
  555POPI   PO4 8840  10.799   8.668  10.312 -0.1467 -0.2102 -0.2362
  555POPI   GL1 8841  10.594   8.502   9.889 -0.0214 -0.0781  0.0754
  555POPI   GL2 8842  10.455   8.780   9.958 -0.0441  0.0418  0.0648
  555POPI   C1A 8843  10.955   8.499   9.752  0.1080  0.2519 -0.1014
  555POPI   D2A 8844  11.367   8.321   9.598 -0.1394 -0.1175 -0.0660
  555POPI   C3A 8845  11.362   8.269   9.185 -0.3410 -0.0278  0.0178
  555POPI   C4A 8846  11.605   8.527   8.923 -0.3429  0.1300 -0.0425
  555POPI   C1B 8847  10.644   8.811   9.537  0.3663  0.1903  0.0958
  555POPI   C2B 8848  10.958   8.592   9.300 -0.1521 -0.2071  0.1214
  555POPI   C3B 8849  11.003   8.511   8.933 -0.0805  0.4956  0.3278
  555POPI   C4B 8850  11.068   8.224   8.641 -0.2163  0.2770  0.2102
  556POPI    C1 8851   4.977   6.971  10.904 -0.0638 -0.0225 -0.0372
  556POPI    C2 8852   4.753   6.643  10.951  0.0278 -0.1014 -0.1476
  556POPI    C3 8853   4.780   6.911  11.247 -0.2084 -0.0930 -0.1321
  556POPI   PO4 8854   5.205   6.939  10.844 -0.2591 -0.0419  0.0084
  556POPI   GL1 8855   5.201   7.145  10.430 -0.0124  0.1297 -0.2812
  556POPI   GL2 8856   4.868   7.080  10.399  0.1191 -0.0020 -0.3374
  556POPI   C1A 8857   5.304   7.270  10.009  0.0592  0.1788 -0.0401
  556POPI   D2A 8858   5.022   7.393   9.603 -0.2932  0.1007  0.0048
  556POPI   C3A 8859   5.211   7.457   9.205 -0.0835  0.0969  0.0030
  556POPI   C4A 8860   5.268   7.392   8.888 -0.0869 -0.0750 -0.0464
  556POPI   C1B 8861   4.795   7.085  10.015 -0.1880 -0.3435  0.1187
  556POPI   C2B 8862   4.671   7.031   9.615  0.4034  0.1161 -0.1090
  556POPI   C3B 8863   4.771   7.050   9.166 -0.0719  0.0733  0.1540
  556POPI   C4B 8864   4.852   7.105   8.697  0.1357  0.1581 -0.0133
  557POPI    C1 8865   6.227  15.187  10.655  0.2656  0.0735 -0.0417
  557POPI    C2 8866   5.917  15.077  10.883  0.2051  0.0159 -0.1514
  557POPI    C3 8867   6.270  14.894  10.925  0.2625  0.1738  0.0684
  557POPI   PO4 8868   6.115  15.315  10.425  0.1800  0.0443  0.0968
  557POPI   GL1 8869   5.817  15.382  10.046 -0.4438 -0.0235  0.0911
  557POPI   GL2 8870   5.638  15.568   9.897  0.2520  0.2205 -0.2011
  557POPI   C1A 8871   5.759  15.160   9.671 -0.2378 -0.3559 -0.1494
  557POPI   D2A 8872   5.439  15.096   9.371 -0.0769  0.0929 -0.0606
  557POPI   C3A 8873   5.230  15.423   9.164  0.0895  0.3103 -0.1300
  557POPI   C4A 8874   4.971  15.528   8.797 -0.0596  0.0725  0.0730
  557POPI   C1B 8875   5.647  15.760   9.513  0.0571 -0.1029  0.0925
  557POPI   C2B 8876   5.659  15.673   9.096  0.0990 -0.2195 -0.0901
  557POPI   C3B 8877   5.454  15.777   8.673  0.0938  0.0391  0.1197
  557POPI   C4B 8878   5.279  15.741   8.291 -0.0596 -0.0184 -0.3689
  558POPI    C1 8879   8.173  17.400  10.785 -0.1142  0.0652  0.0500
  558POPI    C2 8880   7.859  17.459  11.026 -0.0292  0.0986  0.1531
  558POPI    C3 8881   8.172  17.245  11.154 -0.0836 -0.0811 -0.0110
  558POPI   PO4 8882   8.050  17.353  10.521 -0.3684  0.0446  0.0351
  558POPI   GL1 8883   8.111  17.361  10.127  0.2020 -0.0252  0.2466
  558POPI   GL2 8884   8.186  17.148   9.905 -0.3223  0.0266  0.3607
  558POPI   C1A 8885   7.740  17.372   9.887 -0.1137 -0.2040 -0.0227
  558POPI   D2A 8886   7.629  17.022   9.765 -0.1236  0.1630  0.1442
  558POPI   C3A 8887   7.647  16.866   9.377  0.1505  0.0172  0.1015
  558POPI   C4A 8888   7.554  16.783   8.916 -0.0763  0.2354  0.1321
  558POPI   C1B 8889   8.113  17.124   9.421  0.1300  0.2963  0.4201
  558POPI   C2B 8890   7.997  17.047   8.985  0.0045  0.1788  0.0402
  558POPI   C3B 8891   7.863  16.951   8.592 -0.1277  0.0276  0.0710
  558POPI   C4B 8892   8.175  17.014   8.263 -0.2237 -0.0277 -0.3676
  559POPI    C1 8893  12.547  13.061  10.351  0.0527 -0.0646 -0.2329
  559POPI    C2 8894  12.438  12.933  10.713 -0.0564  0.2119 -0.1652
  559POPI    C3 8895  12.771  12.791  10.543 -0.0551  0.0100  0.0012
  559POPI   PO4 8896  12.448  13.366  10.376  0.1934 -0.0166  0.1009
  559POPI   GL1 8897  12.399  13.605  10.028 -0.4482 -0.0719 -0.1044
  559POPI   GL2 8898  12.169  13.721   9.863 -0.1577 -0.2911  0.2098
  559POPI   C1A 8899  12.529  13.379   9.673 -0.1492 -0.2593 -0.0740
  559POPI   D2A 8900  12.348  13.298   9.333  0.1477 -0.0688 -0.0707
  559POPI   C3A 8901  12.493  13.281   8.936  0.1665  0.0451 -0.0780
  559POPI   C4A 8902  12.572  13.416   8.521 -0.1889 -0.0902 -0.0287
  559POPI   C1B 8903  12.258  13.870   9.473 -0.0346  0.0946  0.0010
  559POPI   C2B 8904  12.377  13.906   9.073 -0.0144 -0.0310  0.1588
  559POPI   C3B 8905  12.200  13.656   8.755 -0.0347  0.0342  0.2144
  559POPI   C4B 8906  12.163  13.616   8.297  0.2913 -0.1116 -0.2760
  560POPI    C1 8907  10.341  13.751  10.746 -0.2256 -0.2603 -0.2003
  560POPI    C2 8908  10.492  13.574  11.072 -0.2369 -0.2446 -0.1866
  560POPI    C3 8909  10.096  13.621  11.034 -0.2175  0.0671 -0.0410
  560POPI   PO4 8910  10.339  13.577  10.515  0.3022  0.3555 -0.0210
  560POPI   GL1 8911  10.206  13.488  10.101 -0.0261 -0.0709  0.1303
  560POPI   GL2 8912  10.023  13.730   9.969 -0.1695  0.0800 -0.0432
  560POPI   C1A 8913  10.395  13.279   9.847 -0.1174  0.2006 -0.0407
  560POPI   D2A 8914  10.693  13.200   9.477 -0.1768  0.1632  0.1551
  560POPI   C3A 8915  10.917  13.529   9.160 -0.2027 -0.1149  0.1076
  560POPI   C4A 8916  11.032  13.633   8.733  0.0066 -0.2108  0.0384
  560POPI   C1B 8917  10.045  13.544   9.615 -0.1081 -0.0151  0.1196
  560POPI   C2B 8918  10.134  13.351   9.322 -0.2222  0.2272  0.3080
  560POPI   C3B 8919  10.381  13.327   9.041  0.2885  0.2090  0.0084
  560POPI   C4B 8920  10.685  13.278   8.682 -0.2350  0.0821 -0.2097
  561POPI    C1 8921  16.644   0.817  10.931 -0.0722  0.0167 -0.1725
  561POPI    C2 8922  16.613   1.168  11.120  0.1915 -0.0119 -0.0718
  561POPI    C3 8923  16.482   0.833  11.296 -0.0251  0.0289 -0.1520
  561POPI   PO4 8924  16.809   0.870  10.777 -0.1204 -0.0737  0.1477
  561POPI   GL1 8925  16.882   0.657  10.428  0.1650 -0.2581  0.1968
  561POPI   GL2 8926  16.558   0.767  10.286 -0.0726  0.1093 -0.0827
  561POPI   C1A 8927  17.156   0.719  10.076  0.2733 -0.2160 -0.0450
  561POPI   D2A 8928  17.274   0.962   9.721 -0.5135 -0.1703 -0.0357
  561POPI   C3A 8929  17.156   0.913   9.265  0.1144 -0.1675 -0.1018
  561POPI   C4A 8930  17.192   0.858   8.835 -0.0103  0.2892  0.0434
  561POPI   C1B 8931  16.723   0.865   9.874 -0.1337 -0.2955 -0.1922
  561POPI   C2B 8932  16.688   0.784   9.440 -0.0259  0.0776  0.0605
  561POPI   C3B 8933  16.674   0.756   9.021 -0.0936 -0.3901  0.0361
  561POPI   C4B 8934  16.768   0.710   8.578 -0.2658  0.0011 -0.0480
  562POPI    C1 8935  15.059   2.487  10.060  0.0831 -0.2479  0.1993
  562POPI    C2 8936  15.078   2.615  10.439  0.0809  0.1230  0.0784
  562POPI    C3 8937  14.741   2.661  10.228  0.2101  0.2949 -0.0949
  562POPI   PO4 8938  15.258   2.588   9.976  0.1215  0.1077 -0.3848
  562POPI   GL1 8939  15.320   2.490   9.625  0.0300 -0.1004  0.1426
  562POPI   GL2 8940  15.604   2.357   9.645  0.2130  0.1168 -0.1399
  562POPI   C1A 8941  15.323   2.821   9.394  0.1770  0.2147  0.1867
  562POPI   D2A 8942  15.592   3.123   9.115  0.0434  0.0481  0.0116
  562POPI   C3A 8943  15.927   3.395   9.418 -0.1588  0.1488  0.0359
  562POPI   C4A 8944  16.366   3.499   9.354 -0.0376  0.3154  0.0714
  562POPI   C1B 8945  15.680   2.141   9.234  0.2489  0.1117 -0.0270
  562POPI   C2B 8946  15.624   2.183   8.769 -0.0674 -0.3118 -0.2749
  562POPI   C3B 8947  15.528   2.305   8.339 -0.1003  0.1519  0.0115
  562POPI   C4B 8948  15.298   2.184   7.987 -0.2822  0.1308  0.0376
  563POPI    C1 8949  13.801  10.157  10.588  0.0310 -0.0511  0.0889
  563POPI    C2 8950  13.644  10.058  10.942  0.1302 -0.1891  0.0952
  563POPI    C3 8951  14.041  10.071  10.896  0.1184  0.0196  0.0412
  563POPI   PO4 8952  13.596   9.959  10.433  0.1575 -0.1725 -0.0018
  563POPI   GL1 8953  13.631   9.697  10.150  0.0847  0.2703  0.0777
  563POPI   GL2 8954  13.545   9.980   9.976 -0.1144 -0.2159  0.1531
  563POPI   C1A 8955  13.669   9.435   9.824 -0.0988 -0.0409  0.3287
  563POPI   D2A 8956  13.583   9.478   9.506 -0.1296 -0.1514  0.1317
  563POPI   C3A 8957  13.609   9.551   9.098  0.0395  0.0134  0.0203
  563POPI   C4A 8958  13.597   9.575   8.682 -0.1171  0.0919  0.0678
  563POPI   C1B 8959  13.483   9.993   9.549  0.0115 -0.1584 -0.1909
  563POPI   C2B 8960  13.497  10.101   9.075  0.0103 -0.0333 -0.0145
  563POPI   C3B 8961  13.460  10.060   8.708 -0.1325  0.3941  0.3402
  563POPI   C4B 8962  13.582   9.878   8.287  0.2742 -0.2132 -0.0978
  564POPI    C1 8963  17.331   4.145  10.620 -0.1237 -0.0256 -0.1972
  564POPI    C2 8964  16.995   4.302  10.768 -0.0250  0.1547 -0.1609
  564POPI    C3 8965  17.143   3.963  10.922 -0.0404  0.2240  0.0087
  564POPI   PO4 8966  17.291   4.118  10.334  0.3193 -0.1520  0.0686
  564POPI   GL1 8967  17.220   4.267   9.902  0.3357 -0.0864 -0.0967
  564POPI   GL2 8968  17.584   4.157   9.895 -0.1703  0.1698 -0.0391
  564POPI   C1A 8969  16.994   4.297   9.499 -0.1211 -0.1933 -0.1041
  564POPI   D2A 8970  17.067   4.339   9.024 -0.1007  0.0202 -0.1873
  564POPI   C3A 8971  16.868   4.109   8.646 -0.1257 -0.2246 -0.1809
  564POPI   C4A 8972  16.733   3.896   8.304  0.1825 -0.1210  0.0164
  564POPI   C1B 8973  17.818   3.976   9.492  0.1684 -0.3027 -0.0880
  564POPI   C2B 8974  17.919   3.838   9.154  0.2786 -0.0813 -0.0290
  564POPI   C3B 8975  18.087   3.583   8.837  0.1525 -0.0142 -0.0855
  564POPI   C4B 8976  18.116   3.541   8.386 -0.1121 -0.3162  0.1083
  565POPI    C1 8977  10.797  14.025  10.391  0.3115  0.1501  0.0878
  565POPI    C2 8978  11.078  13.824  10.191  0.0702  0.0308 -0.1376
  565POPI    C3 8979  11.017  13.748  10.578  0.2824 -0.0099 -0.1107
  565POPI   PO4 8980  10.575  13.927  10.187  0.0428  0.0639 -0.1125
  565POPI   GL1 8981  10.523  13.682   9.746  0.0224 -0.0275  0.0326
  565POPI   GL2 8982  10.807  13.675   9.786 -0.0952  0.0442 -0.0991
  565POPI   C1A 8983  10.511  13.781   9.357  0.2567  0.3375 -0.1971
  565POPI   D2A 8984  10.554  13.868   8.922 -0.1217 -0.2298 -0.0728
  565POPI   C3A 8985  10.286  13.803   8.615  0.0585 -0.1387  0.3936
  565POPI   C4A 8986  10.236  13.482   8.421 -0.2482  0.1214 -0.1057
  565POPI   C1B 8987  10.998  13.921   9.456  0.0670  0.0659 -0.1206
  565POPI   C2B 8988  11.027  14.018   9.081 -0.1184 -0.1947 -0.1146
  565POPI   C3B 8989  11.057  14.113   8.668 -0.1696  0.1475  0.1686
  565POPI   C4B 8990  11.138  14.006   8.323  0.1454 -0.3679  0.1541
  566POPI    C1 8991  10.319   8.916  10.436 -0.2554 -0.0884  0.0862
  566POPI    C2 8992   9.935   8.804  10.448 -0.1914 -0.3168  0.0491
  566POPI    C3 8993  10.153   8.805  10.783 -0.2783  0.0128  0.1076
  566POPI   PO4 8994  10.340   9.165  10.308  0.1702 -0.1357 -0.1561
  566POPI   GL1 8995  10.179   9.509  10.105 -0.0147  0.0842  0.0020
  566POPI   GL2 8996   9.900   9.447  10.183 -0.0117  0.4705 -0.0914
  566POPI   C1A 8997  10.364   9.400   9.696 -0.1818  0.0416  0.0159
  566POPI   D2A 8998  10.494   9.245   9.315 -0.0670 -0.0970 -0.1218
  566POPI   C3A 8999  10.627   8.891   8.995 -0.1706  0.2181 -0.0141
  566POPI   C4A 9000  10.915   8.906   8.604  0.4625 -0.2369  0.2278
  566POPI   C1B 9001   9.876   9.545   9.676  0.0916  0.0507 -0.1163
  566POPI   C2B 9002   9.946   9.532   9.248  0.0475 -0.0187  0.2759
  566POPI   C3B 9003  10.180   9.330   8.902  0.4040  0.0788 -0.2140
  566POPI   C4B 9004  10.501   9.370   8.754 -0.3258 -0.1636  0.0231
  567POPI    C1 9005   4.257  15.067  10.685  0.0893 -0.0745 -0.1215
  567POPI    C2 9006   4.362  14.977  11.061 -0.0680  0.0380 -0.0499
  567POPI    C3 9007   4.272  14.685  10.804  0.1445 -0.0449 -0.0318
  567POPI   PO4 9008   4.435  15.225  10.591  0.1398 -0.1605  0.0043
  567POPI   GL1 9009   4.401  15.524  10.230  0.0417 -0.2162  0.1634
  567POPI   GL2 9010   4.694  15.283  10.113 -0.1850  0.0259  0.3443
  567POPI   C1A 9011   4.109  15.376   9.969  0.1656 -0.0821 -0.0141
  567POPI   D2A 9012   3.869  15.173   9.662  0.0232 -0.0134 -0.1213
  567POPI   C3A 9013   4.073  15.013   9.245 -0.1854  0.0520  0.0263
  567POPI   C4A 9014   4.079  15.122   8.867 -0.1093 -0.0826 -0.2413
  567POPI   C1B 9015   4.497  15.092   9.732  0.0186 -0.0462  0.0804
  567POPI   C2B 9016   4.497  14.770   9.369 -0.2211 -0.1757  0.2522
  567POPI   C3B 9017   4.397  14.760   8.912  0.1299  0.2461 -0.4108
  567POPI   C4B 9018   4.484  14.898   8.469 -0.1116  0.1146  0.0515
  568POPI    C1 9019  17.556   2.215  10.863  0.0363 -0.3209  0.1031
  568POPI    C2 9020  17.728   2.458  11.130 -0.0399  0.0206 -0.1524
  568POPI    C3 9021  17.764   2.061  11.169  0.3336  0.0747  0.1067
  568POPI   PO4 9022  17.420   2.317  10.799  0.2194 -0.2084  0.0903
  568POPI   GL1 9023  17.277   2.323  10.374 -0.0908 -0.1522 -0.3164
  568POPI   GL2 9024  17.004   2.244  10.243  0.3308  0.3057 -0.1652
  568POPI   C1A 9025  17.462   2.407   9.952 -0.0384  0.1650 -0.1864
  568POPI   D2A 9026  17.522   2.459   9.504  0.1786 -0.1168 -0.1070
  568POPI   C3A 9027  17.432   2.385   9.096 -0.0587 -0.0136  0.0897
  568POPI   C4A 9028  17.444   2.350   8.621 -0.7266 -0.2645 -0.0986
  568POPI   C1B 9029  16.781   2.029   9.947 -0.1892  0.3148  0.0023
  568POPI   C2B 9030  16.860   1.847   9.582  0.0605  0.0974 -0.0979
  568POPI   C3B 9031  16.967   1.768   9.236  0.0785  0.0627 -0.0094
  568POPI   C4B 9032  16.881   1.716   8.703 -0.1226 -0.1548 -0.5024
  569POPI    C1 9033   3.088   2.265  10.722 -0.2294  0.0345  0.3032
  569POPI    C2 9034   3.335   2.436  10.986 -0.0133  0.1518  0.0295
  569POPI    C3 9035   2.939   2.479  11.026  0.0136  0.1071  0.3731
  569POPI   PO4 9036   3.242   2.375  10.469 -0.0559  0.0304 -0.0981
  569POPI   GL1 9037   3.472   2.188  10.117 -0.1870  0.1404 -0.2208
  569POPI   GL2 9038   3.776   2.266  10.194 -0.2348 -0.1552  0.0600
  569POPI   C1A 9039   3.361   2.004   9.732  0.0835  0.1562  0.0231
  569POPI   D2A 9040   3.529   2.001   9.372  0.0800  0.0616  0.0567
  569POPI   C3A 9041   3.479   2.033   8.904 -0.2717  0.0607  0.1253
  569POPI   C4A 9042   3.469   2.022   8.505 -0.0490  0.2824  0.2315
  569POPI   C1B 9043   3.855   2.314   9.693  0.0029  0.0449 -0.2690
  569POPI   C2B 9044   4.025   2.202   9.265  0.1040 -0.4899  0.0645
  569POPI   C3B 9045   3.952   2.176   8.823  0.2301  0.0518  0.3291
  569POPI   C4B 9046   3.954   2.161   8.364  0.0255  0.4037  0.1059
  570POPI    C1 9047  11.264   3.644  10.633  0.2089  0.0767 -0.0021
  570POPI    C2 9048  11.100   3.757  10.980 -0.0837 -0.1011 -0.0788
  570POPI    C3 9049  11.389   3.978  10.814  0.0848 -0.0335  0.2941
  570POPI   PO4 9050  11.021   3.631  10.488 -0.0276  0.1155 -0.2699
  570POPI   GL1 9051  10.754   3.401  10.104  0.0365 -0.3332  0.0524
  570POPI   GL2 9052  10.717   3.119   9.973 -0.1950 -0.2394 -0.0198
  570POPI   C1A 9053  10.830   3.744   9.766  0.0324  0.3274 -0.1314
  570POPI   D2A 9054  10.742   4.063   9.430 -0.0048  0.2350 -0.0956
  570POPI   C3A 9055  10.769   3.880   8.976  0.2158 -0.0166  0.0239
  570POPI   C4A 9056  10.608   3.816   8.583  0.2253 -0.0294 -0.2418
  570POPI   C1B 9057  10.748   3.129   9.565 -0.1204 -0.0168  0.0929
  570POPI   C2B 9058  10.844   3.184   9.176  0.0022  0.1897 -0.0751
  570POPI   C3B 9059  10.899   3.303   8.681  0.1611 -0.0239  0.0677
  570POPI   C4B 9060  11.091   3.068   8.292  0.2681  0.1556  0.1017
  571POPI    C1 9061   5.455  13.576  10.729 -0.1404 -0.0954  0.1191
  571POPI    C2 9062   5.684  13.301  10.908 -0.0380  0.0180  0.1637
  571POPI    C3 9063   5.286  13.291  10.953 -0.0274 -0.0665  0.2420
  571POPI   PO4 9064   5.598  13.588  10.435  0.0476  0.4348 -0.0587
  571POPI   GL1 9065   5.555  13.447  10.046 -0.2277 -0.0522 -0.1777
  571POPI   GL2 9066   5.207  13.361   9.970  0.1602  0.0740  0.0489
  571POPI   C1A 9067   5.520  13.458   9.621 -0.1038 -0.1015 -0.0399
  571POPI   D2A 9068   5.668  13.703   9.191  0.1728  0.0458  0.0667
  571POPI   C3A 9069   5.770  13.759   8.859 -0.0389 -0.0542  0.0311
  571POPI   C4A 9070   5.897  13.522   8.585  0.1107  0.0163 -0.1908
  571POPI   C1B 9071   5.326  13.878   9.892 -0.0663  0.0166 -0.0595
  571POPI   C2B 9072   5.374  14.023   9.447 -0.0596  0.1538 -0.1102
  571POPI   C3B 9073   5.411  14.139   9.030 -0.0609  0.1437  0.0037
  571POPI   C4B 9074   5.350  14.435   8.670  0.0564  0.1105 -0.0480
  572POPI    C1 9075   3.844  14.392  10.903 -0.3485 -0.0776  0.0795
  572POPI    C2 9076   3.838  14.090  11.165 -0.1510 -0.1500  0.0022
  572POPI    C3 9077   4.159  14.327  11.140 -0.2430 -0.0295 -0.0465
  572POPI   PO4 9078   3.842  14.356  10.661  0.1799 -0.3201 -0.0882
  572POPI   GL1 9079   4.047  14.486  10.267  0.1289  0.0298 -0.1720
  572POPI   GL2 9080   4.409  14.342  10.318 -0.0081 -0.3752 -0.0219
  572POPI   C1A 9081   3.840  14.303   9.831  0.0820  0.0086  0.0219
  572POPI   D2A 9082   3.684  14.079   9.464  0.0011 -0.3567 -0.0410
  572POPI   C3A 9083   3.557  14.239   9.118  0.0768 -0.0347  0.0643
  572POPI   C4A 9084   3.203  14.294   8.797 -0.1388 -0.0833 -0.0946
  572POPI   C1B 9085   4.316  14.125   9.903  0.1288  0.0969 -0.0570
  572POPI   C2B 9086   4.388  14.274   9.446  0.0999 -0.0548 -0.0707
  572POPI   C3B 9087   4.355  14.271   9.007  0.1249 -0.1038 -0.1896
  572POPI   C4B 9088   4.414  14.033   8.623  0.0848  0.1478  0.2688
  573POPI    C1 9089   6.547   4.351  10.526 -0.2459  0.0397 -0.0378
  573POPI    C2 9090   6.182   4.328  10.686 -0.1651  0.2013  0.1754
  573POPI    C3 9091   6.486   4.471  10.902 -0.0265  0.3038 -0.0826
  573POPI   PO4 9092   6.518   4.490  10.310  0.1849 -0.1764 -0.1054
  573POPI   GL1 9093   6.763   4.516   9.789 -0.1367  0.1749 -0.0085
  573POPI   GL2 9094   6.611   4.284   9.828 -0.0136 -0.1479  0.2364
  573POPI   C1A 9095   6.669   4.442   9.380 -0.2897  0.1583 -0.0756
  573POPI   D2A 9096   6.695   4.148   9.168 -0.0332  0.3154 -0.0264
  573POPI   C3A 9097   6.494   4.069   8.751 -0.1406  0.0703 -0.1859
  573POPI   C4A 9098   6.747   3.993   8.353  0.1469 -0.1048  0.1101
  573POPI   C1B 9099   6.386   4.074   9.604 -0.1752 -0.3128 -0.0701
  573POPI   C2B 9100   6.344   3.743   9.348  0.2206  0.0573  0.1046
  573POPI   C3B 9101   6.163   3.441   9.124  0.0851  0.0745 -0.2605
  573POPI   C4B 9102   6.303   3.188   8.757  0.0419 -0.1149  0.2285
  574DPPI    C1 9103  17.667  10.015  10.785 -0.2684 -0.3744  0.0587
  574DPPI    C2 9104  17.738   9.741  11.068 -0.0626  0.0179  0.3966
  574DPPI    C3 9105  17.468  10.029  11.132  0.0303  0.1464  0.2186
  574DPPI   PO4 9106  17.630   9.977  10.543  0.1483 -0.0371  0.1126
  574DPPI   GL1 9107  17.832   9.806  10.032 -0.0159 -0.1216 -0.1967
  574DPPI   GL2 9108  17.933   9.484  10.133  0.1981 -0.0824 -0.1074
  574DPPI   C1A 9109  17.953   9.774   9.589 -0.1326  0.0646 -0.0728
  574DPPI   C2A 9110  18.206   9.396   9.301 -0.1206 -0.1154 -0.0836
  574DPPI   C3A 9111  18.367   9.034   9.304  0.3507 -0.1955  0.0647
  574DPPI   C4A 9112  18.481   8.548   9.145  0.1086 -0.1201  0.2073
  574DPPI   C1B 9113  18.251   9.446   9.831 -0.1592 -0.0784 -0.0060
  574DPPI   C2B 9114  18.643   9.244   9.792 -0.1451 -0.1981  0.3251
  574DPPI   C3B 9115  19.112   9.170   9.709 -0.3275  0.0861 -0.1902
  574DPPI   C4B 9116  19.434   9.478   9.914 -0.3728 -0.2581  0.2130
  575DPPI    C1 9117   3.457  13.714  11.115  0.1964 -0.0157  0.0995
  575DPPI    C2 9118   3.260  13.510  11.398 -0.2072 -0.0944 -0.2292
  575DPPI    C3 9119   3.277  13.909  11.414 -0.0283 -0.1105  0.0285
  575DPPI   PO4 9120   3.325  13.575  10.923 -0.0862  0.0195  0.0225
  575DPPI   GL1 9121   3.123  13.694  10.609 -0.2899  0.0637 -0.1171
  575DPPI   GL2 9122   3.285  13.423  10.419  0.1612  0.0956  0.3534
  575DPPI   C1A 9123   3.088  13.843  10.217  0.1804 -0.3780 -0.3185
  575DPPI   C2A 9124   3.206  13.829   9.708 -0.0559 -0.0241 -0.2577
  575DPPI   C3A 9125   3.193  13.921   9.306 -0.0443  0.0332  0.2595
  575DPPI   C4A 9126   3.208  13.816   8.846  0.0344  0.1917  0.2845
  575DPPI   C1B 9127   3.195  13.332   9.960 -0.1424 -0.1166 -0.3567
  575DPPI   C2B 9128   3.121  13.361   9.480  0.0774  0.1316 -0.0301
  575DPPI   C3B 9129   3.114  13.325   8.996 -0.1215 -0.0629 -0.2725
  575DPPI   C4B 9130   2.893  13.329   8.621 -0.1468 -0.2892 -0.3625
  576DPPI    C1 9131   1.937  10.423  10.448 -0.2120 -0.2476 -0.0331
  576DPPI    C2 9132   2.193  10.269  10.713 -0.1518 -0.0422  0.0299
  576DPPI    C3 9133   1.971  10.026  10.486  0.0157 -0.2210  0.0542
  576DPPI   PO4 9134   2.055  10.654  10.351  0.0228 -0.0970  0.3359
  576DPPI   GL1 9135   2.232  10.634   9.935 -0.1996 -0.0174  0.0146
  576DPPI   GL2 9136   2.022  10.420   9.880  0.2280  0.0283 -0.1258
  576DPPI   C1A 9137   2.480  10.479   9.605  0.1573  0.1883 -0.0052
  576DPPI   C2A 9138   2.518  10.320   9.109 -0.4697  0.1688 -0.3035
  576DPPI   C3A 9139   2.829  10.206   8.784 -0.1328 -0.1339  0.0387
  576DPPI   C4A 9140   2.748  10.094   8.331  0.0923 -0.0241 -0.0377
  576DPPI   C1B 9141   2.067  10.179   9.512 -0.5350  0.1446 -0.3171
  576DPPI   C2B 9142   1.791  10.113   9.163 -0.1263 -0.0044  0.1589
  576DPPI   C3B 9143   1.870  10.173   8.682  0.3121 -0.0121 -0.1110
  576DPPI   C4B 9144   2.349  10.247   8.630 -0.2330 -0.0049  0.0796
  577DPPI    C1 9145   5.503   4.499  10.303 -0.0660  0.0378  0.0729
  577DPPI    C2 9146   5.179   4.726  10.245 -0.0383  0.1175  0.2231
  577DPPI    C3 9147   5.147   4.378  10.440 -0.1005 -0.0655 -0.1059
  577DPPI   PO4 9148   5.768   4.538  10.387 -0.1959  0.0689 -0.0555
  577DPPI   GL1 9149   6.045   4.757  10.201 -0.0413  0.2704 -0.0492
  577DPPI   GL2 9150   6.193   4.602   9.968  0.1564 -0.0604 -0.2083
  577DPPI   C1A 9151   5.897   4.970   9.795 -0.1627 -0.0426  0.2551
  577DPPI   C2A 9152   5.975   5.254   9.527 -0.1567 -0.2813  0.1748
  577DPPI   C3A 9153   6.049   5.178   9.081 -0.2404  0.2007 -0.2004
  577DPPI   C4A 9154   6.147   5.155   8.666  0.0767  0.0234  0.1918
  577DPPI   C1B 9155   6.126   4.513   9.537 -0.1091  0.0367  0.0383
  577DPPI   C2B 9156   6.223   4.374   9.155 -0.1292  0.2348 -0.0811
  577DPPI   C3B 9157   6.307   4.585   8.765 -0.0485  0.1434  0.1378
  577DPPI   C4B 9158   6.728   4.542   8.762  0.1605 -0.1143  0.1527
  578DPPI    C1 9159   5.301   7.458  10.968  0.0183 -0.1690  0.2212
  578DPPI    C2 9160   5.216   7.807  11.144 -0.2351 -0.1738  0.1127
  578DPPI    C3 9161   5.516   7.580  11.283  0.0190  0.1476  0.1010
  578DPPI   PO4 9162   5.403   7.522  10.679  0.0181  0.1226  0.1960
  578DPPI   GL1 9163   5.773   7.584  10.462 -0.0448  0.3790 -0.1905
  578DPPI   GL2 9164   6.133   7.510  10.490 -0.0251 -0.0550 -0.0837
  578DPPI   C1A 9165   5.785   7.410  10.070 -0.0701 -0.0637  0.1502
  578DPPI   C2A 9166   5.777   7.397   9.607 -0.2175 -0.1375 -0.0948
  578DPPI   C3A 9167   5.713   7.276   9.226  0.1507 -0.3702 -0.0901
  578DPPI   C4A 9168   5.704   7.251   8.808 -0.0700  0.1732 -0.1620
  578DPPI   C1B 9169   6.209   7.594  10.030 -0.0194 -0.1703  0.2088
  578DPPI   C2B 9170   6.289   7.578   9.553  0.1012 -0.0250 -0.3506
  578DPPI   C3B 9171   6.126   7.500   9.179 -0.2215 -0.2713 -0.0471
  578DPPI   C4B 9172   6.127   7.559   8.749 -0.2297 -0.1630 -0.1665
  579DPPI    C1 9173   5.499   8.248  11.005  0.1144 -0.0629 -0.0752
  579DPPI    C2 9174   5.673   7.898  10.922  0.0373 -0.1825  0.2534
  579DPPI    C3 9175   5.672   8.037  11.298 -0.0339  0.1157  0.1454
  579DPPI   PO4 9176   5.547   8.394  10.750  0.0313  0.0026 -0.1170
  579DPPI   GL1 9177   5.401   8.495  10.390 -0.0203 -0.1230 -0.0061
  579DPPI   GL2 9178   5.667   8.647  10.285  0.0769  0.5134  0.3583
  579DPPI   C1A 9179   5.234   8.620  10.047 -0.1145 -0.0246 -0.0634
  579DPPI   C2A 9180   5.459   8.701   9.712  0.1889  0.1767  0.0682
  579DPPI   C3A 9181   5.448   8.757   9.282 -0.1263 -0.0128  0.2243
  579DPPI   C4A 9182   5.362   9.049   8.973  0.0464 -0.1025 -0.2115
  579DPPI   C1B 9183   5.875   8.593   9.981 -0.0797 -0.0338  0.1910
  579DPPI   C2B 9184   5.912   8.532   9.541  0.2989  0.0171 -0.0988
  579DPPI   C3B 9185   5.901   8.626   9.147 -0.1891 -0.2856 -0.2579
  579DPPI   C4B 9186   6.014   8.494   8.640 -0.0446 -0.3473 -0.2251
  580DPPI    C1 9187   3.046  11.857  10.777 -0.2425 -0.0559 -0.1787
  580DPPI    C2 9188   3.367  11.679  10.619 -0.0963  0.0128  0.0366
  580DPPI    C3 9189   3.278  11.625  11.006 -0.2346  0.1486  0.0246
  580DPPI   PO4 9190   2.916  11.869  10.601 -0.3759  0.0837 -0.2704
  580DPPI   GL1 9191   3.094  12.056  10.164  0.0126 -0.1716  0.1069
  580DPPI   GL2 9192   3.354  11.951  10.132  0.2954 -0.1744  0.3187
  580DPPI   C1A 9193   2.988  12.328   9.800 -0.2934 -0.0906  0.1352
  580DPPI   C2A 9194   2.995  12.322   9.378  0.0298 -0.1920  0.2123
  580DPPI   C3A 9195   3.070  12.404   8.958 -0.0513 -0.0357 -0.1398
  580DPPI   C4A 9196   3.128  12.494   8.516  0.3190  0.1832  0.1837
  580DPPI   C1B 9197   3.372  12.072   9.688  0.0979  0.4971  0.0143
  580DPPI   C2B 9198   3.318  12.036   9.203 -0.1105  0.0945 -0.0235
  580DPPI   C3B 9199   3.449  12.049   8.717 -0.1007 -0.0303 -0.1904
  580DPPI   C4B 9200   3.287  11.969   8.333  0.0921  0.0522  0.1841
  581DPPI    C1 9201   4.297   2.438  10.885  0.0949  0.4101  0.3941
  581DPPI    C2 9202   4.673   2.542  10.795  0.1269  0.0927  0.1395
  581DPPI    C3 9203   4.597   2.181  10.949 -0.1207 -0.0319 -0.2598
  581DPPI   PO4 9204   4.120   2.517  10.625 -0.2873  0.0585  0.0949
  581DPPI   GL1 9205   4.276   2.660  10.161  0.0781 -0.1266  0.2295
  581DPPI   GL2 9206   3.984   2.761  10.221  0.0342 -0.2910  0.1830
  581DPPI   C1A 9207   4.333   2.484   9.723 -0.0113 -0.2503 -0.0072
  581DPPI   C2A 9208   4.524   2.383   9.378 -0.0477  0.0318  0.0451
  581DPPI   C3A 9209   4.394   2.366   8.962 -0.1353 -0.1422  0.3666
  581DPPI   C4A 9210   4.578   2.256   8.573 -0.0870 -0.0277 -0.2987
  581DPPI   C1B 9211   3.945   2.834   9.761 -0.1158 -0.1442 -0.2526
  581DPPI   C2B 9212   3.995   2.697   9.300 -0.0906 -0.0193  0.0811
  581DPPI   C3B 9213   3.962   2.733   8.854  0.1204 -0.1671 -0.5308
  581DPPI   C4B 9214   4.112   2.616   8.510 -0.2803 -0.1837 -0.0775
  582DPPI    C1 9215   8.601  15.062  10.786 -0.0228  0.0588 -0.3571
  582DPPI    C2 9216   8.983  14.945  10.777  0.0404  0.2253 -0.0081
  582DPPI    C3 9217   8.892  15.323  10.870 -0.2109  0.1856 -0.0848
  582DPPI   PO4 9218   8.464  15.062  10.584 -0.1183 -0.1858 -0.1354
  582DPPI   GL1 9219   8.447  15.313  10.261  0.2698  0.0759 -0.3744
  582DPPI   GL2 9220   8.210  15.320  10.033 -0.0843 -0.2085 -0.2861
  582DPPI   C1A 9221   8.684  15.548  10.003  0.1610  0.0327 -0.1228
  582DPPI   C2A 9222   8.661  15.547   9.497  0.2363  0.0283 -0.2302
  582DPPI   C3A 9223   8.593  15.701   9.012 -0.2759  0.0716 -0.1342
  582DPPI   C4A 9224   8.468  15.740   8.569  0.1814 -0.2208 -0.5593
  582DPPI   C1B 9225   8.216  15.352   9.612  0.0327  0.1563 -0.0808
  582DPPI   C2B 9226   8.255  15.378   9.244  0.0170 -0.1147  0.1300
  582DPPI   C3B 9227   8.127  15.425   8.855 -0.2553  0.0640 -0.0919
  582DPPI   C4B 9228   7.901  15.353   8.461  0.1757  0.1022  0.3364
  583DPPI    C1 9229   6.098   5.356  10.783  0.0814  0.3633 -0.1655
  583DPPI    C2 9230   5.755   5.443  10.968  0.0376 -0.1301 -0.0024
  583DPPI    C3 9231   6.088   5.383  11.182  0.1603  0.0515 -0.1401
  583DPPI   PO4 9232   5.959   5.236  10.500 -0.0880 -0.1261  0.0914
  583DPPI   GL1 9233   5.905   5.406  10.108  0.2094 -0.2464 -0.0984
  583DPPI   GL2 9234   5.908   5.776  10.131 -0.1734 -0.0682  0.1033
  583DPPI   C1A 9235   5.572   5.369   9.898  0.2185  0.1781 -0.0416
  583DPPI   C2A 9236   5.480   5.283   9.529  0.0011  0.1057 -0.1722
  583DPPI   C3A 9237   5.620   5.414   9.177 -0.3125 -0.2472 -0.0657
  583DPPI   C4A 9238   5.692   5.324   8.671  0.0838 -0.0710  0.4034
  583DPPI   C1B 9239   5.924   5.740   9.687 -0.1142  0.0209 -0.0119
  583DPPI   C2B 9240   6.021   5.763   9.282  0.0263 -0.0888 -0.2002
  583DPPI   C3B 9241   6.034   5.646   8.855  0.2796  0.0770  0.0146
  583DPPI   C4B 9242   6.067   5.589   8.388 -0.0795 -0.1679  0.0226
  584DPPI    C1 9243   0.219   1.946  10.974  0.1155  0.2497 -0.2671
  584DPPI    C2 9244   0.540   2.046  11.191  0.0286 -0.0923  0.0276
  584DPPI    C3 9245   0.205   2.264  11.216  0.1396  0.0898 -0.0533
  584DPPI   PO4 9246   0.309   2.052  10.666 -0.1419  0.1628 -0.0538
  584DPPI   GL1 9247   0.266   2.248  10.304  0.3125  0.3213 -0.0521
  584DPPI   GL2 9248   0.482   2.400  10.155 -0.0972  0.0974  0.1070
  584DPPI   C1A 9249  -0.101   2.193  10.065 -0.0061  0.2710 -0.2337
  584DPPI   C2A 9250  -0.230   2.062   9.740 -0.0047  0.0449  0.2932
  584DPPI   C3A 9251  -0.209   2.054   9.344  0.0278 -0.3000  0.0043
  584DPPI   C4A 9252  -0.236   2.027   8.866  0.3412  0.2532 -0.1303
  584DPPI   C1B 9253   0.273   2.369   9.773 -0.2341 -0.0125  0.0506
  584DPPI   C2B 9254   0.225   2.312   9.297  0.0077  0.0316  0.2949
  584DPPI   C3B 9255   0.166   2.274   8.922 -0.5040 -0.0103 -0.2854
  584DPPI   C4B 9256   0.051   2.152   8.451 -0.0982 -0.1796 -0.3339
  585DPPI    C1 9257  12.374   8.064  10.967 -0.1068 -0.1220 -0.0687
  585DPPI    C2 9258  12.298   8.430  11.108  0.2798 -0.0068 -0.1463
  585DPPI    C3 9259  12.590   8.210  11.271  0.1677 -0.2102 -0.2171
  585DPPI   PO4 9260  12.377   8.181  10.666  0.1762  0.3484  0.0656
  585DPPI   GL1 9261  12.219   8.017  10.260 -0.0287 -0.1125 -0.1795
  585DPPI   GL2 9262  12.224   8.370  10.212 -0.2600  0.0431 -0.1633
  585DPPI   C1A 9263  12.056   7.836   9.913  0.1136  0.1672 -0.1765
  585DPPI   C2A 9264  12.165   7.720   9.504  0.3490 -0.2387  0.1223
  585DPPI   C3A 9265  12.143   7.711   9.051  0.5112 -0.0260 -0.0373
  585DPPI   C4A 9266  12.136   7.742   8.559 -0.1294  0.0882 -0.2752
  585DPPI   C1B 9267  12.393   8.226   9.823 -0.0003  0.2212 -0.1486
  585DPPI   C2B 9268  12.523   8.012   9.369  0.0009  0.0075  0.3103
  585DPPI   C3B 9269  12.508   8.017   8.844 -0.0259  0.2844 -0.1362
  585DPPI   C4B 9270  12.601   7.945   8.379 -0.1287 -0.1021  0.1117
  586DPPI    C1 9271  17.334  15.215  10.932  0.1568 -0.1251  0.2319
  586DPPI    C2 9272  17.011  14.987  10.872 -0.0693  0.1822  0.2597
  586DPPI    C3 9273  17.081  15.142  11.234 -0.0379  0.3366  0.1883
  586DPPI   PO4 9274  17.328  15.368  10.783  0.0413 -0.0837  0.0250
  586DPPI   GL1 9275  17.362  15.444  10.401  0.1671 -0.0427  0.3050
  586DPPI   GL2 9276  16.997  15.286  10.419  0.2146 -0.1548 -0.3415
  586DPPI   C1A 9277  17.383  15.313   9.977  0.0555 -0.0999  0.0178
  586DPPI   C2A 9278  17.362  15.291   9.597  0.3403  0.1627 -0.0111
  586DPPI   C3A 9279  17.403  15.295   9.139 -0.2074 -0.1178  0.2145
  586DPPI   C4A 9280  17.414  15.249   8.824 -0.3128 -0.3618  0.2372
  586DPPI   C1B 9281  16.808  15.105  10.123  0.2100  0.1386 -0.0610
  586DPPI   C2B 9282  16.893  15.034   9.753 -0.1339  0.1574 -0.2759
  586DPPI   C3B 9283  16.886  15.190   9.358  0.1616 -0.0385 -0.0785
  586DPPI   C4B 9284  16.951  15.190   9.003  0.1045 -0.2224 -0.1470
  587DPPI    C1 9285  12.035   6.483  10.947  0.1891 -0.2128  0.0819
  587DPPI    C2 9286  12.099   6.823  10.746 -0.0996 -0.0681  0.2276
  587DPPI    C3 9287  12.391   6.662  10.968  0.1072 -0.0362 -0.0176
  587DPPI   PO4 9288  11.917   6.319  10.768  0.0955 -0.2544  0.1524
  587DPPI   GL1 9289  11.867   6.539  10.419  0.1895 -0.0044 -0.1431
  587DPPI   GL2 9290  12.183   6.507  10.365 -0.1249  0.1278  0.0753
  587DPPI   C1A 9291  11.865   6.883  10.074  0.0569  0.3015 -0.0354
  587DPPI   C2A 9292  11.836   6.955   9.623  0.1914 -0.1186  0.0509
  587DPPI   C3A 9293  11.842   6.996   9.149 -0.1082 -0.0001 -0.0617
  587DPPI   C4A 9294  11.700   6.920   8.773 -0.1048 -0.0664  0.1992
  587DPPI   C1B 9295  11.978   6.378   9.907  0.0360  0.1146 -0.0377
  587DPPI   C2B 9296  11.879   6.475   9.489 -0.1129  0.4277  0.3365
  587DPPI   C3B 9297  11.843   6.541   9.136 -0.0227 -0.0656  0.2431
  587DPPI   C4B 9298  11.793   6.386   8.732  0.0901 -0.3019 -0.1306
  588DPPI    C1 9299  10.571  12.485  10.881  0.2289 -0.0813 -0.2052
  588DPPI    C2 9300  10.670  12.786  10.638 -0.0872  0.3283  0.1567
  588DPPI    C3 9301  10.917  12.679  10.933  0.1973 -0.0266 -0.1989
  588DPPI   PO4 9302  10.461  12.265  10.721  0.3136  0.1527  0.0440
  588DPPI   GL1 9303  10.525  11.940  10.380  0.0580 -0.0397  0.3679
  588DPPI   GL2 9304  10.249  12.119  10.338 -0.0645  0.0331 -0.0076
  588DPPI   C1A 9305  10.509  11.837   9.964 -0.2813  0.0446 -0.1912
  588DPPI   C2A 9306  10.445  11.894   9.603  0.0095 -0.1640 -0.2770
  588DPPI   C3A 9307  10.413  11.902   9.150 -0.1411  0.1760 -0.2776
  588DPPI   C4A 9308  10.680  12.023   8.787 -0.1469 -0.1742 -0.0960
  588DPPI   C1B 9309  10.286  12.322   9.896  0.2059  0.1055 -0.0732
  588DPPI   C2B 9310  10.159  12.248   9.464 -0.0672 -0.0385 -0.1393
  588DPPI   C3B 9311   9.735  12.300   9.155 -0.1890  0.1559 -0.0529
  588DPPI   C4B 9312   9.323  12.213   9.023  0.0864  0.2478  0.1229
  589DPPI    C1 9313   8.530  12.175  10.910 -0.0338 -0.2287  0.1719
  589DPPI    C2 9314   8.177  12.059  10.761  0.1217 -0.3650 -0.0959
  589DPPI    C3 9315   8.363  11.832  11.033  0.0218 -0.3122  0.0169
  589DPPI   PO4 9316   8.657  12.368  10.727 -0.0628 -0.2425  0.2804
  589DPPI   GL1 9317   8.658  12.330  10.266 -0.0754 -0.0732 -0.2213
  589DPPI   GL2 9318   8.319  12.398  10.277  0.3271 -0.0494  0.2241
  589DPPI   C1A 9319   8.670  12.331   9.855  0.3627  0.0577 -0.2343
  589DPPI   C2A 9320   8.659  12.080   9.488 -0.0969  0.1359 -0.2240
  589DPPI   C3A 9321   8.699  12.041   9.005  0.2460  0.0600 -0.1688
  589DPPI   C4A 9322   8.562  12.214   8.495 -0.0903  0.0719 -0.1674
  589DPPI   C1B 9323   8.130  12.254   9.926  0.1201  0.0577 -0.0301
  589DPPI   C2B 9324   7.940  12.348   9.540 -0.0201  0.0557  0.0992
  589DPPI   C3B 9325   8.086  12.195   9.125 -0.0992  0.2056  0.0483
  589DPPI   C4B 9326   8.250  11.900   8.780  0.0172  0.0173  0.0294
  590DPPI    C1 9327   6.234   2.715  10.699  0.0253 -0.0234  0.1321
  590DPPI    C2 9328   6.632   2.699  10.673  0.0312  0.1575  0.1016
  590DPPI    C3 9329   6.456   2.724  11.031  0.0265 -0.3921  0.1457
  590DPPI   PO4 9330   6.196   2.818  10.469  0.2273 -0.0803 -0.1694
  590DPPI   GL1 9331   6.385   2.760  10.084 -0.0387 -0.1026 -0.1793
  590DPPI   GL2 9332   6.606   2.889   9.874 -0.3255  0.0528  0.0756
  590DPPI   C1A 9333   6.100   2.967   9.866 -0.3070  0.1495  0.0875
  590DPPI   C2A 9334   5.962   3.361   9.560  0.1963  0.0254  0.0464
  590DPPI   C3A 9335   5.686   3.635   9.278  0.0441  0.0722  0.1302
  590DPPI   C4A 9336   5.527   3.900   9.011 -0.2721 -0.1248 -0.0219
  590DPPI   C1B 9337   6.616   2.685   9.560 -0.3477  0.0373 -0.0033
  590DPPI   C2B 9338   6.834   2.641   9.163  0.0067  0.3499  0.0098
  590DPPI   C3B 9339   6.874   2.574   8.680  0.2132  0.0031  0.1149
  590DPPI   C4B 9340   6.533   2.327   8.521  0.2059 -0.1058 -0.0439
  591DPPI    C1 9341   4.851   7.473  10.844 -0.0738  0.0464 -0.0381
  591DPPI    C2 9342   4.482   7.470  10.998 -0.0772 -0.3271 -0.0443
  591DPPI    C3 9343   4.799   7.481  11.241 -0.0867  0.3338 -0.0435
  591DPPI   PO4 9344   4.885   7.635  10.638  0.1547  0.0994 -0.1525
  591DPPI   GL1 9345   5.053   7.700  10.265  0.0468 -0.3044  0.2053
  591DPPI   GL2 9346   5.408   7.733  10.180  0.2874  0.0605  0.1186
  591DPPI   C1A 9347   4.990   7.840   9.915  0.0683 -0.0504  0.0895
  591DPPI   C2A 9348   5.023   7.880   9.452  0.3138 -0.2760 -0.1161
  591DPPI   C3A 9349   5.119   7.889   9.035  0.0567 -0.1736  0.2056
  591DPPI   C4A 9350   5.309   8.066   8.625  0.0549 -0.1345 -0.2084
  591DPPI   C1B 9351   5.417   7.780   9.671 -0.1786 -0.0532 -0.0202
  591DPPI   C2B 9352   5.594   7.767   9.326 -0.1797 -0.0032  0.1121
  591DPPI   C3B 9353   5.657   7.792   8.905 -0.1511  0.0160  0.5591
  591DPPI   C4B 9354   5.532   7.637   8.484  0.0171  0.0272 -0.1731
  592DPPI    C1 9355  12.147   3.537  10.309 -0.0990  0.0383  0.1004
  592DPPI    C2 9356  12.386   3.593  10.625  0.0428 -0.3154  0.0604
  592DPPI    C3 9357  12.095   3.319  10.641 -0.1838 -0.0813  0.0093
  592DPPI   PO4 9358  12.230   3.386  10.088 -0.1258  0.0111  0.0230
  592DPPI   GL1 9359  12.102   3.165   9.740 -0.0428 -0.3446 -0.0851
  592DPPI   GL2 9360  12.088   3.038   9.574  0.1469  0.0993  0.0682
  592DPPI   C1A 9361  12.170   3.500   9.456 -0.0329 -0.3738  0.1347
  592DPPI   C2A 9362  12.227   3.399   9.050  0.0823  0.2544 -0.0947
  592DPPI   C3A 9363  12.403   3.137   8.835 -0.1153 -0.0041 -0.2082
  592DPPI   C4A 9364  12.426   3.031   8.504 -0.2824 -0.0215  0.0379
  592DPPI   C1B 9365  11.919   3.007   9.185 -0.0030 -0.1227 -0.1016
  592DPPI   C2B 9366  11.920   2.963   8.727  0.0293  0.1736 -0.0701
  592DPPI   C3B 9367  12.022   2.830   8.387  0.1776 -0.1678 -0.2082
  592DPPI   C4B 9368  12.231   2.666   8.071 -0.0131  0.3196  0.1940
  593DPPI    C1 9369  12.846   0.161  10.767 -0.1032  0.0927 -0.1563
  593DPPI    C2 9370  13.098   0.014  11.041 -0.1596  0.1442 -0.0761
  593DPPI    C3 9371  12.948   0.382  11.085 -0.1475  0.1633 -0.1909
  593DPPI   PO4 9372  12.978   0.177  10.569  0.0900 -0.1228 -0.0288
  593DPPI   GL1 9373  13.187   0.004  10.281 -0.1313  0.0118 -0.0166
  593DPPI   GL2 9374  13.273   0.381  10.251 -0.0835  0.0651  0.0344
  593DPPI   C1A 9375  13.157  -0.288   9.920 -0.0527  0.1669  0.0948
  593DPPI   C2A 9376  13.340  -0.403   9.542  0.0915  0.1712 -0.1136
  593DPPI   C3A 9377  13.377  -0.408   9.075  0.3604 -0.0667 -0.1166
  593DPPI   C4A 9378  13.349  -0.384   8.675 -0.0838 -0.2586 -0.2343
  593DPPI   C1B 9379  13.186   0.304   9.864  0.0723 -0.1159 -0.1509
  593DPPI   C2B 9380  13.340   0.117   9.501 -0.0704 -0.0580  0.0184
  593DPPI   C3B 9381  13.448   0.078   9.138  0.0305  0.3942 -0.0603
  593DPPI   C4B 9382  13.451   0.153   8.748  0.1449 -0.1594 -0.1218
  594PYPI    C1 9383   6.252  11.820  10.623 -0.1160 -0.0711  0.1497
  594PYPI    C2 9384   6.349  12.177  10.774 -0.0413  0.0613 -0.2030
  594PYPI    C3 9385   5.978  12.036  10.819 -0.0315  0.1157  0.0642
  594PYPI   PO4 9386   6.482  11.814  10.420  0.2700  0.0917  0.0621
  594PYPI   GL1 9387   6.434  11.970  10.027  0.1817  0.0997  0.0415
  594PYPI   GL2 9388   6.712  12.150  10.034 -0.0605 -0.0488  0.1072
  594PYPI   C1A 9389   6.494  11.977   9.580 -0.0829 -0.2449  0.0709
  594PYPI   C2A 9390   6.206  11.864   9.256  0.0301 -0.5985 -0.0797
  594PYPI   D3A 9391   6.154  11.832   8.810 -0.1395 -0.0661  0.2790
  594PYPI   C4A 9392   6.463  12.103   8.511  0.1974 -0.0615  0.0591
  594PYPI   C1B 9393   7.082  12.313   9.883  0.0264  0.0372 -0.0644
  594PYPI   C2B 9394   7.354  12.412   9.557 -0.2234 -0.0068  0.0063
  594PYPI   C3B 9395   7.415  12.592   9.180  0.0652 -0.1896 -0.0147
  594PYPI   C4B 9396   7.409  12.640   8.670  0.0685  0.0353 -0.0080
  595PYPI    C1 9397  17.259  10.351  10.798  0.1964  0.2312 -0.2527
  595PYPI    C2 9398  17.569  10.586  10.890  0.1298  0.2380 -0.0421
  595PYPI    C3 9399  17.244  10.583  11.123  0.0135  0.1528 -0.2040
  595PYPI   PO4 9400  17.272  10.336  10.476  0.0985  0.1623 -0.2816
  595PYPI   GL1 9401  17.027  10.398  10.144 -0.0337 -0.1314  0.0342
  595PYPI   GL2 9402  17.035  10.293   9.900  0.0383 -0.1288  0.0848
  595PYPI   C1A 9403  16.995  10.756   9.749 -0.3701 -0.1308  0.0036
  595PYPI   C2A 9404  17.063  10.666   9.294 -0.1840 -0.1479 -0.2196
  595PYPI   D3A 9405  17.232  10.643   8.868  0.1916  0.1483 -0.3484
  595PYPI   C4A 9406  17.690  10.750   8.846 -0.1576 -0.0887 -0.0262
  595PYPI   C1B 9407  17.088  10.164   9.485 -0.0200  0.3669 -0.0969
  595PYPI   C2B 9408  17.113  10.168   9.015 -0.0982 -0.2662  0.2146
  595PYPI   C3B 9409  17.211  10.246   8.520 -0.3381  0.0717  0.3168
  595PYPI   C4B 9410  17.264  10.236   8.107  0.0265 -0.1942 -0.2837
  596PYPI    C1 9411  11.913  11.686  10.595  0.2256 -0.0459  0.0041
  596PYPI    C2 9412  11.836  11.340  10.410  0.2192 -0.0474  0.0094
  596PYPI    C3 9413  11.903  11.345  10.804  0.2600 -0.0480  0.0026
  596PYPI   PO4 9414  12.074  11.788  10.444 -0.0571 -0.1253  0.0219
  596PYPI   GL1 9415  12.142  11.712  10.095  0.2271  0.0160  0.2860
  596PYPI   GL2 9416  12.323  11.946   9.944  0.0013 -0.2026 -0.1065
  596PYPI   C1A 9417  12.312  11.595   9.619  0.2243 -0.0631 -0.1171
  596PYPI   C2A 9418  12.423  11.575   9.277 -0.1107 -0.0283 -0.1157
  596PYPI   D3A 9419  12.737  11.656   8.911  0.4307 -0.1130  0.0319
  596PYPI   C4A 9420  12.685  11.623   8.540 -0.0287  0.1206  0.0120
  596PYPI   C1B 9421  12.369  12.183   9.497 -0.1998 -0.1534 -0.1609
  596PYPI   C2B 9422  12.156  12.517   9.201  0.0262 -0.0938 -0.0061
  596PYPI   C3B 9423  11.975  12.716   8.827  0.4272 -0.0679  0.1375
  596PYPI   C4B 9424  12.175  13.141   8.605 -0.2760  0.0713  0.1671
  597PYPI    C1 9425   5.299  11.468  10.727 -0.1209  0.0550 -0.0057
  597PYPI    C2 9426   5.449  11.303  11.059 -0.0473  0.0607 -0.0361
  597PYPI    C3 9427   5.059  11.389  11.038 -0.0767 -0.0612 -0.0008
  597PYPI   PO4 9428   5.339  11.284  10.537 -0.0546 -0.0616  0.0747
  597PYPI   GL1 9429   5.485  11.052  10.256 -0.1730 -0.0829  0.2536
  597PYPI   GL2 9430   5.778  11.147  10.245  0.1211  0.0981  0.1304
  597PYPI   C1A 9431   5.167  11.223   9.911 -0.1271 -0.1784  0.3789
  597PYPI   C2A 9432   5.071  11.161   9.427  0.1083 -0.0831 -0.1295
  597PYPI   D3A 9433   5.122  11.511   9.084 -0.1373 -0.3005 -0.1164
  597PYPI   C4A 9434   5.178  11.395   8.694 -0.2343  0.1400  0.0706
  597PYPI   C1B 9435   5.705  11.243   9.834  0.1346 -0.1244 -0.2513
  597PYPI   C2B 9436   5.542  11.239   9.365 -0.0867  0.1859  0.0895
  597PYPI   C3B 9437   5.483  11.087   8.953  0.0792  0.1091 -0.1155
  597PYPI   C4B 9438   5.589  11.047   8.415  0.0173  0.2419  0.0761
  598PYPI    C1 9439  11.643  10.486  10.719  0.1532 -0.0584 -0.2140
  598PYPI    C2 9440  11.716  10.127  10.879  0.4159  0.0331 -0.1234
  598PYPI    C3 9441  11.935  10.443  10.989  0.2017  0.2178 -0.2199
  598PYPI   PO4 9442  11.719  10.430  10.477 -0.0869 -0.1021  0.1645
  598PYPI   GL1 9443  11.665  10.239  10.090  0.1352 -0.0513 -0.2703
  598PYPI   GL2 9444  11.404  10.231   9.951  0.0964 -0.0316  0.0595
  598PYPI   C1A 9445  11.742  10.346   9.610  0.1263  0.0965  0.0213
  598PYPI   C2A 9446  11.675  10.390   9.172  0.1420 -0.1595 -0.1347
  598PYPI   D3A 9447  11.864  10.437   8.686  0.0187  0.0894 -0.1953
  598PYPI   C4A 9448  11.728  10.747   8.275  0.0601 -0.0640  0.1019
  598PYPI   C1B 9449  11.236  10.093   9.536  0.2060  0.1371 -0.0454
  598PYPI   C2B 9450  11.219  10.083   9.025 -0.0610 -0.1110  0.1652
  598PYPI   C3B 9451  11.412  10.223   8.640  0.3060 -0.0199 -0.1172
  598PYPI   C4B 9452  11.278  10.525   8.321 -0.0138  0.3790 -0.0011
  599PYPI    C1 9453   9.375   9.987  10.997 -0.0356 -0.0868 -0.0705
  599PYPI    C2 9454   9.053   9.999  11.234 -0.0320 -0.1004 -0.0650
  599PYPI    C3 9455   9.392   9.831  11.365  0.0360  0.0852  0.0005
  599PYPI   PO4 9456   9.263  10.001  10.772  0.2757  0.0226  0.0259
  599PYPI   GL1 9457   9.331  10.136  10.387  0.4544 -0.1060  0.1609
  599PYPI   GL2 9458   9.014  10.152  10.381  0.0109 -0.1362 -0.0838
  599PYPI   C1A 9459   9.237  10.144   9.907 -0.1055 -0.0580 -0.0904
  599PYPI   C2A 9460   9.206  10.231   9.533 -0.0025 -0.0126  0.3704
  599PYPI   D3A 9461   9.339  10.226   9.082  0.0587 -0.3358 -0.1915
  599PYPI   C4A 9462   9.179  10.283   8.689 -0.1382  0.3006 -0.0100
  599PYPI   C1B 9463   9.015   9.717  10.226  0.3362 -0.2101 -0.1333
  599PYPI   C2B 9464   9.038   9.421   9.948  0.1248 -0.0776  0.2328
  599PYPI   C3B 9465   9.082   9.355   9.563  0.0214 -0.2078 -0.0465
  599PYPI   C4B 9466   9.082   9.367   9.146  0.0052 -0.1659 -0.0173
  600PYPI    C1 9467  11.472  17.724  10.530 -0.0340 -0.1907  0.0789
  600PYPI    C2 9468  11.132  17.514  10.526 -0.1769  0.0346  0.1681
  600PYPI    C3 9469  11.246  17.702  10.859  0.0119 -0.0008  0.1244
  600PYPI   PO4 9470  11.609  17.518  10.375 -0.3064 -0.0939  0.0140
  600PYPI   GL1 9471  11.501  17.372  10.064  0.0600  0.0828 -0.4378
  600PYPI   GL2 9472  11.250  17.257  10.123  0.2496  0.5641  0.1695
  600PYPI   C1A 9473  11.616  17.377   9.612  0.1509 -0.0653 -0.2458
  600PYPI   C2A 9474  11.663  17.180   9.204  0.1837 -0.1900  0.0686
  600PYPI   D3A 9475  11.715  17.127   8.799  0.0688 -0.4114  0.4123
  600PYPI   C4A 9476  11.641  17.503   8.514 -0.1349 -0.0631 -0.0511
  600PYPI   C1B 9477  11.139  17.364   9.684  0.1812 -0.1051 -0.1374
  600PYPI   C2B 9478  11.147  17.478   9.206  0.5872 -0.1256 -0.0765
  600PYPI   C3B 9479  11.195  17.403   8.791  0.0039 -0.1443  0.2502
  600PYPI   C4B 9480  11.115  17.398   8.395 -0.2971  0.0511 -0.0535
  601PYPI    C1 9481  11.946   0.363  10.757 -0.1251 -0.0447 -0.0709
  601PYPI    C2 9482  11.593   0.541  10.816  0.0329  0.2062  0.1395
  601PYPI    C3 9483  11.779   0.359  11.120 -0.0662 -0.2145 -0.0450
  601PYPI   PO4 9484  11.862   0.246  10.478 -0.0868 -0.3688  0.3065
  601PYPI   GL1 9485  11.561   0.023  10.268 -0.1564 -0.0316  0.2925
  601PYPI   GL2 9486  11.713  -0.252  10.060 -0.4314 -0.2212  0.1553
  601PYPI   C1A 9487  11.541   0.159   9.820  0.1922  0.0426  0.0766
  601PYPI   C2A 9488  11.560   0.057   9.405 -0.1750  0.4074  0.0321
  601PYPI   D3A 9489  11.491  -0.251   9.254 -0.0511 -0.1524  0.3716
  601PYPI   C4A 9490  11.769  -0.514   8.985  0.3200  0.2030 -0.0854
  601PYPI   C1B 9491  11.863  -0.337   9.561 -0.3113 -0.2637 -0.0623
  601PYPI   C2B 9492  12.042  -0.136   9.218  0.0442 -0.0026  0.2755
  601PYPI   C3B 9493  12.133  -0.194   8.796  0.1623 -0.3300 -0.0432
  601PYPI   C4B 9494  12.052  -0.155   8.374  0.0201 -0.1257  0.0242
  602PYPI    C1 9495  15.058   1.260  10.672  0.0246 -0.2407 -0.0555
  602PYPI    C2 9496  14.908   1.370  11.026  0.1170 -0.4086  0.0371
  602PYPI    C3 9497  15.276   1.485  10.921 -0.0272 -0.0951 -0.1402
  602PYPI   PO4 9498  15.075   0.977  10.566 -0.2620 -0.0145  0.1376
  602PYPI   GL1 9499  15.336   0.885  10.226  0.2509 -0.2706 -0.3548
  602PYPI   GL2 9500  15.244   0.577  10.235 -0.0283  0.2135  0.1762
  602PYPI   C1A 9501  15.247   0.830   9.800 -0.0224  0.0112 -0.0818
  602PYPI   C2A 9502  15.218   0.705   9.470 -0.2394 -0.2598  0.3336
  602PYPI   D3A 9503  15.381   0.698   9.090  0.1189 -0.1327  0.0309
  602PYPI   C4A 9504  15.343   0.794   8.591  0.0572  0.2623 -0.1566
  602PYPI   C1B 9505  15.293   0.360   9.841  0.1798 -0.0600  0.2398
  602PYPI   C2B 9506  15.199   0.240   9.332 -0.0072 -0.1981 -0.5750
  602PYPI   C3B 9507  15.215   0.215   8.996  0.0459  0.0405 -0.2817
  602PYPI   C4B 9508  15.299   0.271   8.608  0.1089 -0.0792 -0.0543
  603PYPI    C1 9509  14.728  14.786  10.882  0.1133 -0.1779  0.0986
  603PYPI    C2 9510  14.334  14.769  10.949  0.0745  0.0765 -0.0521
  603PYPI    C3 9511  14.577  14.926  11.225  0.1164 -0.3997  0.1921
  603PYPI   PO4 9512  14.754  14.878  10.592 -0.0340 -0.1401  0.0114
  603PYPI   GL1 9513  15.026  14.967  10.327  0.0289 -0.1092 -0.2264
  603PYPI   GL2 9514  14.990  15.231  10.324  0.2077  0.0635  0.1305
  603PYPI   C1A 9515  14.989  14.824   9.914 -0.0550  0.0005  0.0129
  603PYPI   C2A 9516  15.034  14.989   9.630 -0.0689 -0.1248  0.0626
  603PYPI   D3A 9517  14.953  14.999   9.156 -0.1696  0.2730 -0.0301
  603PYPI   C4A 9518  15.104  15.010   8.770 -0.2309  0.2972 -0.0149
  603PYPI   C1B 9519  15.124  15.397   9.920  0.0326 -0.1813  0.0976
  603PYPI   C2B 9520  15.175  15.430   9.415  0.1610 -0.1341  0.0835
  603PYPI   C3B 9521  15.091  15.508   8.940 -0.0699 -0.0132  0.3184
  603PYPI   C4B 9522  15.194  15.595   8.539  0.0635 -0.1026 -0.1272
  604PYPI    C1 9523   6.347   4.922  10.577 -0.1083  0.0809 -0.2589
  604PYPI    C2 9524   6.401   4.992  10.967  0.2268 -0.1490 -0.2596
  604PYPI    C3 9525   6.048   4.858  10.834  0.0364  0.1536 -0.0702
  604PYPI   PO4 9526   6.499   5.214  10.481  0.1483 -0.1512  0.0268
  604PYPI   GL1 9527   6.752   5.229  10.145 -0.0736 -0.0802 -0.1942
  604PYPI   GL2 9528   6.793   4.871  10.141  0.1680 -0.1438 -0.1560
  604PYPI   C1A 9529   6.889   5.353   9.732 -0.1133 -0.5612  0.3114
  604PYPI   C2A 9530   6.941   5.346   9.307 -0.0617  0.2610 -0.2058
  604PYPI   D3A 9531   7.117   5.351   8.840  0.0035 -0.1593  0.0366
  604PYPI   C4A 9532   7.159   5.338   8.499 -0.0344 -0.0851 -0.0270
  604PYPI   C1B 9533   7.001   4.921   9.783 -0.1559  0.2502  0.2749
  604PYPI   C2B 9534   7.042   4.861   9.420  0.0065  0.1401  0.1661
  604PYPI   C3B 9535   7.145   4.843   9.041  0.0078  0.0857  0.3899
  604PYPI   C4B 9536   7.143   4.780   8.558 -0.0857 -0.1649 -0.0014
  605PYPI    C1 9537   6.179  17.696  10.724  0.3227  0.0564  0.0919
  605PYPI    C2 9538   6.060  17.704  11.106  0.3427  0.0593  0.0982
  605PYPI    C3 9539   6.239  17.378  10.959 -0.1869 -0.1669 -0.0681
  605PYPI   PO4 9540   5.906  17.734  10.553 -0.1262  0.1774  0.0639
  605PYPI   GL1 9541   5.871  18.038  10.305 -0.2092  0.2530  0.1547
  605PYPI   GL2 9542   5.836  18.339  10.415  0.1554 -0.1432  0.0606
  605PYPI   C1A 9543   6.069  18.169   9.928 -0.0308 -0.0166  0.0376
  605PYPI   C2A 9544   5.915  18.246   9.640  0.0674 -0.1366  0.0390
  605PYPI   D3A 9545   5.857  18.268   9.210 -0.2635  0.0043 -0.1801
  605PYPI   C4A 9546   6.055  18.637   8.935  0.1284 -0.2781 -0.2063
  605PYPI   C1B 9547   5.897  18.596  10.033  0.1448 -0.1048  0.1050
  605PYPI   C2B 9548   5.850  18.764   9.604  0.0944  0.2477  0.0823
  605PYPI   C3B 9549   5.725  18.732   9.278 -0.0694 -0.1652  0.1899
  605PYPI   C4B 9550   5.580  18.919   9.033 -0.0787  0.0935  0.1066
  606PYPI    C1 9551   1.888   2.368  10.750 -0.1211 -0.0788 -0.0220
  606PYPI    C2 9552   2.227   2.367  10.536 -0.0758  0.0669  0.0474
  606PYPI    C3 9553   2.131   2.051  10.762 -0.0628 -0.0372 -0.0913
  606PYPI   PO4 9554   1.736   2.424  10.557  0.0709  0.0328  0.1873
  606PYPI   GL1 9555   1.802   2.249  10.220  0.0359  0.1369  0.0815
  606PYPI   GL2 9556   2.037   2.008  10.232  0.2357 -0.1272 -0.1043
  606PYPI   C1A 9557   1.716   2.393   9.819 -0.1665 -0.0306  0.1733
  606PYPI   C2A 9558   1.697   2.342   9.376 -0.2221 -0.0705 -0.0332
  606PYPI   D3A 9559   1.587   2.311   8.866 -0.1341  0.1689 -0.0409
  606PYPI   C4A 9560   1.290   2.453   8.619  0.0677  0.0513  0.0024
  606PYPI   C1B 9561   2.066   2.000   9.755 -0.2410  0.1690 -0.0700
  606PYPI   C2B 9562   2.057   2.007   9.273 -0.1933 -0.0003 -0.0062
  606PYPI   C3B 9563   2.105   1.863   8.831 -0.2657  0.0883 -0.0111
  606PYPI   C4B 9564   2.058   1.806   8.367 -0.0033  0.1101 -0.0815
  607ERGO   ROH 9565   6.655   7.588  10.248 -0.1705  0.0628 -0.2111
  607ERGO    R1 9566   6.843   7.666  10.051 -0.0691  0.0977 -0.1019
  607ERGO    R2 9567   6.930   7.496   9.851  0.0689  0.1169 -0.0637
  607ERGO    R3 9568   6.849   7.698   9.689  0.1297  0.1136 -0.0973
  607ERGO    R4 9569   7.057   7.559   9.536  0.1814  0.1155 -0.0188
  607ERGO    R5 9570   7.050   7.772   9.581  0.1655  0.1129 -0.0261
  607ERGO    C1 9571   7.055   7.785   9.200  0.3040  0.1117 -0.0242
  607ERGO    C2 9572   7.063   7.707   8.928 -0.4694  0.3717  0.1108
  608ERGO   ROH 9573  17.464  12.938  10.097 -0.0875 -0.0120 -0.1244
  608ERGO    R1 9574  17.509  12.878   9.824  0.1641  0.1732 -0.1276
  608ERGO    R2 9575  17.304  12.843   9.643  0.3071 -0.2308 -0.2244
  608ERGO    R3 9576  17.437  13.034   9.503 -0.0533  0.1225 -0.1054
  608ERGO    R4 9577  17.302  12.873   9.299  0.5454 -0.2631 -0.2293
  608ERGO    R5 9578  17.515  12.920   9.307  0.4317  0.2993 -0.0324
  608ERGO    C1 9579  17.426  13.069   8.967  0.3458  0.0498 -0.1205
  608ERGO    C2 9580  17.371  12.942   8.616  0.0117  0.1626  0.1362
  609ERGO   ROH 9581   6.387   3.568   9.821 -0.0918 -0.0205  0.1341
  609ERGO    R1 9582   6.533   3.360   9.695 -0.0742 -0.0306  0.1681
  609ERGO    R2 9583   6.419   3.190   9.509 -0.0833 -0.1250  0.2489
  609ERGO    R3 9584   6.628   3.272   9.355 -0.1418 -0.1201  0.1741
  609ERGO    R4 9585   6.520   3.040   9.214 -0.2003 -0.0906  0.1924
  609ERGO    R5 9586   6.726   3.069   9.275 -0.1810 -0.1079  0.1105
  609ERGO    C1 9587   6.774   3.029   8.899 -0.3233 -0.0660  0.0891
  609ERGO    C2 9588   6.855   3.065   8.649 -0.2414  0.2263  0.0938
  610ERGO   ROH 9589  14.905   4.253   9.623  0.0515 -0.1192 -0.1288
  610ERGO    R1 9590  14.820   4.294   9.356 -0.0632  0.0358 -0.0708
  610ERGO    R2 9591  14.750   4.085   9.188 -0.0261  0.1230 -0.1987
  610ERGO    R3 9592  14.520   4.227   9.161 -0.1024  0.0375 -0.0109
  610ERGO    R4 9593  14.504   4.018   8.955 -0.0810  0.1770 -0.1556
  610ERGO    R5 9594  14.482   4.233   8.925 -0.1924  0.1902  0.0068
  610ERGO    C1 9595  14.144   4.113   8.794 -0.1847  0.1283  0.0458
  610ERGO    C2 9596  13.809   4.052   8.813  0.0375 -0.1530  0.3529
  611ERGO   ROH 9597   3.752  10.896   9.942  0.1664  0.0788 -0.0742
  611ERGO    R1 9598   3.606  10.927   9.702  0.0774 -0.1455 -0.0525
  611ERGO    R2 9599   3.600  11.164   9.560 -0.4147 -0.1042  0.0119
  611ERGO    R3 9600   3.682  11.007   9.355 -0.1079  0.1105 -0.0360
  611ERGO    R4 9601   3.537  11.226   9.226 -0.4902 -0.1039  0.0268
  611ERGO    R5 9602   3.501  11.013   9.199 -0.1051 -0.1625 -0.0511
  611ERGO    C1 9603   3.578  11.114   8.839 -0.2462  0.0977 -0.0096
  611ERGO    C2 9604   3.640  11.099   8.556  0.0112  0.0509  0.2169
  612ERGO   ROH 9605   9.688   2.267  10.167 -0.0094  0.2618 -0.0040
  612ERGO    R1 9606   9.589   2.356   9.917  0.1508  0.3963 -0.0219
  612ERGO    R2 9607   9.754   2.404   9.701  0.2335 -0.1182 -0.0878
  612ERGO    R3 9608   9.585   2.232   9.575 -0.2394  0.2336  0.0372
  612ERGO    R4 9609   9.717   2.380   9.358  0.5048 -0.5448 -0.0941
  612ERGO    R5 9610   9.502   2.357   9.388  0.3695  0.2362 -0.2557
  612ERGO    C1 9611   9.537   2.205   9.040  0.2189 -0.4630  0.0196
  612ERGO    C2 9612   9.556   2.207   8.693  0.0892  0.0362  0.2144
  613ERGO   ROH 9613   5.832  10.671  10.217 -0.2111 -0.0286 -0.1900
  613ERGO    R1 9614   5.948  10.745   9.970 -0.0663 -0.0294 -0.1233
  613ERGO    R2 9615   6.000  10.562   9.770 -0.0776 -0.0094 -0.1454
  613ERGO    R3 9616   5.852  10.733   9.619  0.0759  0.1058 -0.1676
  613ERGO    R4 9617   6.050  10.622   9.433 -0.1027 -0.1939 -0.1829
  613ERGO    R5 9618   6.011  10.833   9.470  0.1511 -0.1321 -0.2510
  613ERGO    C1 9619   5.941  10.817   9.095  0.0268 -0.1930 -0.2255
  613ERGO    C2 9620   5.873  10.911   8.777  0.0194  0.1929 -0.0164
  614ERGO   ROH 9621  10.756   8.051   9.873 -0.0077 -0.0986  0.0019
  614ERGO    R1 9622  10.701   8.090   9.598  0.1152 -0.0113 -0.0107
  614ERGO    R2 9623  10.900   8.108   9.408  0.1932 -0.1914  0.0546
  614ERGO    R3 9624  10.760   7.907   9.289  0.0251 -0.0376 -0.0131
  614ERGO    R4 9625  10.865   8.066   9.066  0.1199 -0.0231  0.0400
  614ERGO    R5 9626  10.657   8.011   9.099  0.0796  0.1211  0.0412
  614ERGO    C1 9627  10.713   7.854   8.756 -0.0807  0.2192 -0.0322
  614ERGO    C2 9628  10.716   7.944   8.410 -0.1265  0.0988 -0.4465
  615ERGO   ROH 9629  12.034  16.811   9.960  0.0673 -0.0781  0.0108
  615ERGO    R1 9630  12.068  16.959   9.722 -0.1701 -0.1097 -0.0444
  615ERGO    R2 9631  12.267  16.903   9.538 -0.0400  0.1743  0.0093
  615ERGO    R3 9632  12.059  16.891   9.364 -0.0006 -0.2734 -0.0205
  615ERGO    R4 9633  12.295  16.835   9.200  0.1697  0.2712  0.0048
  615ERGO    R5 9634  12.144  16.987   9.162 -0.1771 -0.0516  0.0025
  615ERGO    C1 9635  12.115  16.784   8.841  0.3288 -0.0927 -0.0257
  615ERGO    C2 9636  12.118  16.773   8.490 -0.0489 -0.0037 -0.0021
  616ERGO   ROH 9637   2.575   9.833   9.848  0.4077 -0.0646  0.0447
  616ERGO    R1 9638   2.448   9.861   9.596  0.1714 -0.0095  0.1672
  616ERGO    R2 9639   2.573   9.798   9.359  0.0262  0.2439  0.0188
  616ERGO    R3 9640   2.354   9.642   9.321  0.1222  0.0851  0.1080
  616ERGO    R4 9641   2.372   9.804   9.078 -0.2149  0.2525  0.1888
  616ERGO    R5 9642   2.198   9.784   9.208 -0.0925  0.0288  0.3241
  616ERGO    C1 9643   2.049   9.661   8.879 -0.2652  0.1084  0.3716
  616ERGO    C2 9644   2.036   9.390   8.532 -0.0198  0.2031 -0.1620
  617ERGO   ROH 9645   7.635   6.509  10.199 -0.2139 -0.1095 -0.0901
  617ERGO    R1 9646   7.734   6.452   9.940 -0.2685 -0.0776 -0.1182
  617ERGO    R2 9647   7.860   6.214   9.878  0.0882  0.0902 -0.0673
  617ERGO    R3 9648   7.671   6.203   9.682 -0.0140 -0.3155  0.0440
  617ERGO    R4 9649   7.919   6.120   9.550  0.0990  0.2213 -0.1032
  617ERGO    R5 9650   7.785   6.279   9.486 -0.2898 -0.0621 -0.0246
  617ERGO    C1 9651   7.777   6.056   9.176  0.0092 -0.0832 -0.0197
  617ERGO    C2 9652   7.844   6.016   8.874  0.1201 -0.0263  0.1327
  618ERGO   ROH 9653   9.331   4.580  10.228  0.1619  0.4039 -0.0467
  618ERGO    R1 9654   9.435   4.610   9.967  0.1183  0.1651 -0.0937
  618ERGO    R2 9655   9.467   4.396   9.794 -0.1301  0.0397  0.0115
  618ERGO    R3 9656   9.318   4.551   9.627 -0.0318  0.0907 -0.0302
  618ERGO    R4 9657   9.460   4.367   9.449 -0.0152  0.0628  0.0067
  618ERGO    R5 9658   9.457   4.584   9.436  0.0467  0.0664  0.0204
  618ERGO    C1 9659   9.315   4.495   9.093  0.1442  0.1241 -0.0352
  618ERGO    C2 9660   9.431   4.336   8.912  0.1752  0.0597 -0.0442
  619ERGO   ROH 9661   6.313   5.119   9.920  0.3121 -0.1684  0.1193
  619ERGO    R1 9662   6.455   5.020   9.696  0.3181 -0.0481  0.0695
  619ERGO    R2 9663   6.329   4.929   9.468  0.3121 -0.2109  0.1357
  619ERGO    R3 9664   6.489   5.110   9.345  0.0692 -0.0545  0.0424
  619ERGO    R4 9665   6.448   4.900   9.145  0.2538 -0.1535  0.1090
  619ERGO    R5 9666   6.640   4.977   9.214  0.1859  0.0856  0.0338
  619ERGO    C1 9667   6.669   5.053   8.842 -0.0082  0.0266  0.0057
  619ERGO    C2 9668   6.603   4.986   8.540 -0.1707  0.0820  0.1827
  620ERGO   ROH 9669   4.803  10.135  10.041  0.0922  0.0273 -0.0218
  620ERGO    R1 9670   4.640  10.137   9.809 -0.0195  0.0347  0.0569
  620ERGO    R2 9671   4.503  10.361   9.725  0.0615  0.0772  0.0484
  620ERGO    R3 9672   4.634  10.314   9.492 -0.0801 -0.0716 -0.0032
  620ERGO    R4 9673   4.412  10.490   9.418 -0.0240  0.0368  0.0563
  620ERGO    R5 9674   4.460  10.297   9.328 -0.1776 -0.0236  0.0899
  620ERGO    C1 9675   4.481  10.520   9.019 -0.2068 -0.1265  0.0124
  620ERGO    C2 9676   4.499  10.678   8.704  0.1219 -0.0120  0.3315
  621ERGO   ROH 9677   0.112   5.114   9.775 -0.1187 -0.0076  0.0175
  621ERGO    R1 9678   0.189   5.058   9.509 -0.0745 -0.0288  0.0344
  621ERGO    R2 9679   0.018   5.091   9.294  0.0025  0.0817 -0.0120
  621ERGO    R3 9680   0.221   5.245   9.198  0.1140 -0.0205  0.0580
  621ERGO    R4 9681   0.092   5.135   8.959  0.1379  0.0541  0.0135
  621ERGO    R5 9682   0.303   5.123   9.009  0.1146 -0.0566  0.0829
  621ERGO    C1 9683   0.325   5.304   8.674  0.3214 -0.0580  0.0943
  621ERGO    C2 9684   0.404   5.470   8.473 -0.1000  0.1656 -0.2243
  622ERGO   ROH 9685  10.328  15.681  10.052 -0.0145  0.1209  0.0047
  622ERGO    R1 9686  10.182  15.569   9.837  0.1115  0.0115 -0.0252
  622ERGO    R2 9687  10.051  15.725   9.650  0.0036 -0.0863 -0.0301
  622ERGO    R3 9688  10.198  15.579   9.473  0.1540  0.0540 -0.0227
  622ERGO    R4 9689   9.992  15.709   9.309 -0.0828 -0.2837 -0.0075
  622ERGO    R5 9690  10.037  15.496   9.316  0.2161 -0.2245  0.0547
  622ERGO    C1 9691  10.096  15.563   8.946  0.0080 -0.2669  0.0126
  622ERGO    C2 9692   9.888  15.645   8.589  0.0107 -0.0664  0.1523
  623ERGO   ROH 9693  17.355   5.136   9.768 -0.3199 -0.0889  0.0393
  623ERGO    R1 9694  17.176   5.220   9.565 -0.2357 -0.0865 -0.0355
  623ERGO    R2 9695  17.245   5.405   9.372 -0.1439 -0.1070 -0.0258
  623ERGO    R3 9696  17.165   5.209   9.202 -0.0979 -0.1140 -0.0387
  623ERGO    R4 9697  17.167   5.452   9.039 -0.2969 -0.0787  0.0141
  623ERGO    R5 9698  17.000   5.314   9.064 -0.2090 -0.1769  0.0465
  623ERGO    C1 9699  17.045   5.295   8.685 -0.3429 -0.0687  0.0252
  623ERGO    C2 9700  17.103   5.236   8.387  0.1214 -0.0606  0.1577
  624ERGO   ROH 9701  14.831   5.241   9.776  0.1237 -0.1998 -0.0027
  624ERGO    R1 9702  14.878   5.185   9.503  0.1703 -0.0129 -0.0332
  624ERGO    R2 9703  14.677   5.115   9.328  0.2496 -0.2433 -0.0306
  624ERGO    R3 9704  14.773   5.323   9.183 -0.0829 -0.0322  0.0387
  624ERGO    R4 9705  14.602   5.173   8.996  0.2543 -0.3358 -0.0488
  624ERGO    R5 9706  14.811   5.230   8.965  0.1715  0.0629  0.0350
  624ERGO    C1 9707  14.649   5.403   8.666 -0.0551 -0.1915  0.0055
  624ERGO    C2 9708  14.659   5.419   8.359  0.3016 -0.0950 -0.0790
  625ERGO   ROH 9709  10.543  14.685   9.733  0.0874  0.1543 -0.1647
  625ERGO    R1 9710  10.703  14.720   9.502  0.1241  0.0564 -0.1538
  625ERGO    R2 9711  10.789  14.509   9.346 -0.0195  0.0083 -0.1605
  625ERGO    R3 9712  10.673  14.651   9.146  0.0951  0.1030 -0.1620
  625ERGO    R4 9713  10.861  14.472   9.010 -0.3183 -0.3446 -0.1930
  625ERGO    R5 9714  10.850  14.688   8.989  0.0669 -0.3228 -0.3154
  625ERGO    C1 9715  10.794  14.584   8.627 -0.3848 -0.4613 -0.2134
  625ERGO    C2 9716  10.630  14.337   8.511 -0.0939 -0.0175  0.1042
  626ERGO   ROH 9717  12.641   9.860  10.343  0.0625  0.1014 -0.2255
  626ERGO    R1 9718  12.716   9.780  10.082  0.0966  0.1502 -0.2312
  626ERGO    R2 9719  12.535   9.672   9.902  0.1624 -0.0178 -0.2006
  626ERGO    R3 9720  12.627   9.872   9.741 -0.0317  0.0546 -0.2238
  626ERGO    R4 9721  12.525   9.669   9.556  0.2916 -0.1279 -0.2042
  626ERGO    R5 9722  12.724   9.759   9.554  0.1807  0.1235 -0.1569
  626ERGO    C1 9723  12.605   9.855   9.205  0.1846 -0.1243 -0.2280
  626ERGO    C2 9724  12.632   9.773   8.852  0.0364 -0.1389  0.0283
  627ERGO   ROH 9725   3.271  10.697   9.895  0.0810 -0.1981 -0.0229
  627ERGO    R1 9726   3.236  10.585   9.637  0.1971 -0.0668 -0.0976
  627ERGO    R2 9727   3.011  10.634   9.483  0.0991 -0.2698 -0.0262
  627ERGO    R3 9728   3.195  10.711   9.298 -0.0320  0.1218 -0.0021
  627ERGO    R4 9729   2.980  10.587   9.143  0.1081 -0.0466 -0.0594
  627ERGO    R5 9730   3.192  10.536   9.135  0.1771  0.2423 -0.1383
  627ERGO    C1 9731   3.134  10.631   8.770 -0.0097  0.4511 -0.0563
  627ERGO    C2 9732   3.111  10.659   8.427  0.2800  0.1007  0.1101
  628ERGO   ROH 9733   9.229  16.833   9.955 -0.1641  0.0544  0.0983
  628ERGO    R1 9734   9.215  16.958   9.701 -0.0282  0.1265  0.1267
  628ERGO    R2 9735   9.434  16.986   9.536  0.0093 -0.0348  0.1583
  628ERGO    R3 9736   9.274  16.862   9.355 -0.0852  0.1553  0.1073
  628ERGO    R4 9737   9.513  16.936   9.203  0.0554 -0.1109  0.1790
  628ERGO    R5 9738   9.307  16.984   9.152  0.1186  0.1314  0.1194
  628ERGO    C1 9739   9.407  16.790   8.839 -0.0065  0.0230  0.1431
  628ERGO    C2 9740   9.429  16.766   8.545 -0.0388 -0.1378 -0.2781
  629ERGO   ROH 9741   5.690   2.811  10.147  0.1085  0.1034  0.1235
  629ERGO    R1 9742   5.552   2.897   9.916  0.1674  0.2434  0.1400
  629ERGO    R2 9743   5.638   3.109   9.761  0.5555 -0.0502 -0.0564
  629ERGO    R3 9744   5.624   2.927   9.560  0.0428 -0.1714  0.0742
  629ERGO    R4 9745   5.484   3.162   9.456  0.6729  0.1662 -0.0806
  629ERGO    R5 9746   5.406   2.959   9.466  0.1064  0.3656  0.0723
  629ERGO    C1 9747   5.380   3.022   9.091  0.2600  0.1784  0.0280
  629ERGO    C2 9748   5.284   2.884   8.790 -0.0351 -0.0917 -0.0829
  630ERGO   ROH 9749   1.953   6.784   9.924  0.3772 -0.3422 -0.0947
  630ERGO    R1 9750   1.839   6.861   9.676  0.1888 -0.1771  0.0394
  630ERGO    R2 9751   1.988   6.977   9.474  0.0246  0.0186  0.0225
  630ERGO    R3 9752   1.884   6.773   9.326 -0.0242  0.1042 -0.0608
  630ERGO    R4 9753   2.001   6.957   9.129  0.0547  0.1268  0.0175
  630ERGO    R5 9754   1.797   6.881   9.130  0.0338  0.1945 -0.0338
  630ERGO    C1 9755   1.912   6.755   8.789  0.0264  0.2702 -0.0639
  630ERGO    C2 9756   1.899   6.709   8.426  0.2208  0.0470 -0.0466
  631ERGO   ROH 9757   1.241  17.129  10.318  0.2822 -0.0231 -0.0026
  631ERGO    R1 9758   1.088  17.166  10.083  0.1938  0.0096  0.0595
  631ERGO    R2 9759   1.109  17.393   9.926  0.0726  0.0699  0.1284
  631ERGO    R3 9760   1.155  17.213   9.728  0.0644  0.1511  0.0522
  631ERGO    R4 9761   1.077  17.458   9.588 -0.1648  0.1477  0.1643
  631ERGO    R5 9762   0.987  17.261   9.564 -0.0630  0.0997  0.1635
  631ERGO    C1 9763   1.101  17.326   9.206 -0.3108  0.2693  0.1137
  631ERGO    C2 9764   1.048  17.278   8.854  0.0518  0.0998 -0.1158
  632ERGO   ROH 9765   7.816  15.727   9.982 -0.0386 -0.0009 -0.0157
  632ERGO    R1 9766   7.876  15.667   9.712 -0.0813 -0.0059 -0.0243
  632ERGO    R2 9767   7.724  15.494   9.560 -0.1301  0.0242 -0.0098
  632ERGO    R3 9768   7.712  15.705   9.389 -0.1132  0.0300 -0.0038
  632ERGO    R4 9769   7.672  15.470   9.219 -0.1512  0.0396 -0.0079
  632ERGO    R5 9770   7.820  15.627   9.190 -0.1334  0.0219 -0.0116
  632ERGO    C1 9771   7.631  15.654   8.860 -0.1476  0.0540 -0.0010
  632ERGO    C2 9772   7.422  15.683   8.565  0.0830  0.0729 -0.0507
  633ERGO   ROH 9773  11.601  10.753  10.105  0.1410 -0.2110 -0.0210
  633ERGO    R1 9774  11.664  10.785   9.831  0.1717  0.0164  0.0120
  633ERGO    R2 9775  11.470  10.793   9.634  0.2173 -0.3141 -0.0449
  633ERGO    R3 9776  11.591  11.028   9.570 -0.2400 -0.0317  0.0739
  633ERGO    R4 9777  11.475  10.933   9.318  0.1328 -0.2623 -0.0250
  633ERGO    R5 9778  11.683  10.990   9.352 -0.0004  0.1874  0.1282
  633ERGO    C1 9779  11.592  11.234   9.074 -0.3458  0.0330  0.0981
  633ERGO    C2 9780  11.466  11.373   8.841  0.2364  0.0306 -0.0149
  634ERGO   ROH 9781   2.447  12.074  10.313 -0.2604  0.0677 -0.0502
  634ERGO    R1 9782   2.535  12.090  10.044 -0.2144  0.1632 -0.0304
  634ERGO    R2 9783   2.453  11.912   9.850  0.1929 -0.0715 -0.0050
  634ERGO    R3 9784   2.382  12.139   9.718 -0.2304 -0.2437 -0.0874
  634ERGO    R4 9785   2.467  11.954   9.507  0.2692 -0.1067 -0.0058
  634ERGO    R5 9786   2.541  12.157   9.540 -0.1785  0.0622 -0.0115
  634ERGO    C1 9787   2.409  12.191   9.183 -0.0838 -0.2889 -0.0837
  634ERGO    C2 9788   2.428  12.157   8.822 -0.1185 -0.1604 -0.1215
  635ERGO   ROH 9789  14.314  11.465  10.197 -0.0127  0.0055 -0.0058
  635ERGO    R1 9790  14.301  11.295   9.971  0.0616  0.0578 -0.0505
  635ERGO    R2 9791  14.077  11.280   9.809  0.0431 -0.0424 -0.0209
  635ERGO    R3 9792  14.256  11.336   9.612 -0.0212  0.1296 -0.0312
  635ERGO    R4 9793  14.014  11.253   9.470  0.0285 -0.0177 -0.0198
  635ERGO    R5 9794  14.213  11.171   9.444  0.0834  0.1356 -0.0603
  635ERGO    C1 9795  14.145  11.291   9.088 -0.0406  0.1580 -0.0289
  635ERGO    C2 9796  14.096  11.293   8.710 -0.0483 -0.4178 -0.0973
  636ERGO   ROH 9797   0.757   6.001   9.799 -0.1780 -0.1231 -0.0151
  636ERGO    R1 9798   0.770   6.137   9.551 -0.1803 -0.0791  0.0091
  636ERGO    R2 9799   0.779   6.005   9.309 -0.1511 -0.0361 -0.0126
  636ERGO    R3 9800   0.564   6.161   9.252 -0.1663 -0.0517  0.0014
  636ERGO    R4 9801   0.685   6.104   8.992 -0.1801 -0.0463 -0.0074
  636ERGO    R5 9802   0.637   6.301   9.073 -0.1881 -0.0482 -0.0056
  636ERGO    C1 9803   0.428   6.309   8.754 -0.2111 -0.0668  0.0087
  636ERGO    C2 9804   0.173   6.320   8.482  0.5444  0.2412  0.0892
  637ERGO   ROH 9805   7.296  11.335  10.034  0.1651 -0.0944 -0.1307
  637ERGO    R1 9806   7.382  11.412   9.776 -0.0013 -0.2489 -0.2361
  637ERGO    R2 9807   7.302  11.281   9.546 -0.4516 -0.1589 -0.1418
  637ERGO    R3 9808   7.226  11.531   9.470 -0.1700 -0.0503 -0.0755
  637ERGO    R4 9809   7.242  11.380   9.220 -0.2563  0.0244 -0.1239
  637ERGO    R5 9810   7.341  11.568   9.263 -0.0721 -0.0938 -0.0278
  637ERGO    C1 9811   7.136  11.671   8.959  0.1216  0.2332 -0.0511
  637ERGO    C2 9812   6.902  11.889   8.752  0.1515  0.2908  0.0787
  638ERGO   ROH 9813   0.307  11.889   9.978  0.1698  0.2093  0.2577
  638ERGO    R1 9814   0.423  11.895   9.720  0.1645  0.0933  0.2535
  638ERGO    R2 9815   0.353  11.718   9.521  0.1517  0.0160  0.3358
  638ERGO    R3 9816   0.308  11.945   9.378  0.1646 -0.0444  0.2308
  638ERGO    R4 9817   0.396  11.748   9.179 -0.2675 -0.2809  0.2472
  638ERGO    R5 9818   0.481  11.946   9.213 -0.0418 -0.3220 -0.0049
  638ERGO    C1 9819   0.379  11.978   8.846 -0.4994 -0.5105  0.0971
  638ERGO    C2 9820   0.320  11.944   8.468 -0.0372 -0.0044  0.0282
  639ERGO   ROH 9821  16.285  11.458   9.892 -0.1816 -0.1671  0.0086
  639ERGO    R1 9822  16.346  11.386   9.625 -0.0786 -0.1123  0.0168
  639ERGO    R2 9823  16.202  11.481   9.409 -0.0782 -0.1699 -0.0114
  639ERGO    R3 9824  16.447  11.560   9.321 -0.0974 -0.0314  0.0576
  639ERGO    R4 9825  16.280  11.555   9.080 -0.0343 -0.0694  0.0213
  639ERGO    R5 9826  16.471  11.454   9.108  0.0074  0.0223  0.0448
  639ERGO    C1 9827  16.556  11.672   8.807 -0.0268  0.1192  0.1052
  639ERGO    C2 9828  16.593  11.948   8.535  0.2957  0.1548  0.1604
  640ERGO   ROH 9829   5.383   9.082  10.195 -0.0161  0.0075  0.0663
  640ERGO    R1 9830   5.281   9.108   9.932 -0.1080  0.3042  0.1270
  640ERGO    R2 9831   5.247   9.354   9.809  0.4986  0.4246  0.1628
  640ERGO    R3 9832   5.400   9.241   9.615  0.0826 -0.0022  0.0673
  640ERGO    R4 9833   5.309   9.494   9.499  0.6643  0.2369  0.1096
  640ERGO    R5 9834   5.288   9.297   9.411  0.0862  0.2724  0.1389
  640ERGO    C1 9835   5.488   9.470   9.136  0.3704 -0.2731 -0.0111
  640ERGO    C2 9836   5.589   9.553   8.840  0.0689  0.1257 -0.2325
  641ERGO   ROH 9837  15.893   9.502  10.033  0.3055 -0.1085  0.0007
  641ERGO    R1 9838  15.739   9.558   9.803  0.1838 -0.1031  0.0822
  641ERGO    R2 9839  15.805   9.759   9.625  0.0593 -0.0608  0.0806
  641ERGO    R3 9840  15.792   9.558   9.443  0.0135 -0.0361  0.0566
  641ERGO    R4 9841  15.845   9.799   9.284  0.0303 -0.0280  0.0810
  641ERGO    R5 9842  15.683   9.657   9.253  0.0091 -0.0005  0.0796
  641ERGO    C1 9843  15.856   9.634   8.914 -0.0297  0.0142  0.0589
  641ERGO    C2 9844  15.945   9.663   8.543 -0.3064 -0.1113  0.1032
  642ERGO   ROH 9845   2.478  16.374  10.173 -0.0695  0.0696  0.0362
  642ERGO    R1 9846   2.383  16.268   9.928  0.0546 -0.0159  0.0227
  642ERGO    R2 9847   2.175  16.383   9.787 -0.0391 -0.2003 -0.0038
  642ERGO    R3 9848   2.355  16.381   9.584 -0.0067 -0.0330  0.0237
  642ERGO    R4 9849   2.095  16.372   9.451  0.0314 -0.1334 -0.0222
  642ERGO    R5 9850   2.260  16.234   9.420  0.1079 -0.0277 -0.0416
  642ERGO    C1 9851   2.218  16.364   9.064  0.1029  0.0626 -0.0071
  642ERGO    C2 9852   2.344  16.355   8.758  0.2221 -0.0165 -0.3798
  643ERGO   ROH 9853   4.598   4.662   9.811 -0.0269  0.0468  0.0261
  643ERGO    R1 9854   4.554   4.604   9.537 -0.1523  0.1586  0.0215
  643ERGO    R2 9855   4.447   4.788   9.361  0.0861  0.3493  0.0711
  643ERGO    R3 9856   4.671   4.733   9.218 -0.0106  0.0497  0.0287
  643ERGO    R4 9857   4.490   4.860   9.025  0.1203  0.2908  0.0627
  643ERGO    R5 9858   4.590   4.668   9.002 -0.1383  0.1556  0.0439
  643ERGO    C1 9859   4.726   4.849   8.696  0.0493 -0.0246  0.0180
  643ERGO    C2 9860   4.831   4.709   8.475 -0.2331 -0.1475 -0.2150
  644ERGO   ROH 9861  11.534   8.571   9.992 -0.1614 -0.3047  0.1363
  644ERGO    R1 9862  11.761   8.543   9.824 -0.0694 -0.1700  0.2376
  644ERGO    R2 9863  11.858   8.296   9.745 -0.1187 -0.1034 -0.0240
  644ERGO    R3 9864  11.831   8.402   9.496  0.0794  0.2328  0.0896
  644ERGO    R4 9865  12.039   8.197   9.468 -0.3709 -0.2198 -0.1516
  644ERGO    R5 9866  12.054   8.406   9.409  0.0908 -0.1744  0.0726
  644ERGO    C1 9867  12.119   8.239   9.073 -0.3317  0.0281 -0.1191
  644ERGO    C2 9868  12.044   8.218   8.756 -0.1371 -0.0089  0.2479
  645ERGO   ROH 9869  12.562  14.712  10.180  0.0640 -0.2031 -0.1479
  645ERGO    R1 9870  12.434  14.714   9.928  0.0882 -0.0019 -0.1602
  645ERGO    R2 9871  12.180  14.817   9.890  0.0559 -0.0519 -0.0839
  645ERGO    R3 9872  12.304  14.966   9.700  0.0243  0.1779  0.0706
  645ERGO    R4 9873  12.021  14.971   9.626  0.0722 -0.1655 -0.1607
  645ERGO    R5 9874  12.187  14.913   9.498  0.2580  0.0943 -0.0465
  645ERGO    C1 9875  12.044  15.201   9.292  0.0522 -0.0158 -0.0604
  645ERGO    C2 9876  12.058  15.286   9.044 -0.0873  0.1151  0.0370
  646ERGO   ROH 9877  10.288  11.345  10.064  0.2153  0.1225  0.1503
  646ERGO    R1 9878  10.494  11.357   9.870  0.0955  0.2851  0.0305
  646ERGO    R2 9879  10.520  11.169   9.669  0.2392  0.1931  0.1364
  646ERGO    R3 9880  10.516  11.388   9.508 -0.1472  0.0907 -0.0040
  646ERGO    R4 9881  10.575  11.165   9.328  0.1437  0.0579  0.1217
  646ERGO    R5 9882  10.690  11.349   9.349 -0.1288  0.2558 -0.0294
  646ERGO    C1 9883  10.603  11.368   8.978 -0.2747 -0.1169 -0.0188
  646ERGO    C2 9884  10.522  11.563   8.656 -0.0144  0.0947  0.0668
  647ERGO   ROH 9885   5.718   8.069  10.388 -0.4287  0.2015  0.0016
  647ERGO    R1 9886   5.883   8.045  10.159 -0.3250  0.1732  0.0792
  647ERGO    R2 9887   5.823   7.875   9.949 -0.2417  0.1673  0.0652
  647ERGO    R3 9888   5.848   8.102   9.801 -0.1522  0.1533  0.0568
  647ERGO    R4 9889   5.957   7.891   9.631 -0.1947  0.1016  0.0809
  647ERGO    R5 9890   6.056   8.076   9.686 -0.1416  0.0776  0.0854
  647ERGO    C1 9891   6.057   8.113   9.306 -0.0834  0.0503  0.0821
  647ERGO    C2 9892   6.062   8.066   9.000 -0.0934 -0.1466  0.1670
  648ERGO   ROH 9893  16.320   9.404   9.928 -0.1003 -0.0703  0.1248
  648ERGO    R1 9894  16.198   9.417   9.672 -0.0735 -0.0570  0.1118
  648ERGO    R2 9895  16.232   9.631   9.501 -0.0840 -0.0303  0.1393
  648ERGO    R3 9896  16.310   9.437   9.327 -0.0363  0.0002  0.1276
  648ERGO    R4 9897  16.247   9.668   9.158 -0.2110 -0.0438  0.1327
  648ERGO    R5 9898  16.166   9.467   9.137 -0.1107 -0.0873  0.1707
  648ERGO    C1 9899  16.328   9.508   8.794 -0.2401 -0.0230  0.1178
  648ERGO    C2 9900  16.543   9.448   8.547  0.1703  0.2259  0.4490
  649ERGO   ROH 9901  14.060  13.308   9.785 -0.0579 -0.0668 -0.0507
  649ERGO    R1 9902  14.235  13.290   9.564 -0.0548 -0.1491 -0.0405
  649ERGO    R2 9903  14.197  13.110   9.357 -0.2169 -0.0238 -0.1170
  649ERGO    R3 9904  14.212  13.333   9.203  0.0231  0.0278 -0.0263
  649ERGO    R4 9905  14.223  13.110   9.013 -0.2240  0.0869 -0.1188
  649ERGO    R5 9906  14.365  13.275   9.028 -0.0409 -0.0705 -0.0530
  649ERGO    C1 9907  14.251  13.320   8.667 -0.0030  0.1998 -0.0348
  649ERGO    C2 9908  14.214  13.316   8.251  0.0777 -0.0241  0.1168
  650ERGO   ROH 9909   1.301   0.126  10.347  0.2589  0.0077 -0.0140
  650ERGO    R1 9910   1.206   0.260  10.117  0.0441 -0.0703  0.0284
  650ERGO    R2 9911   1.376   0.381   9.935 -0.1435  0.1376  0.0004
  650ERGO    R3 9912   1.243   0.225   9.756 -0.0200  0.0160  0.0103
  650ERGO    R4 9913   1.419   0.392   9.592 -0.0351  0.0618  0.0104
  650ERGO    R5 9914   1.204   0.369   9.569 -0.0292 -0.0475 -0.0470
  650ERGO    C1 9915   1.320   0.251   9.225  0.1439 -0.0964  0.0254
  650ERGO    C2 9916   1.311   0.161   8.849 -0.0702  0.0949 -0.1873
  651ERGO   ROH 9917   4.092  16.009  10.308 -0.0806 -0.1254 -0.0068
  651ERGO    R1 9918   4.200  15.978  10.048 -0.0898 -0.2625  0.0047
  651ERGO    R2 9919   4.070  15.839   9.848 -0.2864 -0.0330 -0.0329
  651ERGO    R3 9920   4.104  16.070   9.709  0.1005 -0.0623  0.0027
  651ERGO    R4 9921   4.044  15.868   9.505 -0.3531  0.0831 -0.0185
  651ERGO    R5 9922   4.216  16.002   9.508 -0.0932 -0.2363 -0.0499
  651ERGO    C1 9923   4.062  16.101   9.174 -0.0287  0.1232  0.0233
  651ERGO    C2 9924   4.096  16.055   8.815 -0.1412  0.0258 -0.2412
  652ERGO   ROH 9925  13.853   1.754   9.842  0.2124  0.0045  0.0389
  652ERGO    R1 9926  13.706   1.658   9.620  0.1458  0.0989  0.0398
  652ERGO    R2 9927  13.627   1.822   9.412  0.2295  0.1576  0.0453
  652ERGO    R3 9928  13.756   1.636   9.260  0.1211  0.0890  0.0390
  652ERGO    R4 9929  13.621   1.809   9.066  0.0057 -0.0015  0.0541
  652ERGO    R5 9930  13.605   1.592   9.079  0.0068  0.0115  0.1580
  652ERGO    C1 9931  13.737   1.628   8.723 -0.2265 -0.1586  0.0534
  652ERGO    C2 9932  13.560   1.616   8.349  0.2283 -0.0737 -0.2485
  653ERGO   ROH 9933  10.260   1.536   9.970 -0.0202 -0.0555 -0.0377
  653ERGO    R1 9934  10.223   1.648   9.713 -0.0234 -0.0674 -0.0424
  653ERGO    R2 9935  10.404   1.610   9.507  0.0235  0.0039 -0.0141
  653ERGO    R3 9936  10.184   1.523   9.373  0.0779 -0.0800 -0.0502
  653ERGO    R4 9937  10.384   1.568   9.164  0.0499  0.1453 -0.0337
  653ERGO    R5 9938  10.183   1.650   9.170 -0.0057  0.0124  0.0064
  653ERGO    C1 9939  10.166   1.461   8.840  0.1162  0.1489 -0.0792
  653ERGO    C2 9940  10.293   1.371   8.482  0.2904 -0.0249 -0.1073
  654ERGO   ROH 9941   9.943   8.998  10.002 -0.0806  0.1300 -0.0606
  654ERGO    R1 9942  10.006   9.078   9.738  0.0654  0.0465 -0.0531
  654ERGO    R2 9943  10.203   8.954   9.588  0.0197 -0.1303  0.0261
  654ERGO    R3 9944  10.001   8.924   9.408  0.0490  0.0023 -0.0331
  654ERGO    R4 9945  10.243   8.852   9.260  0.1006  0.2559 -0.0878
  654ERGO    R5 9946  10.094   8.999   9.201  0.0519  0.2750  0.0606
  654ERGO    C1 9947  10.076   8.766   8.900  0.1750  0.6051 -0.2098
  654ERGO    C2 9948  10.150   8.494   8.639 -0.1407  0.1604  0.2722
  655ERGO   ROH 9949  15.919   6.986  10.214  0.1421 -0.1594 -0.0707
  655ERGO    R1 9950  15.829   7.131   9.988  0.0285 -0.1206 -0.0015
  655ERGO    R2 9951  16.002   7.246   9.806 -0.0593  0.0508  0.0169
  655ERGO    R3 9952  15.857   7.102   9.627 -0.0034  0.0360 -0.0164
  655ERGO    R4 9953  15.985   7.311   9.467  0.2162 -0.1145 -0.0318
  655ERGO    R5 9954  15.772   7.265   9.474  0.1895 -0.0008 -0.1620
  655ERGO    C1 9955  15.838   7.214   9.101  0.4291 -0.2246 -0.0913
  655ERGO    C2 9956  15.856   7.211   8.743 -0.2887  0.0387 -0.2003
  656ERGO   ROH 9957   5.361   0.555  10.352 -0.0775  0.1231  0.0108
  656ERGO    R1 9958   5.257   0.696  10.129 -0.1767  0.0337  0.0007
  656ERGO    R2 9959   5.403   0.737   9.898 -0.1381  0.2778  0.0699
  656ERGO    R3 9960   5.187   0.622   9.780  0.0594  0.0153 -0.0455
  656ERGO    R4 9961   5.331   0.751   9.560 -0.1207  0.4486  0.0723
  656ERGO    R5 9962   5.121   0.778   9.611 -0.1797  0.0590  0.0795
  656ERGO    C1 9963   5.087   0.651   9.253  0.0749  0.3017 -0.0346
  656ERGO    C2 9964   5.077   0.726   9.005  0.0033 -0.1517  0.1866
  657ERGO   ROH 9965   4.274   8.961   9.964  0.0007 -0.0304  0.0084
  657ERGO    R1 9966   4.351   9.100   9.730 -0.0993  0.0707  0.0360
  657ERGO    R2 9967   4.477   8.976   9.518  0.1757  0.2420  0.1014
  657ERGO    R3 9968   4.273   9.084   9.375  0.0796 -0.0624 -0.0000
  657ERGO    R4 9969   4.488   9.045   9.179  0.2796  0.3284  0.1208
  657ERGO    R5 9970   4.380   9.230   9.219 -0.0554  0.1521  0.0980
  657ERGO    C1 9971   4.302   9.186   8.848  0.2500  0.0930  0.0368
  657ERGO    C2 9972   4.433   9.117   8.567  0.0518 -0.1573 -0.3063
  658ERGO   ROH 9973   7.601   0.908   9.889 -0.0406 -0.2590  0.1198
  658ERGO    R1 9974   7.759   0.786   9.688  0.0216 -0.1139  0.0786
  658ERGO    R2 9975   7.666   0.577   9.532  0.1316 -0.1248  0.0244
  658ERGO    R3 9976   7.738   0.740   9.327  0.0312 -0.0236  0.0654
  658ERGO    R4 9977   7.771   0.470   9.221  0.0349  0.0227 -0.0597
  658ERGO    R5 9978   7.921   0.628   9.222  0.0126  0.0483 -0.0482
  658ERGO    C1 9979   7.899   0.561   8.847 -0.1158  0.2036 -0.0700
  658ERGO    C2 9980   7.870   0.421   8.517  0.4280 -0.1164  0.2247
  659ERGO   ROH 9981   4.479   3.571   9.846  0.0014  0.0099  0.1575
  659ERGO    R1 9982   4.611   3.611   9.599  0.0313  0.0324  0.1771
  659ERGO    R2 9983   4.584   3.436   9.386  0.1127  0.0136  0.1823
  659ERGO    R3 9984   4.513   3.662   9.252  0.0738 -0.0119  0.1584
  659ERGO    R4 9985   4.619   3.483   9.045  0.2587  0.0485  0.2007
  659ERGO    R5 9986   4.682   3.688   9.084  0.1446  0.0761  0.2429
  659ERGO    C1 9987   4.572   3.722   8.721  0.3072  0.0449  0.1889
  659ERGO    C2 9988   4.549   3.859   8.436  0.0069  0.1830 -0.0877
  660ERGO   ROH 9989  13.874   5.127   9.793 -0.1661 -0.0194  0.0632
  660ERGO    R1 9990  13.653   5.121   9.616 -0.0877 -0.1312 -0.0327
  660ERGO    R2 9991  13.531   5.351   9.522 -0.2497 -0.1935  0.0292
  660ERGO    R3 9992  13.579   5.238   9.280 -0.0506 -0.0343 -0.0087
  660ERGO    R4 9993  13.355   5.421   9.233 -0.3758 -0.3903  0.0560
  660ERGO    R5 9994  13.362   5.209   9.183 -0.0116 -0.3732 -0.0160
  660ERGO    C1 9995  13.298   5.357   8.837 -0.2622 -0.3553  0.0360
  660ERGO    C2 9996  13.323   5.434   8.525  0.0248  0.2352  0.0816
  661ERGO   ROH 9997  14.422   6.714  10.068 -0.1700  0.1323  0.0340
  661ERGO    R1 9998  14.488   6.807   9.809 -0.0733  0.1043  0.0476
  661ERGO    R2 9999  14.675   6.681   9.649 -0.1075  0.0087  0.0766
  661ERGO    R310000  14.471   6.678   9.470 -0.0794  0.1199  0.0432
  661ERGO    R410001  14.705   6.759   9.313 -0.0613  0.2080  0.1258
  661ERGO    R510002  14.515   6.864   9.326 -0.0575  0.2024  0.1598
  661ERGO    C110003  14.530   6.801   8.950 -0.0079  0.4284  0.1232
  661ERGO    C210004  14.601   6.807   8.540  0.0317  0.0359 -0.3331
  662ERGO   ROH10005  16.459  13.271  10.044 -0.2211  0.0146 -0.0183
  662ERGO    R110006  16.421  13.432   9.814 -0.0343  0.0909  0.0029
  662ERGO    R210007  16.631  13.557   9.684  0.1078 -0.1032  0.0416
  662ERGO    R310008  16.530  13.427   9.467 -0.0068  0.0331  0.0122
  662ERGO    R410009  16.698  13.640   9.355  0.2841 -0.1669  0.0603
  662ERGO    R510010  16.488  13.601   9.308  0.2439  0.0957  0.0120
  662ERGO    C110011  16.642  13.567   8.960  0.2790 -0.0760  0.0435
  662ERGO    C210012  16.663  13.469   8.563  0.2225 -0.1237  0.0788
  663ERGO   ROH10013  13.300  10.901  10.168 -0.3479  0.0079  0.0216
  663ERGO    R110014  13.176  10.915   9.913 -0.1346 -0.0250 -0.0860
  663ERGO    R210015  13.160  11.149   9.768 -0.1625 -0.0071 -0.0507
  663ERGO    R310016  13.277  10.998   9.574  0.1086  0.1099  0.0167
  663ERGO    R410017  13.163  11.228   9.431 -0.0315  0.0061 -0.0473
  663ERGO    R510018  13.129  11.017   9.387  0.2027 -0.0307 -0.0757
  663ERGO    C110019  13.275  11.132   9.053  0.2993  0.1235  0.0179
  663ERGO    C210020  13.301  11.035   8.789  0.3153  0.0005  0.2960
  664ERGO   ROH10021   7.148   6.723  10.034  0.0314  0.0553  0.0929
  664ERGO    R110022   7.284   6.585   9.828 -0.0025  0.2102 -0.0351
  664ERGO    R210023   7.195   6.343   9.727  0.2485  0.0354  0.1504
  664ERGO    R310024   7.209   6.475   9.490 -0.2548 -0.0056  0.0871
  664ERGO    R410025   7.244   6.192   9.420  0.1958  0.0279  0.1454
  664ERGO    R510026   7.376   6.356   9.366 -0.1623  0.2642 -0.0553
  664ERGO    C110027   7.285   6.227   9.019 -0.3073 -0.0150  0.0832
  664ERGO    C210028   7.306   6.182   8.783  0.0565 -0.1513  0.2681
  665ERGO   ROH10029   7.554   9.965  10.268 -0.3099  0.1336 -0.0192
  665ERGO    R110030   7.502  10.043  10.001 -0.2682  0.0885 -0.0397
  665ERGO    R210031   7.694  10.034   9.803 -0.2163  0.1374  0.0150
  665ERGO    R310032   7.508   9.885   9.674 -0.1282  0.0603 -0.0258
  665ERGO    R410033   7.632  10.047   9.464 -0.2166  0.2025  0.0168
  665ERGO    R510034   7.419  10.032   9.507 -0.2143  0.0623  0.0149
  665ERGO    C110035   7.421   9.914   9.144 -0.1340  0.1680 -0.0207
  665ERGO    C210036   7.387   9.943   8.783  0.0427 -0.0728 -0.1221
  666ERGO   ROH10037   1.616  13.273  10.211  0.0140  0.2387  0.1187
  666ERGO    R110038   1.737  13.328   9.961 -0.0286  0.0723  0.0606
  666ERGO    R210039   1.760  13.138   9.762 -0.1381 -0.0363  0.1525
  666ERGO    R310040   1.635  13.327   9.612 -0.1124 -0.0732  0.0840
  666ERGO    R410041   1.762  13.148   9.417  0.0969 -0.0089  0.1527
  666ERGO    R510042   1.785  13.365   9.428  0.0018  0.0019  0.1887
  666ERGO    C110043   1.646  13.331   9.074  0.2578 -0.0276  0.0887
  666ERGO    C210044   1.644  13.381   8.647 -0.3994  0.1284  0.0136
  667ERGO   ROH10045   5.563  17.815   9.938 -0.0062 -0.1117 -0.0139
  667ERGO    R110046   5.531  17.731   9.669 -0.2922  0.0185 -0.0239
  667ERGO    R210047   5.357  17.857   9.494 -0.0347  0.5004  0.0473
  667ERGO    R310048   5.580  17.878   9.339 -0.0105 -0.0292 -0.0056
  667ERGO    R410049   5.356  17.884   9.150 -0.0209  0.0827  0.0095
  667ERGO    R510050   5.528  17.750   9.143 -0.2238 -0.1932  0.1530
  667ERGO    C110051   5.564  17.920   8.804  0.0100 -0.6579 -0.0619
  667ERGO    C210052   5.555  18.062   8.386 -0.1014  0.1528 -0.2140
  668ERGO   ROH10053  17.823   6.998   9.783  0.0198  0.0257  0.0541
  668ERGO    R110054  17.845   7.182   9.569  0.0826 -0.0096  0.0300
  668ERGO    R210055  18.031   7.155   9.368  0.1098 -0.0698  0.0636
  668ERGO    R310056  17.813   7.172   9.207  0.1375 -0.0585  0.0266
  668ERGO    R410057  18.041   7.170   9.023  0.1625 -0.1837  0.0594
  668ERGO    R510058  17.881   7.318   9.030  0.2043 -0.1353 -0.0113
  668ERGO    C110059  17.842   7.195   8.671  0.2191 -0.2396  0.0222
  668ERGO    C210060  17.671   6.989   8.334 -0.0828  0.2037 -0.1473
  669ERGO   ROH10061   7.449  12.728  10.358 -0.5019  0.0480 -0.2348
  669ERGO    R110062   7.489  12.746  10.079 -0.2867 -0.0132 -0.2079
  669ERGO    R210063   7.608  12.965   9.959 -0.2866 -0.0001 -0.1706
  669ERGO    R310064   7.774  12.777   9.855 -0.1206  0.0436  0.0055
  669ERGO    R410065   7.756  12.983   9.647 -0.2694 -0.1335 -0.1721
  669ERGO    R510066   7.718  12.770   9.622 -0.0950 -0.1933 -0.0002
  669ERGO    C110067   7.997  12.817   9.367 -0.1036 -0.1703 -0.0077
  669ERGO    C210068   8.014  12.668   9.074  0.2237 -0.2511  0.2497
  670ERGO   ROH10069  16.025  11.095   9.779  0.0082  0.0721  0.0062
  670ERGO    R110070  16.060  10.993   9.517 -0.2898  0.0517 -0.0298
  670ERGO    R210071  15.943  11.108   9.295 -0.1180  0.3587  0.0314
  670ERGO    R310072  16.198  11.113   9.202 -0.1247 -0.1656 -0.0423
  670ERGO    R410073  16.033  11.169   8.967 -0.0805  0.3036  0.0318
  670ERGO    R510074  16.185  11.014   8.985 -0.4115 -0.0457 -0.0820
  670ERGO    C110075  16.325  11.209   8.689 -0.0652 -0.2207 -0.0371
  670ERGO    C210076  16.530  11.317   8.447 -0.1712  0.1687 -0.2176
  671ERGO   ROH10077  12.005  17.372  10.057 -0.1886  0.0031 -0.0826
  671ERGO    R110078  12.101  17.465   9.808 -0.0801  0.0377 -0.0284
  671ERGO    R210079  12.305  17.338   9.670 -0.0118  0.0647  0.0484
  671ERGO    R310080  12.122  17.337   9.468  0.0806  0.0799 -0.0358
  671ERGO    R410081  12.379  17.379   9.335  0.1637 -0.0513  0.0723
  671ERGO    R510082  12.201  17.502   9.315  0.2168  0.0115 -0.0432
  671ERGO    C110083  12.252  17.401   8.951  0.3526 -0.1048  0.0070
  671ERGO    C210084  12.228  17.300   8.540 -0.0605 -0.0565  0.0836
  672ERGO   ROH10085   2.089   1.569   9.920 -0.3303 -0.0332  0.0705
  672ERGO    R110086   2.015   1.462   9.669 -0.3085  0.0450  0.0308
  672ERGO    R210087   1.906   1.616   9.468  0.0334  0.1803 -0.0575
  672ERGO    R310088   2.110   1.514   9.321 -0.0037 -0.1112  0.0872
  672ERGO    R410089   1.888   1.540   9.131  0.1184  0.0634 -0.0362
  672ERGO    R510090   2.004   1.360   9.171 -0.1025 -0.0546  0.0971
  672ERGO    C110091   2.070   1.399   8.798  0.1330 -0.2782  0.1120
  672ERGO    C210092   1.958   1.241   8.410 -0.0492  0.2029 -0.2187
  673ERGO   ROH10093   7.654   8.853  10.484 -0.1349 -0.4029  0.0675
  673ERGO    R110094   7.588   8.956  10.229 -0.0432 -0.2502  0.1050
  673ERGO    R210095   7.778   9.053  10.054  0.0336 -0.2834  0.1753
  673ERGO    R310096   7.665   8.875   9.883 -0.0490 -0.1394  0.0762
  673ERGO    R410097   7.797   9.071   9.709  0.3527 -0.2935  0.1891
  673ERGO    R510098   7.588   9.009   9.700  0.2745 -0.0313  0.0106
  673ERGO    C110099   7.702   8.914   9.348  0.4610 -0.1641  0.1041
  673ERGO    C210100   7.816   8.876   8.971  0.0742 -0.1544 -0.0193
  674PSPI    C110101   0.353  13.331   5.655 -0.2094 -0.1740 -0.0300
  674PSPI    C210102   0.546  13.009   5.517 -0.1927 -0.0446 -0.3149
  674PSPI    C310103   0.623  13.370   5.362 -0.2380  0.0929 -0.0235
  674PSPI   PO410104   0.434  13.338   5.951 -0.1310 -0.3119  0.1976
  674PSPI   GL110105   0.372  13.212   6.353  0.2508  0.0569  0.1000
  674PSPI   GL210106   0.211  12.947   6.384  0.0209  0.0324  0.1957
  674PSPI   C1A10107   0.518  13.143   6.806 -0.0205  0.2100  0.1736
  674PSPI   C2A10108   0.603  13.325   7.113  0.0759 -0.1213 -0.0749
  674PSPI   C3A10109   0.484  13.490   7.428 -0.1341  0.0075 -0.2456
  674PSPI   C4A10110   0.461  13.336   7.854 -0.0677 -0.0339 -0.0980
  674PSPI   C1B10111   0.216  12.788   6.822 -0.0329 -0.3181  0.1552
  674PSPI   C2B10112   0.146  12.625   7.270 -0.0213  0.1124 -0.2677
  674PSPI   C3B10113   0.040  12.697   7.714  0.0174  0.0894  0.2411
  674PSPI   C4B10114   0.229  12.936   8.089  0.1334  0.5204  0.4739
  675PSPI    C110115   9.026   4.643   5.918 -0.1358  0.0432  0.0914
  675PSPI    C210116   8.845   4.954   6.091 -0.0904  0.1273 -0.0108
  675PSPI    C310117   8.672   4.769   5.781 -0.1308  0.0320  0.0679
  675PSPI   PO410118   9.314   4.726   6.020  0.1802  0.0441  0.1856
  675PSPI   GL110119   9.489   4.730   6.459 -0.1365 -0.0358  0.0788
  675PSPI   GL210120   9.100   4.694   6.500 -0.0619  0.1818 -0.0373
  675PSPI   C1A10121   9.441   4.826   6.857  0.1405  0.0175  0.0195
  675PSPI   C2A10122   9.668   4.700   7.280  0.2259  0.2016  0.3524
  675PSPI   C3A10123   9.764   5.024   7.692 -0.0453 -0.0954  0.3629
  675PSPI   C4A10124   9.923   5.302   7.980 -0.0698 -0.3539  0.1474
  675PSPI   C1B10125   9.255   4.320   6.687  0.1486 -0.2199  0.3060
  675PSPI   C2B10126   9.169   3.999   6.822  0.1952 -0.2224  0.1744
  675PSPI   C3B10127   9.176   4.003   7.241  0.1130  0.1414 -0.2737
  675PSPI   C4B10128   9.277   4.108   7.674 -0.0045 -0.0736 -0.0999
  676PSPI    C110129   0.885   8.934   6.275  0.0031 -0.0026  0.0385
  676PSPI    C210130   1.020   9.133   5.956 -0.2266 -0.1256 -0.1381
  676PSPI    C310131   0.783   9.317   6.220  0.0671  0.0136  0.0327
  676PSPI   PO410132   1.088   8.808   6.426 -0.0919 -0.1015  0.0419
  676PSPI   GL110133   1.422   8.972   6.722  0.0207  0.2730  0.0936
  676PSPI   GL210134   1.307   8.927   7.002  0.2514 -0.1607 -0.1493
  676PSPI   C1A10135   1.721   8.661   6.889  0.4277 -0.0106 -0.0567
  676PSPI   C2A10136   2.113   8.540   7.058 -0.0057 -0.1684  0.2897
  676PSPI   C3A10137   2.258   8.287   7.225 -0.0070 -0.0480 -0.1001
  676PSPI   C4A10138   2.140   7.911   7.400 -0.1948 -0.0996 -0.0252
  676PSPI   C1B10139   1.544   9.219   7.297  0.2793  0.0231  0.0035
  676PSPI   C2B10140   1.596   9.445   7.730 -0.0390 -0.2862  0.0736
  676PSPI   C3B10141   1.530   9.346   8.195 -0.0078 -0.2746 -0.2696
  676PSPI   C4B10142   1.496   9.249   8.670 -0.0210  0.2299 -0.0160
  677PSPI    C110143  12.341  12.262   5.637  0.0758 -0.2677  0.0341
  677PSPI    C210144  11.999  12.301   5.841  0.0666 -0.2108  0.0080
  677PSPI    C310145  12.003  12.100   5.495  0.0156 -0.0315 -0.0983
  677PSPI   PO410146  12.532  12.213   5.856  0.1843 -0.2472 -0.0281
  677PSPI   GL110147  12.363  12.329   6.293  0.0316 -0.1836 -0.3758
  677PSPI   GL210148  12.255  12.053   6.412 -0.1227  0.1706 -0.1468
  677PSPI   C1A10149  12.679  12.564   6.649 -0.1828  0.1587 -0.1477
  677PSPI   C2A10150  12.991  12.621   7.131 -0.2407 -0.3000  0.0941
  677PSPI   C3A10151  13.158  12.683   7.532 -0.0734  0.1153 -0.1700
  677PSPI   C4A10152  13.246  12.922   7.888 -0.2147 -0.1972 -0.2549
  677PSPI   C1B10153  12.138  12.135   6.851 -0.2102  0.0370 -0.2290
  677PSPI   C2B10154  12.111  12.103   7.324 -0.0779  0.0635 -0.0552
  677PSPI   C3B10155  11.931  11.756   7.549 -0.1670 -0.2839 -0.0394
  677PSPI   C4B10156  11.777  11.479   7.857 -0.0474  0.1003 -0.2301
  678PSPI    C110157   8.155   7.159   5.877  0.1065 -0.0799 -0.0224
  678PSPI    C210158   8.378   7.106   5.550 -0.0949 -0.0937 -0.1594
  678PSPI    C310159   8.017   7.275   5.520  0.0171  0.2009  0.1003
  678PSPI   PO410160   8.149   6.842   6.010 -0.2065 -0.0645 -0.0074
  678PSPI   GL110161   8.407   6.654   6.287 -0.1358  0.2729 -0.0467
  678PSPI   GL210162   8.195   6.844   6.491 -0.1290  0.2018 -0.0339
  678PSPI   C1A10163   8.656   6.543   6.604  0.0782 -0.0033 -0.2706
  678PSPI   C2A10164   8.835   6.603   7.016  0.2950  0.3065  0.0411
  678PSPI   C3A10165   8.725   6.499   7.439  0.0356  0.1202  0.2135
  678PSPI   C4A10166   8.659   6.203   7.777 -0.1544  0.0436 -0.2864
  678PSPI   C1B10167   8.205   6.896   6.958 -0.1533  0.0873  0.3174
  678PSPI   C2B10168   8.393   6.831   7.412 -0.0340  0.2346  0.0985
  678PSPI   C3B10169   8.547   6.727   7.877 -0.0073 -0.0253 -0.1245
  678PSPI   C4B10170   8.463   6.477   8.239  0.2219 -0.2618  0.0611
  679PSPI    C110171   4.882   7.682   5.576  0.0495  0.1767 -0.0049
  679PSPI    C210172   4.589   7.951   5.528  0.0759  0.2063 -0.0002
  679PSPI    C310173   4.970   8.057   5.468  0.0976  0.2061  0.1345
  679PSPI   PO410174   4.854   7.631   5.812  0.0017  0.1421  0.0769
  679PSPI   GL110175   4.749   7.792   6.269 -0.0127 -0.1989 -0.0089
  679PSPI   GL210176   5.069   7.967   6.317 -0.2623 -0.1692  0.0712
  679PSPI   C1A10177   4.693   7.741   6.720 -0.0420  0.0775  0.0806
  679PSPI   C2A10178   4.777   7.702   7.136  0.2902 -0.1722  0.1880
  679PSPI   C3A10179   4.502   7.652   7.497 -0.0992 -0.1880 -0.4326
  679PSPI   C4A10180   4.509   7.266   7.773  0.3962  0.2891 -0.2051
  679PSPI   C1B10181   5.204   7.957   6.747 -0.2826  0.0276 -0.1056
  679PSPI   C2B10182   5.280   7.874   7.267  0.0838  0.3390  0.1602
  679PSPI   C3B10183   5.451   7.962   7.666  0.2957 -0.0098 -0.2532
  679PSPI   C4B10184   5.401   7.993   8.154  0.0034  0.1099  0.0759
  680PSPI    C110185   5.433   4.562   5.780  0.1912  0.0320 -0.1378
  680PSPI    C210186   5.639   4.831   5.568  0.1135 -0.1107 -0.3987
  680PSPI    C310187   5.244   4.874   5.616  0.1235 -0.1038 -0.3225
  680PSPI   PO410188   5.631   4.393   5.862  0.5039  0.0128  0.0031
  680PSPI   GL110189   5.597   4.093   6.294 -0.1086  0.0692 -0.3312
  680PSPI   GL210190   5.857   4.260   6.333 -0.3109 -0.0539 -0.1466
  680PSPI   C1A10191   5.529   4.299   6.670 -0.0096 -0.0927  0.1528
  680PSPI   C2A10192   5.669   4.514   7.110 -0.0681 -0.4054  0.0683
  680PSPI   C3A10193   5.771   4.474   7.547  0.2478  0.1066  0.2570
  680PSPI   C4A10194   6.057   4.395   7.894  0.1939  0.1059 -0.2273
  680PSPI   C1B10195   6.043   4.285   6.726  0.0611 -0.0736 -0.0015
  680PSPI   C2B10196   5.956   4.094   7.170  0.2854 -0.1379  0.0496
  680PSPI   C3B10197   5.904   4.015   7.564 -0.2400 -0.2258  0.0637
  680PSPI   C4B10198   6.023   3.932   8.084  0.0610 -0.1369  0.0103
  681PSPI    C110199   7.681   1.200   5.405 -0.1850 -0.1688 -0.1330
  681PSPI    C210200   7.499   1.448   5.149 -0.0511 -0.2717 -0.3310
  681PSPI    C310201   7.368   1.072   5.192  0.0083 -0.2946 -0.3475
  681PSPI   PO410202   7.668   1.347   5.732 -0.0019  0.3563 -0.3406
  681PSPI   GL110203   7.737   1.461   6.134  0.1507 -0.0287  0.0854
  681PSPI   GL210204   7.895   1.053   6.143  0.0743  0.1669  0.1150
  681PSPI   C1A10205   7.726   1.404   6.552 -0.0680 -0.0246 -0.1714
  681PSPI   C2A10206   7.720   1.236   6.893  0.0187  0.1301  0.3332
  681PSPI   C3A10207   7.952   0.860   6.994  0.2089 -0.0218  0.1501
  681PSPI   C4A10208   8.318   0.803   7.276 -0.3622  0.1089  0.0144
  681PSPI   C1B10209   7.612   0.937   6.448  0.0240  0.1081 -0.1248
  681PSPI   C2B10210   7.453   0.794   6.836 -0.2825 -0.0186  0.0786
  681PSPI   C3B10211   7.421   0.632   7.253  0.1371 -0.1611 -0.1314
  681PSPI   C4B10212   7.501   0.749   7.725 -0.1198  0.1423  0.3034
  682PSPI    C110213   8.326  10.890   6.221  0.1847 -0.1011 -0.1409
  682PSPI    C210214   8.690  10.989   6.090  0.0807  0.1943 -0.2148
  682PSPI    C310215   8.372  11.040   5.853  0.0028 -0.1792 -0.1970
  682PSPI   PO410216   8.385  11.064   6.541 -0.2455 -0.1620 -0.1015
  682PSPI   GL110217   8.531  11.178   6.887 -0.0085 -0.3383 -0.0772
  682PSPI   GL210218   8.697  10.852   6.912 -0.0670  0.4039 -0.0730
  682PSPI   C1A10219   8.463  11.182   7.294  0.0485  0.0591  0.1754
  682PSPI   C2A10220   8.405  11.299   7.678 -0.1065  0.2272 -0.3457
  682PSPI   C3A10221   8.117  11.526   7.957  0.1237 -0.2562  0.0272
  682PSPI   C4A10222   7.710  11.743   7.958  0.0067 -0.3232  0.0157
  682PSPI   C1B10223   8.675  10.728   7.281 -0.1399 -0.1035 -0.1425
  682PSPI   C2B10224   8.529  10.788   7.741 -0.2947  0.0874 -0.3143
  682PSPI   C3B10225   8.291  10.838   8.118  0.1370 -0.1906  0.1768
  682PSPI   C4B10226   8.036  10.568   8.446  0.2617 -0.2875  0.0557
  683PSPI    C110227  16.912  11.721   5.691  0.0967 -0.1772 -0.0811
  683PSPI    C210228  16.652  11.841   5.412 -0.1132 -0.1841  0.1090
  683PSPI    C310229  17.034  11.959   5.394 -0.1554 -0.0773 -0.1065
  683PSPI   PO410230  16.917  11.399   5.776 -0.2270 -0.1072  0.0734
  683PSPI   GL110231  17.026  11.297   6.110  0.1808  0.0917 -0.0326
  683PSPI   GL210232  17.386  11.409   6.168 -0.2615  0.1992  0.1205
  683PSPI   C1A10233  16.989  11.134   6.413  0.2590 -0.1370 -0.1073
  683PSPI   C2A10234  16.841  10.863   6.826  0.1631 -0.3766 -0.0929
  683PSPI   C3A10235  16.725  10.686   7.207 -0.2299  0.0980  0.0945
  683PSPI   C4A10236  16.564  10.498   7.512  0.4303  0.1766 -0.0111
  683PSPI   C1B10237  17.487  11.475   6.616 -0.0412 -0.0554  0.2034
  683PSPI   C2B10238  17.446  11.431   7.096  0.0619  0.1878  0.0056
  683PSPI   C3B10239  17.373  11.543   7.506  0.0458  0.1372  0.1132
  683PSPI   C4B10240  17.292  11.421   7.944  0.1378  0.0141  0.0149
  684PSPI    C110241  12.263   0.866   5.470  0.0493 -0.0585  0.0976
  684PSPI    C210242  12.448   1.218   5.506 -0.0259 -0.0157  0.0672
  684PSPI    C310243  12.131   1.183   5.265 -0.1095 -0.0677  0.1841
  684PSPI   PO410244  12.225   0.768   5.760  0.3983 -0.0272  0.1935
  684PSPI   GL110245  12.214   0.651   6.174  0.1494  0.2254  0.0230
  684PSPI   GL210246  12.275   0.931   6.269 -0.2408 -0.0859 -0.2435
  684PSPI   C1A10247  12.178   0.517   6.547  0.2326  0.3417  0.1818
  684PSPI   C2A10248  12.278   0.585   6.989 -0.2286  0.2203  0.1448
  684PSPI   C3A10249  12.241   0.516   7.456 -0.0258  0.5111 -0.2294
  684PSPI   C4A10250  12.383   0.654   7.878 -0.2086 -0.0442  0.1111
  684PSPI   C1B10251  12.318   0.971   6.718  0.1603 -0.0184  0.3331
  684PSPI   C2B10252  12.337   1.037   7.071  0.0547 -0.1123 -0.2008
  684PSPI   C3B10253  12.497   1.008   7.523 -0.1195  0.2124 -0.2946
  684PSPI   C4B10254  12.318   1.156   7.860 -0.1965 -0.0512 -0.2067
  685PSPI    C110255  15.504   7.797   5.580  0.4116 -0.0050  0.0212
  685PSPI    C210256  15.370   8.142   5.426  0.0112 -0.1355  0.0647
  685PSPI    C310257  15.757   8.045   5.394  0.0892  0.2213 -0.1265
  685PSPI   PO410258  15.451   7.768   5.844  0.0126 -0.2217 -0.2597
  685PSPI   GL110259  15.227   7.772   6.203  0.1690  0.3198  0.1054
  685PSPI   GL210260  15.355   7.538   6.317 -0.0058 -0.0103 -0.3602
  685PSPI   C1A10261  15.210   7.940   6.676  0.2007 -0.0277  0.1189
  685PSPI   C2A10262  15.280   8.091   7.135 -0.0180  0.0654 -0.1841
  685PSPI   C3A10263  15.407   7.816   7.447  0.2677  0.0711 -0.1205
  685PSPI   C4A10264  15.593   7.702   7.873  0.0610  0.1112  0.3017
  685PSPI   C1B10265  15.431   7.405   6.726  0.1568 -0.3688  0.2443
  685PSPI   C2B10266  15.492   7.262   7.128  0.1941 -0.1557  0.1412
  685PSPI   C3B10267  15.567   7.333   7.577  0.1826  0.3557 -0.0323
  685PSPI   C4B10268  15.750   7.277   8.036  0.1120 -0.2344  0.2645
  686PSPI    C110269  14.343   4.885   5.685 -0.1277 -0.1042  0.1464
  686PSPI    C210270  14.377   5.201   5.442  0.0291 -0.0185  0.2773
  686PSPI    C310271  14.649   4.908   5.428  0.0484 -0.0048  0.3615
  686PSPI   PO410272  14.284   4.953   5.936 -0.0540  0.3321  0.1288
  686PSPI   GL110273  14.272   4.781   6.336 -0.4151  0.1904 -0.1170
  686PSPI   GL210274  14.154   5.193   6.349 -0.0260  0.0393 -0.1123
  686PSPI   C1A10275  14.446   4.500   6.713  0.0807  0.1055 -0.0563
  686PSPI   C2A10276  14.484   4.504   7.171 -0.1292 -0.0148 -0.0541
  686PSPI   C3A10277  14.497   4.279   7.484 -0.4154  0.3978 -0.1953
  686PSPI   C4A10278  14.327   4.047   7.868 -0.1444 -0.3002 -0.0619
  686PSPI   C1B10279  14.350   5.073   6.771 -0.0042 -0.3296 -0.0718
  686PSPI   C2B10280  14.585   4.994   7.146 -0.3554 -0.2978 -0.2005
  686PSPI   C3B10281  14.657   5.147   7.582  0.0956 -0.3453  0.0832
  686PSPI   C4B10282  14.854   5.415   7.903  0.1098  0.1257 -0.2293
  687PSPI    C110283  14.197   2.867   5.555 -0.1775  0.0507  0.3237
  687PSPI    C210284  14.237   2.553   5.800  0.0049 -0.1291  0.0697
  687PSPI    C310285  14.075   2.504   5.438 -0.1703  0.1154  0.1121
  687PSPI   PO410286  14.168   3.039   5.665 -0.2267  0.0921 -0.0479
  687PSPI   GL110287  14.114   3.049   6.073  0.4635  0.0655  0.0206
  687PSPI   GL210288  14.000   2.752   6.222 -0.1602 -0.1556 -0.1373
  687PSPI   C1A10289  13.889   3.292   6.316  0.0504  0.2284  0.1033
  687PSPI   C2A10290  13.561   3.433   6.548 -0.0559 -0.1332 -0.0780
  687PSPI   C3A10291  13.599   3.620   6.895  0.0349  0.0626 -0.1053
  687PSPI   C4A10292  13.632   3.625   7.331 -0.3803 -0.0393  0.0310
  687PSPI   C1B10293  14.045   2.648   6.535  0.1714  0.1899  0.3172
  687PSPI   C2B10294  14.056   2.649   6.940 -0.2137  0.1308  0.2227
  687PSPI   C3B10295  14.161   2.974   7.228  0.0113 -0.1240 -0.3026
  687PSPI   C4B10296  14.372   3.209   7.534 -0.2299  0.3023 -0.2153
  688PSPI    C110297  14.969   9.669   5.688  0.1361  0.1492  0.2224
  688PSPI    C210298  14.794   9.358   5.507  0.1248  0.1599  0.2147
  688PSPI    C310299  15.176   9.333   5.624  0.2059  0.2381 -0.0278
  688PSPI   PO410300  14.725   9.735   5.905  0.0154  0.1723  0.0732
  688PSPI   GL110301  14.466   9.991   6.224 -0.1457  0.0300 -0.1644
  688PSPI   GL210302  14.224   9.778   6.282 -0.0819 -0.1148  0.2180
  688PSPI   C1A10303  14.500  10.129   6.741 -0.0729  0.0024  0.0995
  688PSPI   C2A10304  14.349  10.290   7.104  0.0895 -0.0104  0.2737
  688PSPI   C3A10305  14.092  10.181   7.451 -0.0553 -0.1790 -0.0122
  688PSPI   C4A10306  13.988  10.181   7.898  0.1170 -0.2054  0.0155
  688PSPI   C1B10307  14.473   9.666   6.666 -0.0302 -0.0374 -0.2144
  688PSPI   C2B10308  14.527   9.679   7.189 -0.0028 -0.1399 -0.1664
  688PSPI   C3B10309  14.440   9.337   7.473  0.0454 -0.1512 -0.0335
  688PSPI   C4B10310  14.506   8.992   7.726 -0.0479  0.2333  0.0750
  689PSPI    C110311  17.906  11.798   5.366  0.0430  0.1581 -0.2308
  689PSPI    C210312  17.600  11.742   5.114  0.1346 -0.1736 -0.2727
  689PSPI    C310313  17.843  12.056   5.067 -0.2034  0.1000 -0.2315
  689PSPI   PO410314  17.847  11.686   5.594 -0.1592 -0.1395  0.0044
  689PSPI   GL110315  17.849  11.616   5.982 -0.2139 -0.0718 -0.0246
  689PSPI   GL210316  17.976  11.907   6.116 -0.2086  0.1267  0.2236
  689PSPI   C1A10317  17.946  11.452   6.384 -0.3204 -0.2884  0.0749
  689PSPI   C2A10318  17.995  11.422   6.795  0.0870  0.1838 -0.2033
  689PSPI   C3A10319  17.897  11.268   7.175  0.1029  0.0029 -0.1251
  689PSPI   C4A10320  17.777  11.281   7.601 -0.2524  0.1736  0.0028
  689PSPI   C1B10321  18.240  11.921   6.457  0.1332 -0.1142  0.0802
  689PSPI   C2B10322  18.403  11.802   6.915 -0.0950 -0.3288 -0.0361
  689PSPI   C3B10323  18.416  11.534   7.135 -0.1243 -0.2418 -0.0150
  689PSPI   C4B10324  18.757  11.415   7.292  0.1338 -0.1028  0.1359
  690PSPI    C110325   0.065  16.598   5.925 -0.1739 -0.2252  0.1223
  690PSPI    C210326   0.001  16.446   5.560 -0.2016  0.0514  0.0099
  690PSPI    C310327  -0.291  16.441   5.833 -0.2010 -0.0988  0.0080
  690PSPI   PO410328   0.309  16.507   6.017 -0.3528 -0.0104 -0.0983
  690PSPI   GL110329   0.456  16.811   6.280 -0.2959 -0.2047 -0.0352
  690PSPI   GL210330   0.266  16.782   6.460  0.1834  0.0671 -0.2246
  690PSPI   C1A10331   0.597  17.219   6.544  0.1738 -0.1372 -0.2042
  690PSPI   C2A10332   0.559  17.345   6.923 -0.0852 -0.0564  0.3432
  690PSPI   C3A10333   0.714  17.311   7.333  0.1888 -0.0016  0.0114
  690PSPI   C4A10334   0.740  17.266   7.735  0.1468 -0.1320  0.0035
  690PSPI   C1B10335   0.227  16.830   6.871 -0.0699 -0.0232 -0.0536
  690PSPI   C2B10336   0.275  16.959   7.391  0.0531 -0.0827  0.0703
  690PSPI   C3B10337   0.408  16.951   7.838  0.0242  0.0693  0.0236
  690PSPI   C4B10338   0.716  16.970   8.141 -0.2390 -0.1722  0.1372
  691PSPI    C110339   9.448  15.530   5.754  0.0217  0.0074 -0.1703
  691PSPI    C210340   9.775  15.707   5.607  0.0945  0.0244  0.0108
  691PSPI    C310341   9.741  15.309   5.596  0.2860 -0.0043  0.3176
  691PSPI   PO410342   9.463  15.547   5.991  0.1546 -0.2204  0.1935
  691PSPI   GL110343   9.559  15.514   6.364  0.0665 -0.1618 -0.0689
  691PSPI   GL210344   9.419  15.294   6.591  0.2304  0.4959 -0.3418
  691PSPI   C1A10345   9.382  15.799   6.718  0.3362 -0.0050 -0.0135
  691PSPI   C2A10346   9.323  15.782   7.149 -0.1818 -0.2033 -0.1593
  691PSPI   C3A10347   9.203  15.816   7.545  0.1528  0.2595 -0.0469
  691PSPI   C4A10348   9.211  15.734   8.080 -0.2033 -0.2188 -0.0439
  691PSPI   C1B10349   9.220  15.222   6.897  0.0014 -0.0069  0.3657
  691PSPI   C2B10350   9.078  15.332   7.246 -0.1459 -0.3448 -0.1120
  691PSPI   C3B10351   9.045  15.332   7.659  0.2010 -0.2709  0.1839
  691PSPI   C4B10352   9.432  15.362   7.891  0.0793  0.2225 -0.0958
  692PSPI    C110353   6.850   6.237   6.035  0.2191  0.0791 -0.0084
  692PSPI    C210354   7.029   6.446   5.745 -0.1930  0.1639 -0.2090
  692PSPI    C310355   6.758   6.167   5.652 -0.1372  0.0075  0.0869
  692PSPI   PO410356   6.948   6.413   6.259 -0.3885 -0.1935 -0.2438
  692PSPI   GL110357   7.152   6.361   6.554 -0.2905  0.2318 -0.0124
  692PSPI   GL210358   7.366   6.118   6.512 -0.2652  0.0609 -0.0280
  692PSPI   C1A10359   7.123   6.327   6.969 -0.0682  0.2286 -0.3002
  692PSPI   C2A10360   7.248   6.256   7.397 -0.0631  0.0256 -0.1072
  692PSPI   C3A10361   7.432   6.061   7.685 -0.1347 -0.2214  0.1270
  692PSPI   C4A10362   7.578   5.779   7.963 -0.0423  0.0214  0.0415
  692PSPI   C1B10363   7.666   6.170   6.848 -0.0100 -0.1139  0.1108
  692PSPI   C2B10364   7.865   6.067   7.244 -0.2920 -0.0306  0.1171
  692PSPI   C3B10365   7.987   5.950   7.696 -0.0588  0.0680  0.1202
  692PSPI   C4B10366   8.274   6.081   8.052 -0.1088 -0.0473  0.1419
  693PSPI    C110367   7.242  10.061   5.838 -0.1195 -0.1426  0.0515
  693PSPI    C210368   7.107  10.318   6.113  0.0717 -0.0239  0.0360
  693PSPI    C310369   6.910  10.273   5.768 -0.0040  0.0467  0.0698
  693PSPI   PO410370   7.288   9.753   5.913  0.3011  0.2499 -0.0380
  693PSPI   GL110371   7.167   9.449   6.261 -0.1673  0.1114  0.0829
  693PSPI   GL210372   7.512   9.469   6.331 -0.1637 -0.1697  0.2099
  693PSPI   C1A10373   6.838   9.436   6.410 -0.2701  0.1791 -0.0668
  693PSPI   C2A10374   6.643   9.430   6.779 -0.0403 -0.0825 -0.1890
  693PSPI   C3A10375   6.448   9.514   7.265  0.0905  0.0644  0.0089
  693PSPI   C4A10376   6.367   9.830   7.545 -0.3599  0.2683 -0.1371
  693PSPI   C1B10377   7.502   9.399   6.654 -0.0990 -0.3005 -0.0961
  693PSPI   C2B10378   7.344   9.294   7.048  0.0119  0.0239  0.1887
  693PSPI   C3B10379   7.209   9.380   7.441 -0.1824  0.1235  0.0632
  693PSPI   C4B10380   7.527   9.518   7.737 -0.1935 -0.0157 -0.0003
  694POPI    C110381  14.853  12.010   5.525 -0.1649 -0.0693 -0.1189
  694POPI    C210382  15.119  11.752   5.374  0.0342 -0.0328  0.1614
  694POPI    C310383  15.170  12.146   5.322 -0.1429 -0.0373 -0.0634
  694POPI   PO410384  14.800  11.752   5.739  0.2829  0.1098  0.1455
  694POPI   GL110385  14.915  11.785   6.213  0.1431  0.1665  0.0920
  694POPI   GL210386  15.100  11.556   6.238  0.1518 -0.1035 -0.2729
  694POPI   C1A10387  14.664  11.756   6.504  0.2275 -0.1771  0.0429
  694POPI   D2A10388  14.547  11.458   6.797 -0.1569 -0.0120  0.5985
  694POPI   C3A10389  14.270  11.492   7.121 -0.1176 -0.1902 -0.0627
  694POPI   C4A10390  13.992  11.789   7.276 -0.0076  0.2529  0.1189
  694POPI   C1B10391  15.006  11.406   6.526 -0.0118  0.2626  0.0444
  694POPI   C2B10392  15.037  11.329   7.011 -0.1958  0.0523 -0.1747
  694POPI   C3B10393  14.831  11.268   7.313  0.0799 -0.1454 -0.0707
  694POPI   C4B10394  14.551  11.376   7.664 -0.1348  0.0733 -0.0512
  695POPI    C110395  11.047  15.391   5.829  0.0918 -0.0648 -0.0095
  695POPI    C210396  11.379  15.590   5.928 -0.0031  0.0267  0.1279
  695POPI    C310397  11.164  15.704   5.610  0.0762 -0.0094  0.0611
  695POPI   PO410398  10.889  15.423   6.075  0.0180 -0.0371  0.1028
  695POPI   GL110399  10.791  15.564   6.480  0.4675  0.3459 -0.0439
  695POPI   GL210400  10.808  15.207   6.542 -0.3169 -0.3018 -0.0223
  695POPI   C1A10401  10.849  15.829   6.807  0.1126 -0.1062  0.7316
  695POPI   D2A10402  11.068  15.942   7.063  0.2163 -0.0913  0.1419
  695POPI   C3A10403  11.253  16.345   7.037  0.1416 -0.1568  0.0040
  695POPI   C4A10404  11.289  16.396   6.613 -0.0901  0.2223 -0.0533
  695POPI   C1B10405  10.865  15.292   6.919 -0.0359 -0.0767 -0.0604
  695POPI   C2B10406  11.016  15.216   7.348  0.0417  0.0068 -0.1155
  695POPI   C3B10407  10.907  15.414   7.763  0.2872 -0.2540 -0.4472
  695POPI   C4B10408  11.009  15.447   8.193 -0.1169 -0.1877  0.2068
  696POPI    C110409   2.765   7.222   6.046  0.2564 -0.0783 -0.0145
  696POPI    C210410   2.532   7.534   5.955  0.0848 -0.1147  0.2850
  696POPI    C310411   2.676   7.494   6.326  0.3159 -0.2582  0.1819
  696POPI   PO410412   2.653   7.048   6.008  0.1735 -0.0112 -0.2062
  696POPI   GL110413   2.408   6.616   6.005 -0.0530  0.1976  0.0480
  696POPI   GL210414   2.169   6.382   6.191 -0.1264 -0.0949 -0.1979
  696POPI   C1A10415   2.558   6.609   6.430 -0.1640 -0.1049 -0.0888
  696POPI   D2A10416   2.496   6.396   6.888 -0.1177  0.1672  0.1296
  696POPI   C3A10417   2.796   6.168   7.178 -0.4717 -0.2005  0.0526
  696POPI   C4A10418   2.923   5.953   7.555  0.0527 -0.2931 -0.3036
  696POPI   C1B10419   1.787   6.233   6.522 -0.0457  0.0627  0.0499
  696POPI   C2B10420   1.667   5.993   6.885 -0.0785 -0.2156 -0.1317
  696POPI   C3B10421   1.440   5.892   7.327 -0.4375 -0.1809  0.0617
  696POPI   C4B10422   1.469   5.724   7.765 -0.2657 -0.1981 -0.3036
  697POPI    C110423   3.902   9.416   6.003 -0.1636 -0.2842  0.0700
  697POPI    C210424   3.915   9.595   5.646 -0.1990 -0.1515  0.1344
  697POPI    C310425   3.983   9.202   5.675 -0.0806 -0.1424 -0.0035
  697POPI   PO410426   4.074   9.541   6.170 -0.0777  0.1905  0.1046
  697POPI   GL110427   4.249   9.322   6.576 -0.1329 -0.3294  0.0459
  697POPI   GL210428   4.000   9.343   6.794  0.0674  0.2802  0.0117
  697POPI   C1A10429   4.574   9.385   6.834  0.1807 -0.3108  0.0628
  697POPI   D2A10430   5.022   9.449   6.927 -0.1807  0.1217  0.0083
  697POPI   C3A10431   5.201   9.561   7.315  0.1307  0.0601 -0.2053
  697POPI   C4A10432   5.375   9.649   7.719  0.3851 -0.1080 -0.0344
  697POPI   C1B10433   4.205   9.094   7.113  0.0204  0.0113 -0.0041
  697POPI   C2B10434   4.096   9.024   7.498  0.0667 -0.0023  0.0765
  697POPI   C3B10435   4.199   9.263   7.863  0.2362  0.0115  0.0025
  697POPI   C4B10436   4.206   9.522   8.250 -0.3838 -0.1660  0.0547
  698POPI    C110437   9.718   2.081   5.710  0.0446  0.1842  0.0657
  698POPI    C210438   9.940   1.756   5.637 -0.0014  0.1214  0.2014
  698POPI    C310439  10.069   2.033   5.895  0.0044  0.1763  0.1401
  698POPI   PO410440   9.522   2.002   5.671 -0.1424  0.0587  0.0914
  698POPI   GL110441   9.221   1.894   5.857 -0.2200 -0.2695  0.2456
  698POPI   GL210442   9.261   2.123   6.104  0.0744 -0.0571  0.1778
  698POPI   C1A10443   9.202   1.667   6.254 -0.0753  0.0168 -0.3583
  698POPI   D2A10444   9.115   1.497   6.580  0.1353 -0.1686  0.0850
  698POPI   C3A10445   9.069   1.637   6.928 -0.3170  0.0855 -0.0303
  698POPI   C4A10446   9.337   1.618   7.305 -0.0788  0.1531 -0.2346
  698POPI   C1B10447   9.213   2.175   6.558 -0.0261  0.1703 -0.0585
  698POPI   C2B10448   9.070   2.200   6.970  0.0458  0.2770 -0.3424
  698POPI   C3B10449   9.067   2.134   7.408 -0.0641  0.0864 -0.2165
  698POPI   C4B10450   9.309   1.967   7.702  0.1113  0.0172  0.2324
  699POPI    C110451   9.971   4.335   5.457  0.1829  0.0350 -0.0964
  699POPI    C210452  10.008   3.937   5.446  0.1490  0.0258  0.0960
  699POPI    C310453  10.048   4.150   5.110 -0.0122 -0.1552 -0.0407
  699POPI   PO410454   9.847   4.372   5.740 -0.1112  0.3828 -0.1927
  699POPI   GL110455   9.809   4.428   6.189 -0.0828 -0.3281  0.0820
  699POPI   GL210456   9.835   4.793   6.035  0.0360  0.1007  0.0430
  699POPI   C1A10457   9.668   4.030   6.504 -0.1246  0.1496  0.2090
  699POPI   D2A10458   9.683   3.696   6.867  0.2692 -0.2968 -0.0135
  699POPI   C3A10459   9.757   3.745   7.270 -0.0690 -0.0965  0.2902
  699POPI   C4A10460   9.974   3.811   7.657  0.0167 -0.0203  0.0353
  699POPI   C1B10461   9.854   5.020   6.541 -0.1409 -0.1206 -0.2337
  699POPI   C2B10462   9.887   4.991   6.909  0.2364  0.2144  0.0943
  699POPI   C3B10463  10.069   5.141   7.269  0.1187  0.1680  0.1395
  699POPI   C4B10464  10.289   5.133   7.675 -0.0686 -0.1468 -0.2298
  700POPI    C110465  10.883   5.895   5.675 -0.1046 -0.1950 -0.1272
  700POPI    C210466  10.666   5.718   5.390  0.0066 -0.0728 -0.2895
  700POPI    C310467  10.871   6.052   5.307  0.0763 -0.0619 -0.0781
  700POPI   PO410468  10.762   5.829   5.914 -0.0875  0.0304 -0.0073
  700POPI   GL110469  10.895   5.766   6.319  0.1206  0.0264  0.0996
  700POPI   GL210470  10.872   5.449   6.283  0.0233  0.0349 -0.0354
  700POPI   C1A10471  10.865   6.029   6.664 -0.4241 -0.0087 -0.1650
  700POPI   D2A10472  10.888   6.082   7.112  0.0969  0.0761 -0.2792
  700POPI   C3A10473  10.579   5.945   7.428 -0.0074  0.0942 -0.1628
  700POPI   C4A10474  10.577   5.943   7.958  0.1801 -0.1537 -0.0581
  700POPI   C1B10475  10.903   5.398   6.733  0.0811  0.1093 -0.0205
  700POPI   C2B10476  10.993   5.296   7.135  0.1139  0.1314  0.0137
  700POPI   C3B10477  10.999   5.040   7.490 -0.0603 -0.1655 -0.2896
  700POPI   C4B10478  11.289   4.736   7.669 -0.0751 -0.0383 -0.1987
  701POPI    C110479   2.747   1.573   5.985  0.1427  0.0587 -0.0874
  701POPI    C210480   2.860   1.249   5.780 -0.0435 -0.1750  0.1708
  701POPI    C310481   2.532   1.450   5.670  0.1056 -0.0343 -0.0261
  701POPI   PO410482   2.871   1.678   6.105 -0.0009  0.1506 -0.0967
  701POPI   GL110483   3.035   2.061   6.352 -0.0012  0.0337  0.0795
  701POPI   GL210484   3.333   2.004   6.412 -0.0751 -0.0671 -0.3367
  701POPI   C1A10485   2.808   1.854   6.715  0.0045  0.2945  0.3580
  701POPI   D2A10486   2.632   1.719   7.092 -0.1231 -0.0422  0.1301
  701POPI   C3A10487   2.768   1.738   7.478 -0.3681 -0.0805  0.2355
  701POPI   C4A10488   2.801   2.106   7.770  0.2651 -0.3425 -0.0935
  701POPI   C1B10489   3.340   1.821   6.828  0.0977  0.1475  0.0355
  701POPI   C2B10490   3.195   1.825   7.269 -0.1455  0.0113  0.1243
  701POPI   C3B10491   3.304   1.804   7.643  0.0193 -0.3028 -0.0763
  701POPI   C4B10492   3.296   1.755   8.083  0.3570 -0.3241 -0.0017
  702POPI    C110493  15.100   4.501   5.838 -0.1145  0.1083 -0.0146
  702POPI    C210494  15.019   4.148   5.667  0.0940  0.0386  0.0272
  702POPI    C310495  15.028   4.480   5.445  0.0835 -0.0101 -0.0464
  702POPI   PO410496  15.379   4.416   5.976  0.1841 -0.1329 -0.1219
  702POPI   GL110497  15.538   4.486   6.385  0.2156 -0.1995 -0.0429
  702POPI   GL210498  15.445   4.131   6.374  0.0685  0.0337 -0.1033
  702POPI   C1A10499  15.599   4.544   6.782  0.0694 -0.1465  0.0735
  702POPI   D2A10500  15.497   4.625   7.293  0.1829 -0.0716  0.0664
  702POPI   C3A10501  15.487   4.267   7.585  0.1509 -0.0571 -0.1069
  702POPI   C4A10502  15.825   3.910   7.589  0.0908  0.4351  0.1775
  702POPI   C1B10503  15.501   4.087   6.841  0.2038 -0.0059 -0.1186
  702POPI   C2B10504  15.371   3.960   7.219 -0.3799  0.1442 -0.0236
  702POPI   C3B10505  14.938   3.951   7.426  0.0750 -0.0099 -0.1096
  702POPI   C4B10506  14.849   3.916   7.805  0.0706 -0.0209 -0.2801
  703POPI    C110507  14.185  10.134   5.855 -0.3725 -0.0981  0.0323
  703POPI    C210508  14.268  10.525   5.841 -0.2139 -0.1289  0.0892
  703POPI    C310509  14.298  10.303   5.510  0.0411 -0.1604  0.1309
  703POPI   PO410510  13.890  10.144   6.003 -0.0426  0.0079 -0.1256
  703POPI   GL110511  13.924  10.402   6.287  0.0761 -0.1087  0.0202
  703POPI   GL210512  13.769  10.617   6.366 -0.1002 -0.1360 -0.0430
  703POPI   C1A10513  14.054  10.090   6.649  0.0281 -0.0876  0.0495
  703POPI   D2A10514  14.088   9.839   7.026 -0.3725  0.0541  0.1456
  703POPI   C3A10515  14.092   9.717   7.491 -0.1759 -0.2811 -0.0381
  703POPI   C4A10516  14.290   9.793   7.848  0.0184 -0.0559  0.3180
  703POPI   C1B10517  13.876  11.049   6.595 -0.0323  0.0814  0.0356
  703POPI   C2B10518  14.110  11.072   6.934  0.4158 -0.1357  0.3680
  703POPI   C3B10519  14.162  11.150   7.404 -0.0018  0.0964 -0.0044
  703POPI   C4B10520  14.273  11.033   7.865  0.2394  0.0537  0.1434
  704POPI    C110521   4.106  10.909   6.212  0.2291 -0.0413 -0.0815
  704POPI    C210522   4.070  11.305   6.256  0.2026 -0.0410 -0.1043
  704POPI    C310523   4.404  11.119   6.374  0.1761 -0.0251 -0.0041
  704POPI   PO410524   3.818  10.873   6.271 -0.2654  0.2500  0.0058
  704POPI   GL110525   3.569  11.156   6.573 -0.3133  0.3380 -0.1374
  704POPI   GL210526   3.691  11.493   6.749  0.0132 -0.0054  0.2358
  704POPI   C1A10527   3.635  10.998   6.920  0.0123  0.1912 -0.0477
  704POPI   D2A10528   3.631  10.922   7.288  0.0253 -0.1770 -0.0008
  704POPI   C3A10529   3.936  10.694   7.584  0.1715  0.1617  0.1330
  704POPI   C4A10530   4.155  10.394   7.849  0.0032  0.0044  0.3065
  704POPI   C1B10531   3.694  11.667   7.099  0.0044 -0.0617 -0.1087
  704POPI   C2B10532   3.643  11.770   7.472  0.1134 -0.2456  0.0741
  704POPI   C3B10533   3.486  11.522   7.764 -0.0120 -0.2326  0.3509
  704POPI   C4B10534   3.554  11.542   8.224 -0.1323 -0.2554 -0.0007
  705POPI    C110535  14.972  14.337   5.854  0.1774  0.0533 -0.0724
  705POPI    C210536  14.618  14.508   5.779  0.0301 -0.1831  0.0689
  705POPI    C310537  14.748  14.208   5.549  0.1012 -0.1524  0.0685
  705POPI   PO410538  14.990  14.142   6.059  0.0133 -0.0754 -0.0975
  705POPI   GL110539  14.809  13.905   6.406 -0.2030  0.1618 -0.1168
  705POPI   GL210540  14.795  13.802   6.726 -0.1469  0.2347 -0.1781
  705POPI   C1A10541  14.375  13.967   6.590 -0.1435 -0.1699 -0.1039
  705POPI   D2A10542  13.935  13.991   6.610 -0.2815 -0.0273  0.0277
  705POPI   C3A10543  13.814  13.674   6.595  0.1494 -0.0605 -0.2558
  705POPI   C4A10544  13.932  13.385   6.415  0.2780 -0.1164  0.0332
  705POPI   C1B10545  14.559  13.840   7.096  0.0347 -0.0284  0.0157
  705POPI   C2B10546  14.481  14.019   7.467  0.0170 -0.0140  0.1926
  705POPI   C3B10547  14.522  14.153   7.829  0.0382  0.0097  0.1522
  705POPI   C4B10548  14.555  14.612   8.019 -0.2225 -0.1090 -0.0523
  706POPI    C110549   5.053   9.956   5.980  0.1102 -0.0741  0.1877
  706POPI    C210550   4.681   9.870   5.862  0.2283 -0.1746 -0.1210
  706POPI    C310551   4.824  10.241   5.818  0.0464 -0.0454  0.3272
  706POPI   PO410552   5.078   9.832   6.161 -0.0078  0.0060 -0.1354
  706POPI   GL110553   5.361   9.755   6.519  0.2699 -0.0929  0.0818
  706POPI   GL210554   5.369  10.142   6.496  0.1937  0.3227  0.2181
  706POPI   C1A10555   5.170   9.924   6.947  0.0657 -0.1336  0.1123
  706POPI   D2A10556   4.766   9.835   7.180  0.0477 -0.3225 -0.0885
  706POPI   C3A10557   4.718   9.346   7.285 -0.0645  0.1602  0.1493
  706POPI   C4A10558   4.563   9.094   7.561  0.0682  0.0622 -0.0831
  706POPI   C1B10559   5.453  10.378   6.874 -0.0958  0.0232 -0.0971
  706POPI   C2B10560   5.552  10.343   7.292 -0.1626  0.1566 -0.0264
  706POPI   C3B10561   5.563  10.173   7.596  0.2182 -0.1458 -0.0247
  706POPI   C4B10562   5.560  10.088   7.991  0.0751 -0.1066 -0.0820
  707POPI    C110563  12.350   9.403   5.748  0.0034 -0.1570  0.1690
  707POPI    C210564  12.111   9.089   5.813  0.0068 -0.1136  0.4003
  707POPI    C310565  11.979   9.401   5.600 -0.1213 -0.1171  0.4740
  707POPI   PO410566  12.684   9.307   5.738 -0.0448  0.1291 -0.4964
  707POPI   GL110567  13.022   9.288   6.018  0.2470 -0.2631 -0.1630
  707POPI   GL210568  12.848   8.982   6.158  0.0958 -0.0003 -0.1489
  707POPI   C1A10569  12.828   9.384   6.432  0.2680  0.1050 -0.1535
  707POPI   D2A10570  13.134   9.439   6.859  0.0512 -0.0802  0.1654
  707POPI   C3A10571  13.091   9.240   7.265  0.0289 -0.1835  0.1308
  707POPI   C4A10572  13.076   9.173   7.740 -0.1768  0.1015 -0.1377
  707POPI   C1B10573  13.093   8.766   6.459  0.3125  0.0522  0.0961
  707POPI   C2B10574  13.432   8.599   6.599 -0.0128 -0.1711  0.1017
  707POPI   C3B10575  13.728   8.745   6.811  0.0105 -0.1411  0.0422
  707POPI   C4B10576  14.116   8.652   7.012  0.0282 -0.0358  0.1413
  708POPI    C110577   7.816  14.904   5.791 -0.1332 -0.0374 -0.1299
  708POPI    C210578   7.789  15.023   5.410  0.2328  0.1644 -0.0972
  708POPI    C310579   7.542  15.176   5.685 -0.0308  0.0199 -0.2497
  708POPI   PO410580   7.778  14.632   5.805 -0.2615 -0.0320  0.1847
  708POPI   GL110581   7.642  14.419   6.088  0.1611 -0.0425 -0.1484
  708POPI   GL210582   7.926  14.317   6.205 -0.1114 -0.2459  0.0801
  708POPI   C1A10583   7.353  14.734   6.241  0.0694  0.1628  0.1447
  708POPI   D2A10584   6.945  14.615   6.447  0.2042 -0.1864  0.4283
  708POPI   C3A10585   6.711  14.691   6.824  0.2193  0.0896 -0.1347
  708POPI   C4A10586   6.683  14.767   7.173  0.0995  0.0135 -0.2810
  708POPI   C1B10587   7.877  14.276   6.565 -0.0015 -0.1085  0.1321
  708POPI   C2B10588   7.786  14.330   7.014  0.0731  0.5388  0.0797
  708POPI   C3B10589   7.668  14.440   7.444 -0.0520  0.1974 -0.2607
  708POPI   C4B10590   7.442  14.555   7.871 -0.0207  0.0871 -0.1474
  709POPI    C110591  17.952   6.290   5.530 -0.1016  0.0593  0.1083
  709POPI    C210592  17.809   6.335   5.159 -0.4209 -0.2045  0.1950
  709POPI    C310593  18.025   6.011   5.252  0.1176  0.1170  0.1061
  709POPI   PO410594  17.715   6.257   5.743 -0.1953  0.0630  0.0321
  709POPI   GL110595  17.838   5.977   6.132  0.0610 -0.3194 -0.1895
  709POPI   GL210596  18.057   5.872   6.312 -0.0934  0.0074  0.3065
  709POPI   C1A10597  17.560   6.019   6.326 -0.0474  0.1926  0.1039
  709POPI   D2A10598  17.410   6.125   6.701 -0.0400 -0.2706 -0.0837
  709POPI   C3A10599  17.555   5.921   7.045  0.0693 -0.0573 -0.2395
  709POPI   C4A10600  17.667   6.016   7.366  0.0329  0.0903 -0.0173
  709POPI   C1B10601  18.194   5.871   6.816  0.0959 -0.1622  0.0104
  709POPI   C2B10602  18.249   5.841   7.259  0.2212 -0.2152  0.0052
  709POPI   C3B10603  18.052   5.776   7.673 -0.3150  0.1806  0.1102
  709POPI   C4B10604  17.791   5.901   7.833  0.1372  0.2691 -0.1489
  710POPI    C110605  16.840   2.082   5.509  0.0073  0.2275  0.0805
  710POPI    C210606  16.734   1.777   5.274 -0.0595  0.0787  0.3007
  710POPI    C310607  16.878   2.113   5.112  0.0334 -0.0756  0.0574
  710POPI   PO410608  16.594   2.106   5.711  0.5209 -0.2503  0.1971
  710POPI   GL110609  16.501   2.230   6.174  0.1161  0.3684 -0.1362
  710POPI   GL210610  16.439   1.959   6.467 -0.1142 -0.1903 -0.0132
  710POPI   C1A10611  16.350   2.480   6.451 -0.0374  0.0311  0.0008
  710POPI   D2A10612  16.351   2.643   6.841  0.1522 -0.1347  0.2156
  710POPI   C3A10613  16.357   2.298   7.181  0.0294  0.0907  0.0959
  710POPI   C4A10614  16.235   2.315   7.685 -0.2401 -0.0057 -0.1928
  710POPI   C1B10615  16.279   1.879   6.887 -0.1670 -0.1521  0.0949
  710POPI   C2B10616  16.192   1.661   7.156 -0.0942 -0.0217  0.0620
  710POPI   C3B10617  16.478   1.481   7.444 -0.1035 -0.0871  0.0069
  710POPI   C4B10618  16.506   1.373   7.884 -0.2076 -0.0240  0.0319
  711POPI    C110619   5.797   9.525   6.201  0.0023 -0.2471  0.2193
  711POPI    C210620   5.885   9.619   5.823 -0.2042 -0.0461  0.2187
  711POPI    C310621   6.115   9.753   6.121 -0.1402 -0.0608  0.1761
  711POPI   PO410622   5.696   9.297   6.152 -0.4724 -0.0813 -0.0206
  711POPI   GL110623   5.447   9.024   6.437  0.0904  0.2426  0.1985
  711POPI   GL210624   5.457   9.261   6.657  0.1794  0.1803 -0.1540
  711POPI   C1A10625   5.280   8.844   6.943 -0.1270  0.0106  0.0151
  711POPI   D2A10626   5.343   8.898   7.438  0.0795 -0.2297  0.0040
  711POPI   C3A10627   5.065   9.146   7.634 -0.0620  0.0017 -0.2945
  711POPI   C4A10628   5.150   9.351   8.065 -0.0961  0.0820 -0.1781
  711POPI   C1B10629   5.540   9.426   6.997 -0.1216 -0.2551  0.0172
  711POPI   C2B10630   5.595   9.311   7.446 -0.0196 -0.1638  0.0246
  711POPI   C3B10631   5.542   9.182   7.797  0.2873  0.0868 -0.1419
  711POPI   C4B10632   5.335   8.836   8.015 -0.0908 -0.2185 -0.2115
  712POPI    C110633  11.591  13.775   5.990  0.0690 -0.0081  0.0251
  712POPI    C210634  11.598  13.443   5.767  0.2384 -0.0051  0.0247
  712POPI    C310635  11.262  13.551   5.954  0.1268 -0.0688 -0.1369
  712POPI   PO410636  11.851  13.719   6.200 -0.0968  0.1688  0.1610
  712POPI   GL110637  12.326  13.528   6.398  0.1151  0.1907 -0.0922
  712POPI   GL210638  12.199  13.767   6.613  0.1601 -0.1945 -0.0579
  712POPI   C1A10639  12.195  13.270   6.787  0.0090 -0.2152 -0.1347
  712POPI   D2A10640  11.988  13.438   7.090  0.0543  0.1084 -0.1694
  712POPI   C3A10641  11.601  13.466   7.272  0.0524  0.1249  0.0731
  712POPI   C4A10642  11.433  13.375   7.644  0.0955  0.1863 -0.1635
  712POPI   C1B10643  12.394  13.904   7.006  0.0261  0.1478  0.1879
  712POPI   C2B10644  12.712  13.910   7.348 -0.0211 -0.0176 -0.0390
  712POPI   C3B10645  12.710  13.954   7.769  0.1030 -0.4798  0.1383
  712POPI   C4B10646  12.356  14.001   8.038 -0.2140 -0.0201  0.1659
  713POPI    C110647   7.503  13.324   5.640  0.0930 -0.1615 -0.0018
  713POPI    C210648   7.825  13.543   5.547 -0.0151 -0.0262 -0.0619
  713POPI    C310649   7.772  13.183   5.380  0.1040 -0.0483 -0.0526
  713POPI   PO410650   7.570  13.421   5.925  0.0712  0.0957 -0.0951
  713POPI   GL110651   7.686  13.373   6.333 -0.0709  0.1253 -0.1862
  713POPI   GL210652   7.665  13.790   6.382  0.3623 -0.0270  0.0926
  713POPI   C1A10653   7.564  13.433   6.778  0.0296 -0.0954 -0.3138
  713POPI   D2A10654   7.534  13.454   7.174  0.0705 -0.3121  0.1294
  713POPI   C3A10655   7.498  13.222   7.526  0.1323  0.0958 -0.0294
  713POPI   C4A10656   7.527  13.273   8.024  0.0674 -0.0774  0.0085
  713POPI   C1B10657   7.788  13.834   6.872 -0.2868 -0.2387  0.0926
  713POPI   C2B10658   7.947  13.930   7.319  0.1451 -0.0533  0.1114
  713POPI   C3B10659   7.816  14.090   7.747 -0.0892  0.2184  0.1623
  713POPI   C4B10660   7.881  14.282   8.158  0.2782 -0.1662 -0.1471
  714POPI    C110661  10.314  16.168   5.903  0.0366  0.1424  0.0842
  714POPI    C210662  10.236  16.464   5.646 -0.2889  0.0105  0.0250
  714POPI    C310663  10.011  16.134   5.644 -0.0436 -0.1619  0.2133
  714POPI   PO410664  10.299  16.281   6.153  0.2281 -0.1002 -0.3864
  714POPI   GL110665  10.245  16.657   6.382 -0.0319  0.1701  0.2474
  714POPI   GL210666  10.292  16.979   6.516  0.0732  0.0867  0.0366
  714POPI   C1A10667  10.263  16.505   6.839 -0.2414  0.2767  0.0017
  714POPI   D2A10668   9.926  16.383   7.062  0.2141  0.2225  0.0829
  714POPI   C3A10669   9.907  16.404   7.394  0.1504 -0.3285  0.1718
  714POPI   C4A10670   9.877  16.413   7.796 -0.1245 -0.3013  0.4481
  714POPI   C1B10671  10.268  17.017   6.928  0.2047  0.3363  0.3322
  714POPI   C2B10672  10.043  17.079   7.380 -0.0399  0.0797  0.1949
  714POPI   C3B10673   9.705  17.334   7.646 -0.3411  0.0052 -0.0129
  714POPI   C4B10674   9.806  17.681   7.982  0.0377  0.0404 -0.2973
  715POPI    C110675   7.111  16.940   5.410 -0.1396 -0.1978 -0.1191
  715POPI    C210676   7.122  17.213   5.118 -0.1860 -0.1461 -0.0727
  715POPI    C310677   6.772  17.060   5.235 -0.1443 -0.3598 -0.2225
  715POPI   PO410678   7.266  17.144   5.638  0.1476 -0.1678 -0.0999
  715POPI   GL110679   7.267  16.995   5.950 -0.1162 -0.1473  0.2787
  715POPI   GL210680   7.163  16.929   6.164 -0.2839  0.0889 -0.5698
  715POPI   C1A10681   7.293  17.369   6.271  0.1212 -0.3156 -0.1455
  715POPI   D2A10682   7.461  17.511   6.723  0.1636  0.0994 -0.0022
  715POPI   C3A10683   7.301  17.614   7.102  0.1353 -0.2197 -0.2348
  715POPI   C4A10684   7.258  17.565   7.499 -0.1060 -0.0921 -0.0091
  715POPI   C1B10685   7.186  17.046   6.693  0.0843  0.1238  0.2350
  715POPI   C2B10686   7.442  17.093   7.194  0.0533 -0.1006 -0.2279
  715POPI   C3B10687   7.479  16.970   7.583  0.1950  0.1921  0.0339
  715POPI   C4B10688   7.343  17.173   8.061  0.1134 -0.0627  0.1002
  716POPI    C110689   6.729  13.968   6.063 -0.1166  0.1317 -0.0264
  716POPI    C210690   6.896  14.046   5.708 -0.1326  0.2311 -0.0123
  716POPI    C310691   6.573  13.811   5.730 -0.0919  0.1708 -0.0564
  716POPI   PO410692   6.926  13.873   6.300 -0.2413 -0.0479  0.0294
  716POPI   GL110693   7.194  13.629   6.518  0.1494 -0.0966 -0.1639
  716POPI   GL210694   7.146  13.436   6.416  0.1515 -0.2100 -0.2420
  716POPI   C1A10695   7.245  13.809   6.915  0.0755  0.2692  0.0832
  716POPI   D2A10696   7.460  14.022   7.225 -0.0375  0.1658 -0.0521
  716POPI   C3A10697   7.338  14.057   7.606 -0.0958  0.2213 -0.0786
  716POPI   C4A10698   7.147  14.117   7.962  0.1196  0.3799  0.1039
  716POPI   C1B10699   7.104  13.240   6.849  0.0839  0.2718 -0.0422
  716POPI   C2B10700   7.143  13.111   7.262  0.0817 -0.0641  0.2347
  716POPI   C3B10701   7.058  13.037   7.711  0.0221  0.1862  0.0369
  716POPI   C4B10702   7.115  12.810   8.198 -0.0734 -0.1943  0.3706
  717POPI    C110703  14.695  15.916   5.645  0.0279 -0.1066 -0.1250
  717POPI    C210704  14.427  15.620   5.672 -0.1245  0.0239 -0.1957
  717POPI    C310705  14.369  15.920   5.414  0.0115  0.1345 -0.0995
  717POPI   PO410706  14.763  15.941   5.924  0.0559  0.0592  0.0496
  717POPI   GL110707  14.458  16.040   6.295 -0.2162  0.0801 -0.0406
  717POPI   GL210708  14.254  15.852   6.385 -0.0653 -0.0084  0.1543
  717POPI   C1A10709  14.668  16.311   6.547 -0.2109 -0.2316 -0.0207
  717POPI   D2A10710  14.849  16.363   6.944  0.0067  0.0634 -0.0870
  717POPI   C3A10711  14.715  16.308   7.407  0.2528  0.1074  0.0049
  717POPI   C4A10712  14.653  16.290   7.847 -0.0589 -0.0854 -0.0315
  717POPI   C1B10713  14.424  15.953   6.805  0.1891 -0.0535  0.0635
  717POPI   C2B10714  14.116  15.815   7.195 -0.1593  0.1459 -0.2104
  717POPI   C3B10715  13.837  15.608   7.484  0.1272 -0.1754 -0.1272
  717POPI   C4B10716  13.357  15.537   7.671  0.0080 -0.2505 -0.1028
  718POPI    C110717  17.458   9.372   5.712  0.0283 -0.1308  0.2307
  718POPI    C210718  17.776   9.382   5.469 -0.1340 -0.2576  0.0089
  718POPI    C310719  17.679   9.043   5.656 -0.1441 -0.2212  0.0698
  718POPI   PO410720  17.506   9.695   5.845 -0.1920 -0.1109 -0.2358
  718POPI   GL110721  17.564   9.796   6.121 -0.1105 -0.1851  0.1932
  718POPI   GL210722  17.671   9.460   6.305 -0.0243 -0.0369  0.0675
  718POPI   C1A10723  17.571   9.925   6.602  0.0193  0.1982 -0.0784
  718POPI   D2A10724  17.820   9.890   6.929  0.0111 -0.2241  0.0888
  718POPI   C3A10725  17.594   9.779   7.277  0.2266  0.0289 -0.2440
  718POPI   C4A10726  17.326   9.879   7.495 -0.2407 -0.0422 -0.0456
  718POPI   C1B10727  17.936   9.466   6.694  0.1513 -0.0451 -0.1421
  718POPI   C2B10728  17.980   9.398   7.212  0.0890 -0.1962  0.1787
  718POPI   C3B10729  18.034   9.636   7.660  0.0106  0.1492  0.3479
  718POPI   C4B10730  17.714  10.029   7.820 -0.1215  0.1825  0.0363
  719POPI    C110731  15.404   8.890   5.644 -0.1871  0.1663 -0.0203
  719POPI    C210732  15.247   8.924   5.278  0.2582  0.0093 -0.2329
  719POPI    C310733  15.487   8.616   5.364  0.0938  0.0011  0.2191
  719POPI   PO410734  15.261   8.842   5.787  0.1196  0.2131 -0.1556
  719POPI   GL110735  15.367   8.775   6.173 -0.1780  0.1215  0.2186
  719POPI   GL210736  15.721   8.887   6.077 -0.0334  0.2184 -0.1101
  719POPI   C1A10737  15.295   8.603   6.623 -0.0835 -0.2158  0.2622
  719POPI   D2A10738  15.012   8.431   6.887  0.0298  0.0062  0.2560
  719POPI   C3A10739  14.853   8.447   7.283  0.0096  0.0350  0.2548
  719POPI   C4A10740  14.802   8.471   7.727  0.1154  0.0600  0.0823
  719POPI   C1B10741  15.771   9.265   6.317 -0.1738  0.0296  0.1818
  719POPI   C2B10742  15.763   9.307   6.789 -0.1384 -0.1202 -0.0175
  719POPI   C3B10743  15.408   9.300   7.128  0.0059  0.3073  0.0458
  719POPI   C4B10744  15.357   9.595   7.499 -0.0900  0.1641 -0.3791
  720POPI    C110745   9.011   7.311   5.653 -0.1026 -0.0174  0.0453
  720POPI    C210746   8.993   7.701   5.742  0.1456 -0.0688  0.3375
  720POPI    C310747   9.077   7.585   5.369 -0.1495  0.1543  0.1980
  720POPI   PO410748   8.854   7.203   5.728  0.2027  0.2023  0.0648
  720POPI   GL110749   8.570   7.143   6.148 -0.0540  0.3672  0.1590
  720POPI   GL210750   8.772   6.986   6.348 -0.0556  0.0383 -0.2356
  720POPI   C1A10751   8.380   7.382   6.370  0.2606  0.1882  0.2546
  720POPI   D2A10752   8.155   7.454   6.719 -0.1104 -0.0458 -0.1380
  720POPI   C3A10753   8.291   7.372   7.171 -0.1594 -0.2755  0.0666
  720POPI   C4A10754   8.453   7.299   7.610 -0.1091 -0.0206  0.3497
  720POPI   C1B10755   8.586   7.091   6.687 -0.0909 -0.1540  0.1070
  720POPI   C2B10756   8.756   7.156   7.152  0.1817 -0.3744  0.2218
  720POPI   C3B10757   8.867   7.005   7.627  0.1066  0.4296 -0.0744
  720POPI   C4B10758   8.763   7.190   8.047  0.1778 -0.1170  0.1971
  721POPI    C110759  16.981   9.689   5.537  0.1168 -0.0394 -0.2670
  721POPI    C210760  17.229  10.002   5.566  0.1914 -0.1026 -0.2230
  721POPI    C310761  17.278   9.735   5.272 -0.0339  0.0686 -0.4194
  721POPI   PO410762  17.017   9.561   5.797 -0.1094 -0.4639 -0.1357
  721POPI   GL110763  17.083   9.555   6.195 -0.0676  0.2417 -0.2414
  721POPI   GL210764  17.178   9.670   6.470 -0.0568  0.1605  0.1284
  721POPI   C1A10765  17.143   9.145   6.405 -0.2163  0.1188 -0.2314
  721POPI   D2A10766  17.434   9.089   6.728 -0.0084 -0.0191  0.2777
  721POPI   C3A10767  17.439   8.654   6.996  0.1478 -0.1138  0.2371
  721POPI   C4A10768  17.414   8.393   7.367 -0.1177 -0.0376 -0.0676
  721POPI   C1B10769  17.388   9.543   6.877  0.2855 -0.4758 -0.1200
  721POPI   C2B10770  17.481   9.238   7.268 -0.0232  0.2646 -0.0530
  721POPI   C3B10771  17.670   9.077   7.593 -0.1696 -0.2234  0.1342
  721POPI   C4B10772  17.864   9.037   7.984  0.1490  0.3034  0.5063
  722POPI    C110773   5.834  12.374   5.841 -0.1125  0.0667  0.1672
  722POPI    C210774   6.001  12.666   6.057  0.0143  0.2291 -0.1449
  722POPI    C310775   6.186  12.313   6.020 -0.1231  0.1155  0.2050
  722POPI   PO410776   5.513  12.458   5.937 -0.1202 -0.0609  0.0034
  722POPI   GL110777   5.438  12.571   6.367 -0.1446 -0.0703 -0.0997
  722POPI   GL210778   5.191  12.811   6.384  0.1382  0.2322 -0.0181
  722POPI   C1A10779   5.497  12.518   6.746 -0.0426  0.0829  0.2941
  722POPI   D2A10780   5.557  12.586   7.214 -0.2609  0.0902 -0.0635
  722POPI   C3A10781   5.472  12.784   7.530 -0.1515 -0.0031 -0.1373
  722POPI   C4A10782   5.340  13.022   7.894 -0.0379 -0.0154  0.0344
  722POPI   C1B10783   5.091  12.795   6.898 -0.0573 -0.1375  0.0119
  722POPI   C2B10784   5.120  12.928   7.208  0.0312  0.0531  0.0013
  722POPI   C3B10785   4.992  13.161   7.450 -0.0085  0.0962  0.0029
  722POPI   C4B10786   4.554  13.194   7.636 -0.1556  0.0819 -0.2182
  723POPI    C110787   5.492   1.726   6.001 -0.2830  0.0469  0.0280
  723POPI    C210788   5.192   1.980   5.923 -0.0074  0.3083 -0.2046
  723POPI    C310789   5.426   1.850   5.626 -0.1050 -0.1736 -0.0780
  723POPI   PO410790   5.450   1.612   6.169 -0.2219 -0.1111 -0.2190
  723POPI   GL110791   5.506   1.555   6.590  0.1415 -0.3130 -0.0703
  723POPI   GL210792   5.802   1.466   6.723 -0.1082  0.2016  0.0550
  723POPI   C1A10793   5.347   1.255   6.885 -0.0695  0.1429  0.0561
  723POPI   D2A10794   5.649   1.178   7.135  0.2971 -0.0978  0.0107
  723POPI   C3A10795   5.584   1.091   7.478  0.2492 -0.1761 -0.2556
  723POPI   C4A10796   5.868   0.911   7.826  0.0245  0.0000 -0.4523
  723POPI   C1B10797   6.162   1.683   6.990 -0.0911 -0.1048  0.0381
  723POPI   C2B10798   6.083   1.837   7.370  0.0166  0.2499 -0.1166
  723POPI   C3B10799   6.357   1.914   7.759  0.1311 -0.1138  0.1933
  723POPI   C4B10800   6.593   2.108   8.062 -0.0187 -0.0490 -0.0222
  724POPI    C110801  11.496  15.149   5.670 -0.0906  0.0349 -0.2343
  724POPI    C210802  11.772  14.905   5.515  0.1455  0.0905  0.0895
  724POPI    C310803  11.392  14.880   5.393  0.2262 -0.2227 -0.1091
  724POPI   PO410804  11.641  15.153   5.959 -0.1810 -0.0341  0.0677
  724POPI   GL110805  11.745  15.368   6.210 -0.0171  0.1311  0.1667
  724POPI   GL210806  11.790  15.049   6.390  0.2282 -0.0077 -0.1271
  724POPI   C1A10807  11.686  15.680   6.408 -0.0713 -0.1646  0.1861
  724POPI   D2A10808  11.578  16.099   6.198  0.0456 -0.0367  0.0336
  724POPI   C3A10809  11.743  16.485   6.424  0.0020  0.0272  0.1259
  724POPI   C4A10810  11.751  16.587   6.932 -0.1401 -0.1162 -0.3756
  724POPI   C1B10811  11.831  15.073   6.746 -0.0225 -0.1859 -0.1723
  724POPI   C2B10812  11.876  15.275   7.100  0.0558  0.1896  0.0520
  724POPI   C3B10813  11.770  15.137   7.526 -0.2004  0.1007  0.0782
  724POPI   C4B10814  11.874  15.196   8.009 -0.0127 -0.3635  0.2529
  725POPI    C110815   6.595  14.424   5.558 -0.0098 -0.0790  0.0045
  725POPI    C210816   6.964  14.443   5.405  0.0078 -0.0506  0.0501
  725POPI    C310817   6.668  14.655   5.240  0.0407  0.0306  0.0948
  725POPI   PO410818   6.618  14.465   5.809 -0.2449 -0.2107  0.0511
  725POPI   GL110819   6.328  14.323   6.147  0.2479 -0.2201 -0.3539
  725POPI   GL210820   6.266  13.913   6.231  0.0466  0.0865  0.0272
  725POPI   C1A10821   6.508  14.289   6.510 -0.0373 -0.1011 -0.1017
  725POPI   D2A10822   6.791  14.169   6.703 -0.1536  0.2650  0.1955
  725POPI   C3A10823   6.921  14.136   7.095 -0.1501  0.1311 -0.1676
  725POPI   C4A10824   6.921  14.296   7.460  0.0316  0.3760  0.1008
  725POPI   C1B10825   6.284  13.884   6.654  0.1406 -0.1356  0.0100
  725POPI   C2B10826   6.196  13.815   7.040 -0.0229  0.2872  0.1462
  725POPI   C3B10827   6.359  13.885   7.485 -0.4113  0.0954 -0.0604
  725POPI   C4B10828   6.140  14.083   7.804  0.0445  0.0095  0.3372
  726POPI    C110829  17.042  17.594   5.581  0.0549 -0.1395 -0.0567
  726POPI    C210830  16.727  17.359   5.653  0.0568 -0.1123  0.0422
  726POPI    C310831  16.698  17.657   5.388 -0.0654  0.0225  0.2054
  726POPI   PO410832  17.119  17.605   5.917 -0.3917 -0.3273  0.2349
  726POPI   GL110833  17.103  17.997   6.181 -0.0462 -0.0353  0.1303
  726POPI   GL210834  17.069  18.253   6.301  0.0753 -0.0932 -0.0500
  726POPI   C1A10835  17.242  17.806   6.595 -0.1154  0.3702  0.1040
  726POPI   D2A10836  17.284  17.984   6.968 -0.1312  0.0494 -0.0443
  726POPI   C3A10837  17.079  17.810   7.377  0.3499  0.2570 -0.1392
  726POPI   C4A10838  16.997  17.518   7.726  0.3369 -0.4023  0.0492
  726POPI   C1B10839  17.067  18.357   6.745 -0.2506  0.0002 -0.2029
  726POPI   C2B10840  17.129  18.479   7.200 -0.0903  0.2344 -0.2180
  726POPI   C3B10841  17.222  18.365   7.552 -0.1111  0.1402 -0.2696
  726POPI   C4B10842  17.246  18.381   7.940  0.1295 -0.0958  0.0232
  727POPI    C110843   5.640  16.929   5.666 -0.0504  0.1006  0.0168
  727POPI    C210844   5.395  17.108   5.405  0.0039 -0.0084 -0.1100
  727POPI    C310845   5.791  17.148   5.367  0.0101  0.0351 -0.0008
  727POPI   PO410846   5.570  16.960   5.876  0.1014  0.2485  0.3163
  727POPI   GL110847   5.819  16.870   6.235 -0.0318 -0.1626  0.1344
  727POPI   GL210848   5.645  16.585   6.283  0.1691 -0.2163 -0.2698
  727POPI   C1A10849   6.194  16.718   6.417 -0.0187  0.1778  0.2312
  727POPI   D2A10850   6.342  16.609   6.816  0.1909  0.3833 -0.1485
  727POPI   C3A10851   6.286  16.752   7.279 -0.1534  0.0692  0.3516
  727POPI   C4A10852   6.247  16.528   7.566  0.1888 -0.2266 -0.1744
  727POPI   C1B10853   5.891  16.393   6.648  0.2492  0.1692 -0.0663
  727POPI   C2B10854   5.853  16.496   7.058  0.1705 -0.0608  0.1044
  727POPI   C3B10855   5.750  16.826   7.364  0.0379 -0.0900 -0.2065
  727POPI   C4B10856   5.501  17.103   7.493  0.0782 -0.3507 -0.2577
  728POPI    C110857   1.146  15.455   5.806  0.0797 -0.0702  0.0800
  728POPI    C210858   0.947  15.128   5.690  0.0739  0.0118 -0.1463
  728POPI    C310859   1.346  15.140   5.660  0.0743  0.0242 -0.1354
  728POPI   PO410860   1.063  15.451   6.031  0.1853  0.1124  0.0243
  728POPI   GL110861   0.895  15.782   6.223 -0.1819  0.1690 -0.2271
  728POPI   GL210862   1.162  15.779   6.400  0.1265  0.2831  0.0315
  728POPI   C1A10863   0.737  15.935   6.554 -0.2149 -0.2025 -0.1059
  728POPI   D2A10864   0.489  15.875   6.766 -0.0166  0.1328  0.0110
  728POPI   C3A10865   0.279  15.732   7.096  0.1272  0.3384  0.0012
  728POPI   C4A10866   0.469  15.932   7.378  0.2232 -0.0306 -0.1253
  728POPI   C1B10867   1.367  15.798   6.757 -0.3777  0.1249  0.2700
  728POPI   C2B10868   1.223  15.993   7.129  0.0307 -0.1025  0.2079
  728POPI   C3B10869   1.433  16.049   7.508 -0.1154  0.4506  0.0933
  728POPI   C4B10870   1.625  15.785   7.911 -0.4423 -0.2744 -0.1528
  729POPI    C110871  17.857   4.523   5.763 -0.1239 -0.2119  0.0340
  729POPI    C210872  17.875   4.800   5.475  0.1966  0.0579  0.3051
  729POPI    C310873  17.956   4.418   5.390 -0.1862  0.0507 -0.0585
  729POPI   PO410874  17.920   4.638   5.984 -0.1065  0.0126  0.3611
  729POPI   GL110875  17.847   4.788   6.244  0.2894 -0.1560  0.1087
  729POPI   GL210876  18.113   5.011   6.314  0.0558 -0.2764  0.1082
  729POPI   C1A10877  17.540   4.441   6.463  0.0539  0.2156 -0.1483
  729POPI   D2A10878  17.318   4.341   6.830  0.0869 -0.3269  0.3316
  729POPI   C3A10879  17.625   4.457   7.137  0.1178  0.1204 -0.3177
  729POPI   C4A10880  17.681   4.781   7.587 -0.0088 -0.3641 -0.1405
  729POPI   C1B10881  18.265   5.396   6.629 -0.2047  0.1971 -0.1500
  729POPI   C2B10882  18.609   5.435   6.965 -0.3582  0.0687  0.0651
  729POPI   C3B10883  18.936   5.724   7.240  0.3113 -0.3959 -0.0370
  729POPI   C4B10884  19.013   5.721   7.701 -0.0406 -0.3105  0.1604
  730POPI    C110885  17.454   1.361   5.610  0.1698  0.0447 -0.0036
  730POPI    C210886  17.657   1.036   5.493  0.3211  0.1814 -0.1257
  730POPI    C310887  17.493   1.279   5.220 -0.2364 -0.0662 -0.0255
  730POPI   PO410888  17.306   1.239   5.891  0.1486 -0.1699 -0.0201
  730POPI   GL110889  17.383   1.039   6.277  0.2623  0.0980  0.3285
  730POPI   GL210890  17.228   0.730   6.275 -0.2615 -0.0819  0.2250
  730POPI   C1A10891  17.407   1.147   6.636 -0.1273 -0.0509  0.0089
  730POPI   D2A10892  17.447   1.232   7.042 -0.0296 -0.3863  0.4200
  730POPI   C3A10893  17.499   1.362   7.436  0.1014  0.1873  0.0100
  730POPI   C4A10894  17.749   1.475   7.742 -0.1551 -0.1355  0.0644
  730POPI   C1B10895  17.330   0.697   6.737 -0.0649 -0.0484  0.0732
  730POPI   C2B10896  17.366   0.788   7.239  0.1780 -0.1727  0.0861
  730POPI   C3B10897  17.056   0.799   7.619 -0.1110 -0.0570  0.0093
  730POPI   C4B10898  17.100   0.792   8.088 -0.0882  0.2243  0.0053
  731POPI    C110899   4.218  10.313   5.968 -0.1360  0.0577 -0.1232
  731POPI    C210900   4.187   9.923   5.884  0.0757 -0.0236  0.1579
  731POPI    C310901   4.328  10.177   5.609 -0.2162 -0.1162 -0.0830
  731POPI   PO410902   4.041  10.364   6.141  0.0711 -0.5537  0.1490
  731POPI   GL110903   4.216  10.474   6.495  0.3132 -0.2497 -0.1348
  731POPI   GL210904   4.456  10.577   6.477 -0.0071 -0.0614 -0.1618
  731POPI   C1A10905   4.367  10.256   6.926  0.1453 -0.3515 -0.0278
  731POPI   D2A10906   4.326  10.341   7.355 -0.1325  0.0398 -0.0218
  731POPI   C3A10907   4.580  10.095   7.528 -0.0216  0.1514  0.2118
  731POPI   C4A10908   4.688   9.628   7.733  0.0049 -0.0818  0.0855
  731POPI   C1B10909   4.444  10.806   6.835 -0.0376  0.0794  0.1097
  731POPI   C2B10910   4.515  10.793   7.246 -0.1811 -0.2531 -0.0457
  731POPI   C3B10911   4.409  10.798   7.648  0.0873 -0.1649  0.0241
  731POPI   C4B10912   4.273  10.822   8.107  0.0479  0.0169  0.0078
  732POPI    C110913   3.938   1.655   6.200 -0.0878  0.0196  0.0220
  732POPI    C210914   4.203   1.731   5.910 -0.0460  0.0429  0.0661
  732POPI    C310915   3.818   1.673   5.819 -0.1108  0.4741  0.0451
  732POPI   PO410916   4.077   1.915   6.416  0.1706 -0.0012  0.2581
  732POPI   GL110917   4.435   2.134   6.581 -0.0427 -0.0153  0.2234
  732POPI   GL210918   4.772   2.115   6.600 -0.0489 -0.2654  0.0898
  732POPI   C1A10919   4.230   2.143   6.995 -0.2318 -0.0217  0.1137
  732POPI   D2A10920   3.940   2.154   7.306 -0.0525 -0.0731 -0.0778
  732POPI   C3A10921   4.148   2.118   7.714  0.1389  0.0675  0.0827
  732POPI   C4A10922   4.292   1.786   8.063 -0.0327 -0.4282  0.1887
  732POPI   C1B10923   4.735   2.398   6.855  0.1316  0.0819  0.1381
  732POPI   C2B10924   4.562   2.547   7.165 -0.1398 -0.2933  0.1376
  732POPI   C3B10925   4.166   2.552   7.433  0.0088  0.0286 -0.0909
  732POPI   C4B10926   3.969   2.584   7.771 -0.2127 -0.2096  0.0687
  733POPI    C110927  15.779  14.754   6.127  0.0291  0.0321 -0.0628
  733POPI    C210928  15.541  14.883   6.422  0.0939  0.1377 -0.0561
  733POPI    C310929  15.515  15.047   6.058  0.0330  0.0264 -0.1025
  733POPI   PO410930  15.991  14.745   6.219 -0.2089 -0.1325 -0.2874
  733POPI   GL110931  16.139  14.334   6.470 -0.0927 -0.1816  0.0034
  733POPI   GL210932  15.799  14.438   6.538  0.0923  0.2729  0.2337
  733POPI   C1A10933  16.383  14.577   6.791  0.1829 -0.3178 -0.1059
  733POPI   D2A10934  16.591  14.476   7.170  0.1488  0.2102  0.1021
  733POPI   C3A10935  16.921  14.390   7.394 -0.0667  0.2165  0.1412
  733POPI   C4A10936  17.010  14.560   7.787 -0.0804  0.0761 -0.1368
  733POPI   C1B10937  15.884  14.559   6.882 -0.3376 -0.1400 -0.0333
  733POPI   C2B10938  16.085  14.469   7.177 -0.0766 -0.1310 -0.0890
  733POPI   C3B10939  16.190  14.340   7.535  0.1619  0.1436 -0.0755
  733POPI   C4B10940  16.448  14.133   7.841  0.0321  0.0633  0.0666
  734POPI    C110941  15.426   3.761   5.266  0.0744 -0.2811 -0.4192
  734POPI    C210942  15.043   3.671   5.338  0.1255 -0.0878  0.1472
  734POPI    C310943  15.141   4.033   5.199  0.1006 -0.1615 -0.0665
  734POPI   PO410944  15.687   3.727   5.559  0.0772 -0.0744 -0.1346
  734POPI   GL110945  15.792   3.561   6.008 -0.3391  0.1322  0.2761
  734POPI   GL210946  15.624   3.574   6.138 -0.0044  0.0217 -0.0826
  734POPI   C1A10947  16.000   3.260   6.355 -0.0395  0.1962 -0.1788
  734POPI   D2A10948  15.907   3.196   6.813  0.3296 -0.2902 -0.2721
  734POPI   C3A10949  16.128   3.239   7.125 -0.0912  0.0231 -0.1009
  734POPI   C4A10950  16.051   3.379   7.546 -0.2904 -0.2499  0.1351
  734POPI   C1B10951  15.617   3.683   6.556  0.3044 -0.0521 -0.0351
  734POPI   C2B10952  15.704   3.649   6.971 -0.5966  0.4805  0.0930
  734POPI   C3B10953  15.606   3.448   7.309  0.1098 -0.2310 -0.1984
  734POPI   C4B10954  15.341   3.677   7.615 -0.0039 -0.2201  0.0930
  735POPI    C110955   7.782  11.578   6.163 -0.2129  0.1844 -0.0784
  735POPI    C210956   7.391  11.600   6.241 -0.1942  0.2687 -0.0068
  735POPI    C310957   7.560  11.863   5.991 -0.1259  0.4280  0.2035
  735POPI   PO410958   7.847  11.348   6.246  0.0688 -0.0223  0.1899
  735POPI   GL110959   8.038  11.395   6.576  0.1429  0.2958 -0.1695
  735POPI   GL210960   7.682  11.501   6.658 -0.5705  0.0226 -0.3174
  735POPI   C1A10961   7.934  11.274   7.063  0.1613 -0.1387 -0.0374
  735POPI   D2A10962   7.781  11.375   7.481  0.1581  0.1590  0.1059
  735POPI   C3A10963   7.387  11.259   7.792  0.0676 -0.0617  0.0193
  735POPI   C4A10964   7.095  11.034   7.984  0.0066 -0.1684 -0.0545
  735POPI   C1B10965   7.713  11.695   7.008 -0.2043 -0.0910 -0.2149
  735POPI   C2B10966   7.633  11.885   7.435  0.0392 -0.0209 -0.1727
  735POPI   C3B10967   7.556  12.186   7.759  0.0294  0.2352  0.0124
  735POPI   C4B10968   7.480  12.308   8.250  0.0573 -0.1876  0.1250
  736POPI    C110969   8.189   5.836   5.700 -0.0867 -0.0142  0.1013
  736POPI    C210970   8.361   5.568   5.458 -0.0991  0.1025 -0.0385
  736POPI    C310971   8.012   5.483   5.634  0.0308 -0.0804  0.1369
  736POPI   PO410972   8.442   5.945   5.821  0.2128 -0.1667 -0.0178
  736POPI   GL110973   8.555   5.841   6.270 -0.1195 -0.0653 -0.0329
  736POPI   GL210974   8.407   6.090   6.536  0.1379  0.1898 -0.0037
  736POPI   C1A10975   8.377   5.615   6.667 -0.0151 -0.1948  0.0156
  736POPI   D2A10976   8.384   5.476   7.104  0.2313  0.0857 -0.0334
  736POPI   C3A10977   8.748   5.528   7.401  0.3682 -0.3575 -0.2026
  736POPI   C4A10978   8.962   5.748   7.760  0.0807  0.0276  0.1358
  736POPI   C1B10979   8.507   6.131   6.955  0.1046  0.2439 -0.2311
  736POPI   C2B10980   8.454   5.941   7.337  0.1863 -0.0380 -0.1129
  736POPI   C3B10981   8.447   5.749   7.734 -0.0886 -0.1312 -0.0521
  736POPI   C4B10982   8.547   5.348   7.922 -0.2209  0.0997  0.3288
  737POPI    C110983  15.555  13.374   6.159 -0.0121 -0.2530 -0.2230
  737POPI    C210984  15.790  13.262   5.856 -0.0436 -0.0686 -0.3172
  737POPI    C310985  15.610  13.619   5.848  0.1574  0.0454  0.0355
  737POPI   PO410986  15.721  13.335   6.334 -0.0769 -0.1331 -0.1699
  737POPI   GL110987  15.815  13.160   6.720  0.1187  0.2354 -0.0417
  737POPI   GL210988  16.147  13.109   6.605 -0.1329  0.1111  0.0577
  737POPI   C1A10989  15.739  12.989   7.204  0.0198 -0.2555  0.0759
  737POPI   D2A10990  15.960  12.886   7.659 -0.1354 -0.0504  0.0866
  737POPI   C3A10991  15.705  12.939   8.006 -0.2410  0.1328 -0.0055
  737POPI   C4A10992  15.689  13.154   8.445 -0.3284 -0.2163 -0.1223
  737POPI   C1B10993  16.235  13.029   6.945  0.1774 -0.0835  0.0029
  737POPI   C2B10994  16.301  12.863   7.282  0.4168  0.2170 -0.2586
  737POPI   C3B10995  16.498  13.012   7.650  0.0797  0.1471  0.0711
  737POPI   C4B10996  16.679  13.185   8.127  0.0191 -0.0347 -0.0527
  738POPI    C110997   9.956  12.033   6.136 -0.0050  0.2708  0.0111
  738POPI    C210998  10.232  11.832   6.344 -0.1970  0.0673  0.0737
  738POPI    C310999  10.261  11.858   5.946  0.0717  0.3009  0.1058
  738POPI   PO411000   9.934  12.240   6.267 -0.1017  0.1169  0.0927
  738POPI   GL111001   9.656  12.390   6.636 -0.0098  0.3038 -0.1321
  738POPI   GL211002   9.327  12.246   6.683 -0.2192  0.1831  0.3264
  738POPI   C1A11003   9.804  12.405   7.120 -0.4866  0.4863  0.0011
  738POPI   D2A11004   9.878  12.340   7.569 -0.1012 -0.1076  0.0290
  738POPI   C3A11005   9.824  12.670   7.853  0.1396  0.0937 -0.1620
  738POPI   C4A11006   9.711  13.033   7.795 -0.0378  0.3811  0.1422
  738POPI   C1B11007   9.294  12.213   7.118 -0.0870  0.1312  0.2980
  738POPI   C2B11008   9.348  12.066   7.505 -0.0218  0.0254 -0.0713
  738POPI   C3B11009   9.514  12.150   7.858 -0.3894 -0.2851 -0.0863
  738POPI   C4B11010   9.716  12.276   8.245  0.1417 -0.1102  0.1558
  739POPI    C111011   4.434   0.384   5.909 -0.0129  0.0303 -0.1188
  739POPI    C211012   4.811   0.449   6.025 -0.0591 -0.1024  0.1120
  739POPI    C311013   4.727   0.147   5.776  0.0191  0.0853 -0.1467
  739POPI   PO411014   4.270   0.324   6.061  0.0197  0.2673 -0.0026
  739POPI   GL111015   4.278   0.302   6.589  0.3245  0.0593  0.1646
  739POPI   GL211016   4.463   0.515   6.461  0.4434 -0.0678 -0.1214
  739POPI   C1A11017   4.244   0.352   7.042 -0.0772 -0.1412  0.0816
  739POPI   D2A11018   4.258   0.581   7.366 -0.0447 -0.1483 -0.2855
  739POPI   C3A11019   3.862   0.771   7.591  0.0275  0.2998 -0.1049
  739POPI   C4A11020   3.446   0.867   7.538 -0.1257  0.0357 -0.0808
  739POPI   C1B11021   4.207   0.762   6.741 -0.0355 -0.0999 -0.1457
  739POPI   C2B11022   3.910   0.808   7.083  0.2468  0.1019 -0.1264
  739POPI   C3B11023   3.464   0.898   7.014 -0.1637  0.1604  0.0304
  739POPI   C4B11024   3.157   0.621   7.214 -0.1589 -0.0260 -0.0812
  740POPI    C111025  15.306   0.554   5.580 -0.1376  0.0971  0.0797
  740POPI    C211026  15.255   0.262   5.849 -0.0438  0.0584  0.0560
  740POPI    C311027  14.960   0.355   5.596 -0.0327 -0.0960 -0.0148
  740POPI   PO411028  15.408   0.769   5.740  0.0202 -0.1222 -0.2113
  740POPI   GL111029  15.381   0.899   6.192 -0.0080 -0.0005  0.0070
  740POPI   GL211030  15.042   0.655   6.190 -0.0074  0.0147  0.4067
  740POPI   C1A11031  15.266   0.848   6.695  0.1830  0.4416 -0.1075
  740POPI   D2A11032  15.105   0.601   7.079 -0.0215 -0.0642  0.1956
  740POPI   C3A11033  14.820   0.645   7.394 -0.1862  0.1007 -0.0613
  740POPI   C4A11034  14.521   0.917   7.463 -0.0649 -0.1444  0.0854
  740POPI   C1B11035  14.739   0.413   6.382  0.1162 -0.0124 -0.0895
  740POPI   C2B11036  14.381   0.458   6.477  0.2805 -0.1115 -0.2208
  740POPI   C3B11037  14.108   0.719   6.558  0.1270 -0.0846  0.0481
  740POPI   C4B11038  13.714   0.777   6.462  0.2932  0.0536  0.2029
  741POPS   CNO11039   1.655   7.642   5.813  0.3346 -0.1702 -0.0796
  741POPS   PO411040   1.776   7.667   6.286  0.0621  0.0203  0.2810
  741POPS   GL111041   1.540   7.725   6.701  0.2677  0.3581 -0.2770
  741POPS   GL211042   1.825   7.578   6.946 -0.1341 -0.1363  0.2379
  741POPS   C1A11043   1.313   7.661   7.010  0.0244  0.3276 -0.2277
  741POPS   D2A11044   1.265   7.608   7.469  0.2470 -0.2885  0.0355
  741POPS   C3A11045   1.464   7.468   7.801 -0.2668 -0.3025 -0.1526
  741POPS   C4A11046   1.483   7.079   8.068  0.2176  0.0740  0.3361
  741POPS   C1B11047   1.842   7.483   7.398 -0.1958 -0.0365  0.1477
  741POPS   C2B11048   1.938   7.638   7.762 -0.0813  0.2729 -0.0745
  741POPS   C3B11049   1.778   7.712   8.134  0.1749 -0.3025 -0.1536
  741POPS   C4B11050   1.821   7.627   8.617 -0.1866  0.0592 -0.0267
  742POPS   CNO11051  10.293   2.377   5.706  0.0144  0.0145  0.2105
  742POPS   PO411052   9.864   2.543   5.692  0.2310  0.1239  0.0169
  742POPS   GL111053   9.815   2.455   6.073  0.2037 -0.0284 -0.0698
  742POPS   GL211054  10.106   2.418   6.236 -0.0394 -0.1690  0.2382
  742POPS   C1A11055   9.666   2.405   6.496 -0.1867 -0.0295  0.0128
  742POPS   D2A11056   9.838   2.628   6.927  0.1114  0.4315 -0.0678
  742POPS   C3A11057  10.079   2.394   7.216  0.2401 -0.2999  0.0583
  742POPS   C4A11058  10.097   2.070   7.400 -0.0647  0.1262 -0.0619
  742POPS   C1B11059  10.210   2.273   6.662  0.0377 -0.1279 -0.0012
  742POPS   C2B11060  10.576   2.309   6.940  0.0549 -0.0742  0.1399
  742POPS   C3B11061  10.498   2.424   7.388  0.0160  0.0431 -0.0924
  742POPS   C4B11062  10.161   2.469   7.700 -0.1818 -0.1050  0.1211
  743POPS   CNO11063  13.048  10.224   5.514  0.0344  0.2097  0.1721
  743POPS   PO411064  13.077  10.288   5.937  0.0967  0.1404 -0.0632
  743POPS   GL111065  12.871  10.083   6.255  0.0039 -0.0562 -0.2053
  743POPS   GL211066  13.027   9.849   6.423  0.2402  0.1471 -0.1633
  743POPS   C1A11067  12.615  10.096   6.511 -0.1313 -0.1200 -0.0797
  743POPS   D2A11068  12.635  10.110   6.962 -0.2337 -0.1075 -0.2338
  743POPS   C3A11069  12.716   9.860   7.366 -0.1050 -0.0829 -0.2696
  743POPS   C4A11070  12.808   9.613   7.690 -0.1443  0.2212 -0.1259
  743POPS   C1B11071  13.064   9.965   6.828  0.3114 -0.2227  0.0706
  743POPS   C2B11072  13.175   9.834   7.187 -0.2305 -0.0069  0.1383
  743POPS   C3B11073  13.271   9.616   7.622  0.0568  0.1469  0.0168
  743POPS   C4B11074  13.175   9.564   8.005 -0.2535 -0.3096 -0.2491
  744POPS   CNO11075   9.518   4.033   5.302 -0.0190  0.5088 -0.1233
  744POPS   PO411076   9.223   3.752   5.550  0.1974  0.0257 -0.0852
  744POPS   GL111077   9.103   3.855   5.871 -0.2725  0.0172  0.0970
  744POPS   GL211078   8.812   3.854   6.112  0.1061 -0.0929 -0.2541
  744POPS   C1A11079   9.227   3.864   6.377  0.1780  0.0344  0.0184
  744POPS   D2A11080   9.259   3.506   6.673 -0.0410  0.1250  0.1663
  744POPS   C3A11081   9.279   3.546   7.181  0.0718  0.3564 -0.4320
  744POPS   C4A11082   9.385   3.605   7.606 -0.1406 -0.2866  0.0281
  744POPS   C1B11083   8.348   3.798   6.364  0.1701  0.0522  0.0433
  744POPS   C2B11084   8.237   3.843   6.775 -0.0988  0.0386 -0.0307
  744POPS   C3B11085   8.308   3.915   7.214 -0.1011  0.3650 -0.1482
  744POPS   C4B11086   8.471   3.966   7.728  0.0239  0.1332  0.1915
  745POPS   CNO11087   2.664  10.697   6.118  0.0047  0.0496  0.1246
  745POPS   PO411088   2.423  10.300   6.129 -0.2324  0.2531  0.1984
  745POPS   GL111089   2.117  10.497   6.475 -0.0694  0.2845  0.0213
  745POPS   GL211090   1.868  10.417   6.379 -0.3991  0.0938 -0.3085
  745POPS   C1A11091   1.996  10.458   6.945 -0.0332 -0.1982  0.0790
  745POPS   D2A11092   1.910  10.331   7.302  0.2818 -0.1150  0.2103
  745POPS   C3A11093   2.090  10.377   7.679  0.3203 -0.3976 -0.2139
  745POPS   C4A11094   2.144  10.267   8.110  0.5042  0.0796  0.1638
  745POPS   C1B11095   1.728  10.774   6.629  0.1366  0.5581  0.1397
  745POPS   C2B11096   1.677  10.773   7.167  0.0915  0.1156  0.1136
  745POPS   C3B11097   1.590  10.740   7.558 -0.2438  0.0219 -0.1804
  745POPS   C4B11098   1.807  10.709   7.953  0.0454  0.0385  0.1113
  746POPS   CNO11099  11.477  16.883   5.323  0.1894 -0.0066 -0.3318
  746POPS   PO411100  11.538  17.125   5.701  0.1456 -0.1223  0.1307
  746POPS   GL111101  11.560  17.160   6.150  0.4125  0.3047  0.0684
  746POPS   GL211102  11.823  16.981   6.351  0.0017  0.0354 -0.1046
  746POPS   C1A11103  11.357  16.845   6.445 -0.1319 -0.2205 -0.3468
  746POPS   D2A11104  11.218  16.869   6.837  0.2165  0.0200 -0.1834
  746POPS   C3A11105  11.427  16.796   7.266 -0.0393 -0.0068  0.2207
  746POPS   C4A11106  11.846  16.581   7.487  0.0365  0.0198  0.1136
  746POPS   C1B11107  11.786  17.054   6.756 -0.0117 -0.0934  0.1202
  746POPS   C2B11108  11.818  17.035   7.191  0.0231  0.1179 -0.1198
  746POPS   C3B11109  11.629  17.139   7.605  0.0022  0.0361 -0.1026
  746POPS   C4B11110  11.839  17.015   7.924  0.0840 -0.0761  0.2089
  747POPS   CNO11111   6.260  17.000   5.233  0.0662 -0.0000 -0.0312
  747POPS   PO411112   6.446  17.116   5.647  0.2368 -0.0280 -0.0010
  747POPS   GL111113   6.492  17.232   6.133 -0.2828  0.0510  0.0182
  747POPS   GL211114   6.786  17.276   6.326 -0.1617  0.1109 -0.1878
  747POPS   C1A11115   6.329  17.219   6.532  0.0598  0.1815 -0.1845
  747POPS   D2A11116   6.091  17.038   6.915  0.0356 -0.2612 -0.1912
  747POPS   C3A11117   5.958  17.297   7.237  0.0771  0.2816 -0.1861
  747POPS   C4A11118   5.936  17.443   7.690  0.1757  0.0217 -0.0699
  747POPS   C1B11119   6.888  17.399   6.762  0.1866  0.2563  0.0812
  747POPS   C2B11120   6.906  17.414   7.087  0.0416  0.2935 -0.2355
  747POPS   C3B11121   6.999  17.163   7.473  0.1746  0.1314 -0.0127
  747POPS   C4B11122   6.986  16.993   7.741  0.0893 -0.1829  0.2105
  748POPS   CNO11123   3.209   2.748   5.905 -0.0567  0.1175 -0.0944
  748POPS   PO411124   3.367   2.304   5.925 -0.2982 -0.0654 -0.0085
  748POPS   GL111125   3.387   2.499   6.309 -0.2241 -0.2009  0.0338
  748POPS   GL211126   3.111   2.559   6.371  0.1332  0.0478  0.1255
  748POPS   C1A11127   3.507   2.771   6.753 -0.1707  0.0721  0.0050
  748POPS   D2A11128   3.797   2.647   7.045  0.2302 -0.2117 -0.0186
  748POPS   C3A11129   3.755   2.857   7.406  0.0153  0.1138 -0.0575
  748POPS   C4A11130   3.625   2.923   7.831 -0.0060 -0.0011  0.1781
  748POPS   C1B11131   3.170   2.353   6.774 -0.0986 -0.3812 -0.0248
  748POPS   C2B11132   3.426   2.208   7.114  0.0081  0.2587  0.0908
  748POPS   C3B11133   3.522   2.267   7.561 -0.1598 -0.1351  0.0684
  748POPS   C4B11134   3.587   2.360   7.954 -0.0689 -0.0555  0.0781
  749POPS   CNO11135  10.428   0.736   5.485  0.0493 -0.1133  0.4127
  749POPS   PO411136  10.476   1.172   5.580 -0.0350 -0.1975  0.1959
  749POPS   GL111137  10.169   1.124   5.843  0.0684  0.2150  0.0848
  749POPS   GL211138  10.000   1.386   5.995 -0.2298  0.0265  0.0507
  749POPS   C1A11139   9.971   0.890   6.187 -0.2972  0.2251 -0.1472
  749POPS   D2A11140  10.011   0.997   6.611 -0.1900  0.0404 -0.4133
  749POPS   C3A11141  10.067   1.184   6.990  0.2663 -0.1663 -0.2318
  749POPS   C4A11142  10.062   1.233   7.417  0.1342 -0.3861 -0.1668
  749POPS   C1B11143  10.291   1.262   6.329 -0.0998 -0.1253 -0.1613
  749POPS   C2B11144  10.426   1.380   6.792  0.1343 -0.3563  0.0686
  749POPS   C3B11145  10.535   1.540   7.215  0.0097  0.0813 -0.0502
  749POPS   C4B11146  10.530   1.897   7.286  0.0561 -0.0006  0.0014
  750POPS   CNO11147  15.902   0.785   5.676  0.1022  0.0433  0.0087
  750POPS   PO411148  16.346   0.777   5.670  0.0615 -0.3542  0.1045
  750POPS   GL111149  16.324   0.768   6.005  0.1906  0.1464  0.1553
  750POPS   GL211150  16.383   0.913   6.254 -0.0627 -0.1530 -0.1909
  750POPS   C1A11151  16.195   0.509   6.409 -0.0780 -0.0296  0.0143
  750POPS   D2A11152  15.908   0.222   6.496  0.0858 -0.1185 -0.1192
  750POPS   C3A11153  15.447   0.366   6.377  0.2326  0.0395 -0.1026
  750POPS   C4A11154  15.130   0.314   6.620 -0.1183 -0.1983  0.0673
  750POPS   C1B11155  16.090   1.131   6.526 -0.2260  0.0344  0.1235
  750POPS   C2B11156  15.811   1.230   6.846  0.0710  0.2675  0.2883
  750POPS   C3B11157  15.822   1.318   7.232 -0.1966 -0.1241  0.0448
  750POPS   C4B11158  15.903   1.449   7.681 -0.0070 -0.0148  0.2813
  751POPS   CNO11159   4.051   1.156   5.880 -0.0778 -0.1944  0.0697
  751POPS   PO411160   4.243   1.301   6.228  0.1753  0.0753 -0.0154
  751POPS   GL111161   4.100   1.194   6.548 -0.0138 -0.1474  0.0429
  751POPS   GL211162   4.160   1.494   6.677  0.3132 -0.1789  0.0106
  751POPS   C1A11163   3.734   0.928   6.631 -0.2227 -0.0105  0.1542
  751POPS   D2A11164   3.357   0.943   6.510 -0.0614 -0.0158  0.0264
  751POPS   C3A11165   3.098   0.719   6.712 -0.1085 -0.0550 -0.1163
  751POPS   C4A11166   2.792   0.804   6.867 -0.0241 -0.0187  0.1585
  751POPS   C1B11167   4.264   1.172   7.020 -0.1730 -0.0957 -0.1240
  751POPS   C2B11168   4.226   1.113   7.284 -0.0178 -0.0532 -0.1212
  751POPS   C3B11169   4.172   1.120   7.732 -0.0602  0.0961  0.1985
  751POPS   C4B11170   4.172   1.176   8.106 -0.3235  0.1842 -0.0544
  752POPS   CNO11171  11.692  12.918   5.670  0.0871 -0.0676  0.0842
  752POPS   PO411172  11.947  12.798   6.011 -0.1912  0.2557  0.0953
  752POPS   GL111173  11.817  12.958   6.354  0.2597 -0.1048  0.0118
  752POPS   GL211174  11.855  13.251   6.367  0.0990 -0.1097  0.0553
  752POPS   C1A11175  11.694  12.850   6.668  0.1430  0.1859  0.1203
  752POPS   D2A11176  11.979  12.952   7.102 -0.0684 -0.3357  0.0692
  752POPS   C3A11177  11.807  13.032   7.465  0.1536  0.2373 -0.0111
  752POPS   C4A11178  11.371  12.865   7.716 -0.1021 -0.0253  0.2562
  752POPS   C1B11179  11.632  13.303   6.790 -0.1210  0.0711 -0.2615
  752POPS   C2B11180  11.445  13.013   7.152  0.0990  0.2770  0.2620
  752POPS   C3B11181  11.083  12.984   7.314 -0.2102  0.0338 -0.2218
  752POPS   C4B11182  10.999  13.388   7.446  0.1098  0.1058 -0.3235
  753POPS   CNO11183  13.643  14.164   5.608 -0.0101 -0.0073 -0.1082
  753POPS   PO411184  13.584  13.817   5.899 -0.1122  0.1057  0.2986
  753POPS   GL111185  13.500  13.693   6.248  0.1644 -0.1399 -0.2594
  753POPS   GL211186  13.476  13.991   6.387 -0.0707 -0.0841 -0.0472
  753POPS   C1A11187  13.363  13.547   6.664  0.0183  0.0008  0.0644
  753POPS   D2A11188  13.123  13.545   7.098 -0.2500  0.0724  0.0297
  753POPS   C3A11189  12.903  13.479   7.503 -0.0217 -0.0901 -0.2337
  753POPS   C4A11190  13.110  13.634   7.868  0.0487 -0.0850 -0.1086
  753POPS   C1B11191  13.306  14.000   6.911 -0.2471  0.0492  0.2166
  753POPS   C2B11192  13.282  13.978   7.413  0.2452 -0.0944 -0.1457
  753POPS   C3B11193  13.530  13.834   7.663 -0.0100 -0.1709  0.1268
  753POPS   C4B11194  13.822  13.567   7.962 -0.3498 -0.0638  0.1539
  754POPS   CNO11195   8.661   3.850   5.524  0.0516 -0.0472 -0.3175
  754POPS   PO411196   8.783   4.252   5.739 -0.1519  0.0750  0.3657
  754POPS   GL111197   8.577   4.342   6.088  0.2326  0.1189  0.1381
  754POPS   GL211198   8.824   4.336   6.247  0.2746 -0.0816 -0.0776
  754POPS   C1A11199   8.295   4.290   6.414 -0.2382  0.1848  0.3108
  754POPS   D2A11200   8.300   4.333   6.814  0.0399  0.1435  0.0095
  754POPS   C3A11201   8.340   4.687   7.066 -0.0063 -0.0275  0.3277
  754POPS   C4A11202   8.355   4.742   7.440 -0.2193  0.1356 -0.2853
  754POPS   C1B11203   8.763   4.069   6.549 -0.0269 -0.0471  0.0935
  754POPS   C2B11204   8.687   4.093   6.984  0.1002 -0.2487 -0.0350
  754POPS   C3B11205   8.673   4.261   7.310 -0.2449  0.1053  0.3422
  754POPS   C4B11206   8.885   4.506   7.533 -0.0723 -0.0733  0.0772
  755POPS   CNO11207  12.998  13.346   5.506  0.0157  0.0903  0.1791
  755POPS   PO411208  13.191  12.948   5.636 -0.1804 -0.0270 -0.2720
  755POPS   GL111209  13.237  12.951   6.079 -0.1160 -0.0412 -0.1536
  755POPS   GL211210  13.320  12.639   6.261  0.1881 -0.1741  0.1633
  755POPS   C1A11211  13.510  13.141   6.405  0.0936  0.0663 -0.1482
  755POPS   D2A11212  13.653  13.142   6.780 -0.1887  0.3116  0.0296
  755POPS   C3A11213  13.942  12.863   7.013 -0.0717  0.0379 -0.2609
  755POPS   C4A11214  14.126  12.695   7.280  0.1846  0.0807 -0.1976
  755POPS   C1B11215  13.111  12.912   6.619  0.0452  0.3646  0.1255
  755POPS   C2B11216  13.219  13.078   6.930 -0.1151 -0.1662  0.2911
  755POPS   C3B11217  13.400  13.115   7.262 -0.2183 -0.2148  0.2462
  755POPS   C4B11218  13.388  13.371   7.578  0.2447  0.1796 -0.1269
  756POPS   CNO11219   4.794   2.675   6.439 -0.4623 -0.0179 -0.0174
  756POPS   PO411220   5.173   2.395   6.235  0.1197  0.0165  0.1989
  756POPS   GL111221   5.210   2.451   6.667  0.1521  0.1192  0.0722
  756POPS   GL211222   5.086   2.802   6.811 -0.3017 -0.1035 -0.0159
  756POPS   C1A11223   5.201   2.441   7.112  0.1194 -0.0132  0.1363
  756POPS   D2A11224   4.990   2.575   7.418 -0.3373  0.0024 -0.3226
  756POPS   C3A11225   5.184   2.610   7.827  0.5097 -0.1000  0.1723
  756POPS   C4A11226   5.023   2.458   8.257 -0.2709  0.0811  0.1326
  756POPS   C1B11227   5.326   2.962   7.107 -0.0161 -0.2005 -0.0060
  756POPS   C2B11228   5.486   3.119   7.496  0.0421 -0.1709 -0.1991
  756POPS   C3B11229   5.549   2.932   7.936 -0.0655 -0.1653  0.0053
  756POPS   C4B11230   5.940   2.942   8.156 -0.0052  0.1600 -0.1916
  757POPS   CNO11231   8.245  16.424   5.387  0.0360 -0.0983  0.0845
  757POPS   PO411232   8.685  16.434   5.635  0.2153  0.0836  0.3571
  757POPS   GL111233   8.581  16.682   5.961  0.3658  0.0526  0.3222
  757POPS   GL211234   8.485  16.438   6.206  0.0709 -0.1013 -0.0238
  757POPS   C1A11235   8.494  16.911   6.390 -0.1886  0.0695 -0.3518
  757POPS   D2A11236   8.349  16.787   6.827 -0.0194 -0.1041  0.2433
  757POPS   C3A11237   8.386  16.806   7.260  0.3129  0.1499 -0.3095
  757POPS   C4A11238   8.460  16.511   7.578 -0.1467  0.1102  0.1116
  757POPS   C1B11239   8.442  16.352   6.583  0.1117 -0.0944  0.1277
  757POPS   C2B11240   8.269  16.299   7.042  0.0845 -0.0148  0.0740
  757POPS   C3B11241   8.284  16.113   7.376 -0.3724  0.0240 -0.1797
  757POPS   C4B11242   8.521  16.049   7.794 -0.1238 -0.0029 -0.6284
  758POPS   CNO11243  11.327   0.827   5.423  0.0650  0.1058 -0.3038
  758POPS   PO411244  11.359   0.777   5.777  0.1553  0.1457  0.0125
  758POPS   GL111245  11.227   0.999   6.084  0.1517 -0.2042  0.0040
  758POPS   GL211246  11.466   1.335   6.213 -0.1743  0.0404  0.0889
  758POPS   C1A11247  11.222   0.821   6.522  0.2612 -0.0735  0.0289
  758POPS   D2A11248  11.197   0.992   6.906  0.0768  0.0396  0.1671
  758POPS   C3A11249  11.102   0.794   7.214 -0.0005  0.0276 -0.1326
  758POPS   C4A11250  10.863   0.836   7.515 -0.0308  0.1555 -0.3086
  758POPS   C1B11251  11.423   1.537   6.557 -0.1910  0.0668  0.0033
  758POPS   C2B11252  11.415   1.413   6.990  0.2118 -0.0649 -0.2735
  758POPS   C3B11253  11.417   1.142   7.367 -0.0911  0.0766  0.1172
  758POPS   C4B11254  11.458   0.896   7.746  0.1372 -0.1620 -0.2398
  759POPS   CNO11255   3.624   2.903   6.181  0.4152  0.0401 -0.3391
  759POPS   PO411256   3.820   2.572   5.981 -0.0728 -0.0049  0.0397
  759POPS   GL111257   3.882   2.548   6.400  0.0032 -0.1683  0.1174
  759POPS   GL211258   4.277   2.653   6.556  0.1473 -0.1445 -0.0800
  759POPS   C1A11259   3.694   2.297   6.730 -0.2383 -0.0100  0.1230
  759POPS   D2A11260   3.816   1.860   6.852  0.1912 -0.0649  0.0245
  759POPS   C3A11261   4.058   1.677   7.121 -0.1591  0.1440 -0.2086
  759POPS   C4A11262   4.086   1.568   7.507 -0.0799  0.0345 -0.0187
  759POPS   C1B11263   4.230   2.846   6.956  0.1214 -0.1575 -0.3020
  759POPS   C2B11264   4.201   3.026   7.416 -0.0064 -0.0142  0.0511
  759POPS   C3B11265   4.038   3.256   7.719 -0.1005 -0.3148 -0.0820
  759POPS   C4B11266   3.725   3.441   8.064  0.1612  0.0070  0.1185
  760POPS   CNO11267   2.179  10.754   6.021  0.2250  0.0723 -0.0064
  760POPS   PO411268   2.241  11.233   6.043  0.0234  0.0413  0.0342
  760POPS   GL111269   2.492  11.093   6.403  0.1063  0.0200 -0.1848
  760POPS   GL211270   2.205  11.000   6.501  0.4595 -0.1247 -0.1545
  760POPS   C1A11271   2.603  11.169   6.759 -0.1012  0.1146  0.1171
  760POPS   D2A11272   2.823  11.513   7.102 -0.0116  0.0399 -0.2252
  760POPS   C3A11273   2.958  11.485   7.516  0.0295 -0.2528 -0.2230
  760POPS   C4A11274   3.043  11.435   7.944  0.1167 -0.1689  0.0899
  760POPS   C1B11275   2.175  10.942   6.970  0.0894 -0.0107 -0.1089
  760POPS   C2B11276   2.047  10.936   7.446  0.0735 -0.3250  0.0100
  760POPS   C3B11277   1.621  11.187   7.807 -0.1694 -0.2888  0.0695
  760POPS   C4B11278   1.193  11.315   7.822  0.0951 -0.3189  0.1211
  761POPS   CNO11279   0.006  16.109   6.047 -0.0537 -0.4318  0.0026
  761POPS   PO411280  -0.337  15.927   6.250 -0.1299 -0.4193  0.0509
  761POPS   GL111281  -0.527  16.023   6.628  0.1107  0.1415  0.1541
  761POPS   GL211282  -0.485  16.389   6.716  0.0383 -0.0434  0.1509
  761POPS   C1A11283  -0.503  16.086   7.074  0.0621  0.3947  0.0254
  761POPS   D2A11284  -0.195  15.898   7.333  0.1365 -0.1866 -0.3570
  761POPS   C3A11285  -0.199  16.074   7.843  0.1804 -0.0322 -0.0593
  761POPS   C4A11286  -0.595  16.250   8.027 -0.0115 -0.1585  0.0597
  761POPS   C1B11287  -0.411  16.571   7.152 -0.1600 -0.1824  0.2850
  761POPS   C2B11288  -0.490  16.377   7.528 -0.1374 -0.0459  0.0735
  761POPS   C3B11289  -0.633  16.022   7.580  0.2389  0.1931 -0.1721
  761POPS   C4B11290  -0.514  15.682   7.913 -0.1197 -0.2938 -0.0703
  762POPS   CNO11291   3.220   7.059   5.886  0.0619  0.1174  0.0997
  762POPS   PO411292   3.473   6.614   5.946 -0.1137 -0.0064 -0.1873
  762POPS   GL111293   3.429   6.761   6.344  0.2474 -0.1638 -0.2409
  762POPS   GL211294   3.331   7.155   6.379 -0.0384  0.2580 -0.2340
  762POPS   C1A11295   3.524   6.948   6.760  0.2813  0.1651  0.2020
  762POPS   D2A11296   3.442   6.850   7.098  0.3559  0.1284  0.1543
  762POPS   C3A11297   3.201   7.023   7.370  0.0506 -0.0638  0.2015
  762POPS   C4A11298   2.915   6.854   7.711  0.0774  0.4239 -0.4278
  762POPS   C1B11299   3.224   7.334   6.828 -0.0729 -0.3197  0.3892
  762POPS   C2B11300   2.930   7.259   7.015  0.2061 -0.0595 -0.1839
  762POPS   C3B11301   2.702   7.221   7.353  0.1207  0.0876  0.1973
  762POPS   C4B11302   2.296   7.333   7.473  0.1265 -0.0349  0.0240
  763POPS   CNO11303  13.474   8.120   5.064  0.2178  0.0697  0.2377
  763POPS   PO411304  13.666   8.119   5.414  0.0338 -0.0972  0.6007
  763POPS   GL111305  13.772   8.409   5.676  0.1832 -0.1933 -0.1974
  763POPS   GL211306  14.096   8.422   5.819 -0.4074  0.2060  0.0358
  763POPS   C1A11307  13.800   8.678   6.063  0.0742  0.0726  0.1783
  763POPS   D2A11308  13.886   8.863   6.368  0.0524  0.2196 -0.1076
  763POPS   C3A11309  14.265   8.722   6.559 -0.0505 -0.0176  0.0344
  763POPS   C4A11310  14.574   8.694   6.841  0.3227  0.0365 -0.0143
  763POPS   C1B11311  14.213   8.317   6.255  0.0918  0.0748 -0.2648
  763POPS   C2B11312  14.313   8.263   6.679 -0.0505 -0.0577 -0.0782
  763POPS   C3B11313  14.351   8.228   7.094 -0.0098 -0.3534 -0.2141
  763POPS   C4B11314  14.407   8.061   7.500  0.0684 -0.2976  0.1109
  764POPS   CNO11315   5.386  14.095   5.540 -0.0678 -0.0852  0.0396
  764POPS   PO411316   5.711  14.370   5.550  0.2372 -0.0521  0.1419
  764POPS   GL111317   5.759  14.323   6.044 -0.1864 -0.1399  0.1230
  764POPS   GL211318   5.617  14.395   6.311 -0.0764  0.1281 -0.2422
  764POPS   C1A11319   5.793  13.890   6.285  0.0128 -0.1540  0.1623
  764POPS   D2A11320   5.453  13.554   6.285  0.0320 -0.0359  0.0101
  764POPS   C3A11321   5.676  13.138   6.482  0.0702 -0.0140 -0.4030
  764POPS   C4A11322   5.581  13.007   6.946  0.6629  0.0659  0.3183
  764POPS   C1B11323   5.959  14.282   6.559 -0.5455  0.0711  0.0183
  764POPS   C2B11324   6.067  14.268   6.898 -0.0081  0.1266  0.2906
  764POPS   C3B11325   6.365  14.279   7.168 -0.3008 -0.0287  0.2415
  764POPS   C4B11326   6.464  14.501   7.612 -0.1682 -0.0472  0.3141
  765POPS   CNO11327  17.330   4.046   5.494 -0.3827 -0.0437 -0.0356
  765POPS   PO411328  17.217   3.866   5.761  0.3128  0.2681 -0.2947
  765POPS   GL111329  17.123   3.976   6.176 -0.2725 -0.0973  0.1272
  765POPS   GL211330  17.434   3.990   6.300 -0.1013 -0.2213 -0.0543
  765POPS   C1A11331  17.053   4.393   6.411 -0.2263 -0.1718  0.1618
  765POPS   D2A11332  16.951   4.614   6.932 -0.0153  0.0053 -0.1478
  765POPS   C3A11333  17.144   4.625   7.326 -0.1517  0.1351  0.0396
  765POPS   C4A11334  17.278   4.567   7.738 -0.0549 -0.0697  0.0678
  765POPS   C1B11335  17.656   3.980   6.693  0.0175  0.0993  0.1425
  765POPS   C2B11336  17.806   3.985   7.086 -0.0182  0.1869 -0.3693
  765POPS   C3B11337  17.811   4.023   7.543  0.0106 -0.3168  0.0372
  765POPS   C4B11338  17.961   3.838   7.902  0.5116 -0.0765 -0.2252
  766POPS   CNO11339   7.243   3.953   5.076  0.0145 -0.1040  0.3561
  766POPS   PO411340   7.381   4.217   5.449 -0.2780  0.0260  0.3158
  766POPS   GL111341   7.007   4.279   5.724  0.2463 -0.1609  0.2579
  766POPS   GL211342   6.991   4.497   5.893  0.2328 -0.1137 -0.1388
  766POPS   C1A11343   6.688   4.145   6.101  0.0402  0.2027  0.2627
  766POPS   D2A11344   6.415   4.179   6.380 -0.1725  0.0355 -0.3284
  766POPS   C3A11345   6.579   4.182   6.745  0.1250 -0.2552 -0.2248
  766POPS   C4A11346   6.495   4.011   7.118 -0.1549  0.0918 -0.0382
  766POPS   C1B11347   7.204   4.721   6.199 -0.1614  0.0523 -0.0064
  766POPS   C2B11348   7.328   4.696   6.481  0.3583 -0.1387  0.0615
  766POPS   C3B11349   7.368   4.382   6.886  0.4107  0.2177  0.0925
  766POPS   C4B11350   7.357   4.300   7.348  0.2435 -0.0257 -0.1668
  767POPS   CNO11351   3.732   9.919   6.082  0.0691 -0.1243 -0.0011
  767POPS   PO411352   3.336  10.049   6.048  0.0151  0.0553  0.2167
  767POPS   GL111353   3.420   9.941   6.495 -0.1036 -0.1658 -0.0739
  767POPS   GL211354   3.174   9.803   6.698  0.0003 -0.2954  0.0352
  767POPS   C1A11355   3.669   9.650   6.777 -0.3807  0.1255  0.1419
  767POPS   D2A11356   3.748   9.563   7.150  0.0262  0.2262  0.0762
  767POPS   C3A11357   3.782   9.472   7.532  0.1313 -0.1976 -0.1071
  767POPS   C4A11358   3.860   9.602   7.922  0.2395  0.1481  0.3855
  767POPS   C1B11359   3.289   9.820   7.137 -0.1097  0.3415  0.2263
  767POPS   C2B11360   3.448   9.833   7.653 -0.0483 -0.1450 -0.1866
  767POPS   C3B11361   3.358   9.858   8.142 -0.3505  0.0083 -0.1400
  767POPS   C4B11362   3.269   9.607   8.581  0.2426 -0.0057  0.2075
  768POPS   CNO11363   9.514   0.972   5.680  0.0154 -0.2502  0.1300
  768POPS   PO411364   9.127   0.825   5.534 -0.1783  0.4035 -0.0937
  768POPS   GL111365   9.009   0.734   5.943 -0.1112  0.1660 -0.3488
  768POPS   GL211366   9.090   0.855   6.206 -0.1572 -0.2322 -0.1162
  768POPS   C1A11367   8.640   0.615   6.226  0.0180  0.0512  0.0769
  768POPS   D2A11368   8.630   0.473   6.626 -0.2232  0.2024  0.1063
  768POPS   C3A11369   8.354   0.375   6.889  0.3599  0.0077  0.1603
  768POPS   C4A11370   8.162   0.292   7.297 -0.4283  0.1135 -0.2577
  768POPS   C1B11371   9.153   1.013   6.725 -0.1022  0.0543  0.1982
  768POPS   C2B11372   9.198   1.145   7.189  0.0954 -0.3375  0.2920
  768POPS   C3B11373   9.141   1.153   7.569  0.0264 -0.0235 -0.0148
  768POPS   C4B11374   9.324   0.872   7.848  0.1941 -0.0767  0.2723
  769POPS   CNO11375   5.535  14.721   5.863 -0.2620 -0.2340 -0.0383
  769POPS   PO411376   5.544  15.183   6.032 -0.0027 -0.2819  0.2110
  769POPS   GL111377   5.678  14.909   6.300 -0.1635 -0.1033 -0.0167
  769POPS   GL211378   6.013  14.783   6.306 -0.1299 -0.0789 -0.1733
  769POPS   C1A11379   5.601  14.633   6.694 -0.1136  0.0888  0.1502
  769POPS   D2A11380   5.695  14.614   7.160  0.0058 -0.0951 -0.1310
  769POPS   C3A11381   5.858  14.250   7.381  0.1094  0.1949  0.0373
  769POPS   C4A11382   5.681  13.825   7.489  0.2579  0.3085 -0.0938
  769POPS   C1B11383   6.086  14.739   6.754 -0.0298  0.1082 -0.1195
  769POPS   C2B11384   6.177  14.800   7.231 -0.2506  0.1682 -0.0317
  769POPS   C3B11385   6.006  14.709   7.598 -0.0138 -0.1983  0.0675
  769POPS   C4B11386   5.807  14.609   7.965 -0.0877 -0.2119 -0.1338
  770POPS   CNO11387   5.055   6.928   6.276 -0.2335  0.1477  0.0219
  770POPS   PO411388   5.184   7.297   6.038  0.2743 -0.0633  0.2817
  770POPS   GL111389   5.149   7.403   6.516  0.2184  0.2567 -0.0550
  770POPS   GL211390   4.853   7.249   6.613 -0.1258  0.3405 -0.2308
  770POPS   C1A11391   5.157   7.478   6.930  0.2086  0.1061 -0.0240
  770POPS   D2A11392   5.312   7.381   7.251  0.0366  0.0588 -0.2998
  770POPS   C3A11393   5.105   7.550   7.580 -0.0664  0.2746  0.0576
  770POPS   C4A11394   5.046   7.700   7.993  0.2307  0.1067  0.0748
  770POPS   C1B11395   5.136   6.985   6.817  0.0666  0.1275  0.1249
  770POPS   C2B11396   5.197   6.892   7.261  0.0639 -0.1906 -0.0474
  770POPS   C3B11397   4.997   6.727   7.586  0.1988  0.0864  0.1694
  770POPS   C4B11398   4.629   6.349   7.527 -0.0167  0.0590 -0.5908
  771POPS   CNO11399  13.834  18.037   5.976  0.2158 -0.1023  0.0828
  771POPS   PO411400  13.679  18.375   5.757 -0.0104  0.1176 -0.0224
  771POPS   GL111401  13.570  18.412   6.142 -0.2390 -0.0351 -0.0914
  771POPS   GL211402  13.173  18.456   6.152  0.1746  0.2495 -0.1234
  771POPS   C1A11403  13.821  18.353   6.518 -0.0612 -0.1483  0.1905
  771POPS   D2A11404  13.803  18.406   6.918 -0.1048 -0.1731 -0.0157
  771POPS   C3A11405  14.172  18.650   7.025  0.0051  0.1651  0.0178
  771POPS   C4A11406  14.605  18.579   6.975 -0.2310  0.1295  0.2555
  771POPS   C1B11407  13.219  18.607   6.574 -0.2327 -0.0306 -0.0204
  771POPS   C2B11408  13.333  18.614   6.993  0.1208  0.0304 -0.1180
  771POPS   C3B11409  13.268  18.503   7.389 -0.1255  0.0153  0.0628
  771POPS   C4B11410  13.471  18.601   7.769  0.0790  0.1572 -0.1244
  772POPS   CNO11411  13.903   9.127   5.283  0.2380 -0.1951  0.0687
  772POPS   PO411412  13.720   9.430   5.521  0.4271  0.1772 -0.0049
  772POPS   GL111413  13.545   9.509   5.929 -0.0349  0.1462  0.1868
  772POPS   GL211414  13.572   9.813   6.127 -0.1696  0.0424 -0.1408
  772POPS   C1A11415  13.374   9.446   6.411  0.1880  0.0433 -0.2455
  772POPS   D2A11416  13.484   9.125   6.629  0.0683  0.1344 -0.0854
  772POPS   C3A11417  13.576   9.083   7.100  0.3377 -0.5955 -0.1152
  772POPS   C4A11418  13.698   8.693   7.313  0.0206  0.0687  0.1202
  772POPS   C1B11419  13.705   9.805   6.534  0.0726  0.2224  0.2605
  772POPS   C2B11420  13.588   9.573   6.933 -0.2301 -0.0192 -0.2908
  772POPS   C3B11421  13.655   9.456   7.370  0.1078  0.0603 -0.1203
  772POPS   C4B11422  13.504   9.041   7.594  0.2474 -0.0234 -0.0031
  773POPS   CNO11423   5.636   6.155   6.186 -0.0260  0.1887  0.1509
  773POPS   PO411424   5.225   6.015   6.121 -0.0287  0.1100 -0.4047
  773POPS   GL111425   5.088   5.938   6.496  0.3051  0.1713 -0.1088
  773POPS   GL211426   5.410   5.853   6.577  0.3024  0.1085  0.0071
  773POPS   C1A11427   5.004   5.780   6.926  0.0677  0.1057 -0.0074
  773POPS   D2A11428   5.031   5.542   7.311  0.1943  0.6464  0.1660
  773POPS   C3A11429   5.086   5.815   7.602 -0.0096 -0.0465  0.0864
  773POPS   C4A11430   4.750   5.974   7.957 -0.1366  0.1041 -0.1848
  773POPS   C1B11431   5.497   6.110   6.888 -0.0454 -0.1321 -0.1203
  773POPS   C2B11432   5.508   6.001   7.347 -0.0592 -0.0342  0.0741
  773POPS   C3B11433   5.589   5.868   7.755  0.1891  0.0918 -0.3986
  773POPS   C4B11434   5.561   5.625   8.164  0.0552  0.2130 -0.2107
  774POPS   CNO11435  13.207  13.798   5.535 -0.1546 -0.1492 -0.3014
  774POPS   PO411436  12.766  13.849   5.817 -0.0522 -0.0092 -0.0891
  774POPS   GL111437  12.738  13.641   6.210 -0.0086 -0.1299  0.0763
  774POPS   GL211438  12.949  13.855   6.340 -0.2761 -0.0093 -0.0574
  774POPS   C1A11439  12.809  13.569   6.686 -0.0207  0.2653 -0.0045
  774POPS   D2A11440  12.650  13.500   7.059 -0.2050  0.1309  0.1094
  774POPS   C3A11441  12.406  13.186   7.268 -0.1477 -0.0065  0.0014
  774POPS   C4A11442  12.289  13.023   7.621  0.0443  0.1149 -0.1039
  774POPS   C1B11443  12.786  14.048   6.754  0.1149 -0.2351  0.0830
  774POPS   C2B11444  12.641  14.384   6.986 -0.1707 -0.1502  0.0713
  774POPS   C3B11445  12.517  14.347   7.362  0.0897 -0.0448  0.1321
  774POPS   C4B11446  12.426  14.423   7.792 -0.0454  0.0147 -0.1057
  775POPS   CNO11447   0.643  14.272   5.868 -0.0848 -0.0864  0.0402
  775POPS   PO411448   1.044  14.163   5.691 -0.1386 -0.0163 -0.0720
  775POPS   GL111449   1.008  13.987   6.102 -0.2012 -0.0127 -0.0432
  775POPS   GL211450   0.652  13.841   6.203 -0.0185  0.2222 -0.1578
  775POPS   C1A11451   1.058  14.026   6.546  0.5518 -0.1084 -0.1451
  775POPS   D2A11452   0.900  14.262   6.831  0.1146  0.1021 -0.1004
  775POPS   C3A11453   0.890  14.287   7.144  0.1749  0.1110 -0.3155
  775POPS   C4A11454   1.055  14.331   7.556  0.1483 -0.2107  0.1955
  775POPS   C1B11455   0.542  14.108   6.546  0.3576  0.0285 -0.0149
  775POPS   C2B11456   0.450  14.151   6.905  0.0552 -0.0698  0.2591
  775POPS   C3B11457   0.386  14.000   7.298 -0.0002  0.3454  0.0196
  775POPS   C4B11458   0.241  13.843   7.740  0.1166 -0.0720  0.3372
  776POPS   CNO11459   0.769   2.990   5.870 -0.1996  0.1985  0.0121
  776POPS   PO411460   0.908   3.448   5.750 -0.1494 -0.1742 -0.2561
  776POPS   GL111461   0.769   3.758   6.021 -0.0262  0.4351  0.0420
  776POPS   GL211462   0.455   3.846   6.109 -0.2317 -0.2833  0.2490
  776POPS   C1A11463   0.921   3.763   6.386 -0.3097 -0.2103 -0.1741
  776POPS   D2A11464   0.883   3.791   6.866  0.1483  0.1386 -0.1708
  776POPS   C3A11465   1.213   3.753   7.172  0.0861  0.0135 -0.0091
  776POPS   C4A11466   1.398   3.924   7.436  0.1029  0.5109  0.1733
  776POPS   C1B11467   0.447   3.750   6.500  0.0481  0.0606  0.0811
  776POPS   C2B11468   0.495   3.462   6.779  0.1077 -0.2479 -0.0695
  776POPS   C3B11469   0.175   3.392   7.021  0.0504  0.0984 -0.0796
  776POPS   C4B11470   0.052   3.687   7.266 -0.0147  0.0664  0.0246
  777POPS   CNO11471   3.697  16.209   6.662  0.1060  0.1972  0.1258
  777POPS   PO411472   3.560  16.195   6.228 -0.0094 -0.2887  0.1396
  777POPS   GL111473   3.174  16.250   6.606  0.3343  0.0936  0.1743
  777POPS   GL211474   3.124  16.560   6.498 -0.3609 -0.5068 -0.1194
  777POPS   C1A11475   3.108  16.028   6.946  0.1267  0.1424 -0.0892
  777POPS   D2A11476   3.171  16.058   7.315  0.0295  0.3835 -0.1071
  777POPS   C3A11477   2.891  15.829   7.665 -0.0868 -0.1082  0.1794
  777POPS   C4A11478   2.871  15.741   8.062 -0.0185 -0.0489 -0.0206
  777POPS   C1B11479   3.064  16.830   6.902  0.1495  0.2540 -0.3425
  777POPS   C2B11480   3.166  16.812   7.308 -0.0052  0.0811  0.0066
  777POPS   C3B11481   3.101  16.633   7.648  0.1088 -0.1653  0.1740
  777POPS   C4B11482   3.126  16.209   7.919  0.1114 -0.0290  0.0529
  778POPS   CNO11483   3.130   0.552   6.254 -0.1500 -0.1955  0.1266
  778POPS   PO411484   2.781   0.806   6.045 -0.0611 -0.0204  0.0909
  778POPS   GL111485   2.663   0.859   6.427  0.0918 -0.0983 -0.2156
  778POPS   GL211486   2.755   1.170   6.434 -0.2274  0.0194  0.0584
  778POPS   C1A11487   2.327   0.731   6.669  0.1531  0.3075 -0.1269
  778POPS   D2A11488   2.068   0.701   7.001  0.0798 -0.0096  0.0640
  778POPS   C3A11489   2.308   0.672   7.226  0.0007 -0.0026 -0.2690
  778POPS   C4A11490   2.483   0.596   7.592  0.1363 -0.0111 -0.2656
  778POPS   C1B11491   2.585   1.242   6.855  0.1410 -0.2015 -0.0002
  778POPS   C2B11492   2.580   1.191   7.210  0.1301  0.1949 -0.0382
  778POPS   C3B11493   2.756   0.918   7.357  0.0511  0.0149 -0.3076
  778POPS   C4B11494   2.992   0.778   7.728 -0.0153 -0.2826  0.1880
  779POPS   CNO11495  10.508   8.614   5.369 -0.0771 -0.0677  0.1726
  779POPS   PO411496  10.511   8.503   5.835  0.0830  0.0374 -0.1122
  779POPS   GL111497  10.492   8.297   6.253  0.2562 -0.2337 -0.2538
  779POPS   GL211498  10.599   8.100   6.452 -0.1324 -0.0618 -0.0770
  779POPS   C1A11499  10.149   8.285   6.601  0.0109  0.2339  0.1425
  779POPS   D2A11500  10.007   8.362   6.828  0.1482 -0.0099 -0.4494
  779POPS   C3A11501  10.137   8.270   7.191 -0.1323 -0.0935  0.0030
  779POPS   C4A11502  10.368   8.222   7.493 -0.1742  0.0307 -0.1042
  779POPS   C1B11503  10.459   7.919   6.779 -0.2219 -0.2816  0.0327
  779POPS   C2B11504  10.525   7.790   7.245 -0.0295 -0.3097  0.2585
  779POPS   C3B11505  10.444   7.789   7.727 -0.2887  0.0781 -0.1760
  779POPS   C4B11506  10.155   7.691   8.083 -0.1020 -0.3126  0.0821
  780POPS   CNO11507  16.842  14.572   6.658 -0.0314 -0.3163  0.0475
  780POPS   PO411508  17.229  14.759   6.528  0.2696  0.2057  0.0728
  780POPS   GL111509  17.147  15.120   6.772 -0.4715 -0.0659  0.0516
  780POPS   GL211510  17.481  15.088   6.811 -0.1250  0.1692  0.0522
  780POPS   C1A11511  17.123  15.325   7.219  0.2092 -0.2455  0.0672
  780POPS   D2A11512  17.063  15.418   7.655  0.1208  0.0624  0.1479
  780POPS   C3A11513  17.128  15.769   7.844  0.1056  0.1806 -0.0125
  780POPS   C4A11514  17.119  15.980   8.189 -0.1197  0.1187 -0.0854
  780POPS   C1B11515  17.538  15.033   7.192 -0.1955 -0.1376 -0.0019
  780POPS   C2B11516  17.731  15.230   7.707 -0.2088 -0.0720 -0.0787
  780POPS   C3B11517  17.678  15.144   8.124  0.0932 -0.1664  0.0278
  780POPS   C4B11518  17.485  14.965   8.423  0.0007 -0.0161  0.1067
  781POPS   CNO11519   4.246   4.933   5.605  0.1661  0.0920 -0.1185
  781POPS   PO411520   4.087   4.832   5.932  0.0353 -0.1913 -0.2617
  781POPS   GL111521   4.489   4.963   6.114 -0.1019  0.0513  0.1941
  781POPS   GL211522   4.353   5.198   6.388 -0.3840  0.2303 -0.0205
  781POPS   C1A11523   4.786   4.926   6.532  0.0552 -0.1036 -0.0141
  781POPS   D2A11524   4.709   4.801   6.874  0.3414  0.1678 -0.2741
  781POPS   C3A11525   4.337   4.795   7.066  0.1281  0.0650 -0.1685
  781POPS   C4A11526   3.864   4.784   6.915 -0.1467  0.0447  0.1196
  781POPS   C1B11527   4.167   5.228   6.759  0.0639  0.1032  0.0972
  781POPS   C2B11528   4.114   5.256   7.247  0.1088 -0.0916 -0.0896
  781POPS   C3B11529   4.137   5.404   7.547  0.1142 -0.0337  0.1185
  781POPS   C4B11530   4.260   5.648   7.933 -0.1562 -0.0058 -0.0789
  782POPS   CNO11531   4.791  12.055   6.129  0.1719 -0.1324  0.0338
  782POPS   PO411532   5.050  11.722   6.287 -0.1625 -0.1457 -0.1736
  782POPS   GL111533   4.837  11.722   6.603 -0.0475  0.1646 -0.1540
  782POPS   GL211534   4.654  11.884   6.585  0.2448 -0.2298 -0.5185
  782POPS   C1A11535   4.880  11.776   7.050 -0.0287 -0.1739  0.1624
  782POPS   D2A11536   4.790  11.879   7.475  0.2281  0.1249  0.0991
  782POPS   C3A11537   5.066  11.730   7.820  0.1506  0.0609  0.0132
  782POPS   C4A11538   5.243  11.628   8.163 -0.0080  0.0048  0.0594
  782POPS   C1B11539   4.540  12.161   6.944  0.0762  0.1200 -0.1474
  782POPS   C2B11540   4.455  12.270   7.285  0.1409 -0.1066  0.3191
  782POPS   C3B11541   4.544  12.228   7.690  0.2465 -0.0943 -0.0208
  782POPS   C4B11542   4.511  11.861   7.909  0.1218  0.0661 -0.3601
  783POPS   CNO11543   8.502  17.431   5.435 -0.0666  0.0887  0.0503
  783POPS   PO411544   8.789  17.344   5.789  0.3090  0.1107 -0.1236
  783POPS   GL111545   8.895  17.562   6.165 -0.0103 -0.1677  0.2368
  783POPS   GL211546   9.046  17.956   6.131  0.4162  0.0959  0.1546
  783POPS   C1A11547   8.821  17.656   6.565 -0.1615  0.1856  0.0085
  783POPS   D2A11548   8.706  17.650   7.074 -0.1119 -0.1791 -0.0265
  783POPS   C3A11549   8.365  17.585   7.346  0.0749 -0.0161  0.2593
  783POPS   C4A11550   8.116  17.853   7.465 -0.1190  0.2511  0.2401
  783POPS   C1B11551   9.009  18.168   6.563  0.3663 -0.2684  0.1655
  783POPS   C2B11552   9.023  18.108   6.944  0.1697  0.1102  0.1937
  783POPS   C3B11553   9.169  18.160   7.370 -0.0537 -0.2516  0.1529
  783POPS   C4B11554   9.029  18.474   7.673  0.1554  0.0450 -0.1140
  784POPS   CNO11555   9.686  16.529   5.540 -0.0798 -0.1198 -0.2928
  784POPS   PO411556   9.417  16.622   5.889 -0.0559  0.2222 -0.0623
  784POPS   GL111557   9.171  16.821   6.153  0.0501  0.3090 -0.2762
  784POPS   GL211558   8.933  17.032   6.154  0.0035  0.0246 -0.0409
  784POPS   C1A11559   8.912  16.653   6.538 -0.4629  0.1761 -0.0444
  784POPS   D2A11560   8.840  16.669   6.947 -0.1914 -0.1221 -0.1296
  784POPS   C3A11561   8.884  16.733   7.364  0.2472 -0.0322  0.4471
  784POPS   C4A11562   8.822  16.781   7.735 -0.0081 -0.2227  0.0378
  784POPS   C1B11563   8.906  17.123   6.597 -0.4367 -0.1883 -0.1058
  784POPS   C2B11564   8.734  17.161   7.048 -0.0933 -0.1479 -0.0115
  784POPS   C3B11565   8.581  17.186   7.508  0.1383 -0.0128  0.0362
  784POPS   C4B11566   8.252  16.938   7.798  0.1655 -0.2740  0.3035
  785POPS   CNO11567   8.302  12.816   5.455  0.1090 -0.1989 -0.0141
  785POPS   PO411568   8.099  12.507   5.623  0.1469 -0.0193  0.2567
  785POPS   GL111569   7.913  12.523   6.036 -0.2345  0.0722 -0.0497
  785POPS   GL211570   7.706  12.591   6.230 -0.1473 -0.0712  0.0328
  785POPS   C1A11571   8.142  12.548   6.416  0.0904  0.2464  0.0343
  785POPS   D2A11572   7.977  12.663   6.852  0.0036 -0.0564  0.0999
  785POPS   C3A11573   8.253  12.836   7.138 -0.1565  0.0541  0.0888
  785POPS   C4A11574   8.487  13.153   7.387  0.0114 -0.1489 -0.0118
  785POPS   C1B11575   7.628  12.391   6.525  0.2396  0.1235  0.1389
  785POPS   C2B11576   7.292  12.355   6.816  0.1166 -0.0313 -0.3219
  785POPS   C3B11577   7.274  12.270   7.354 -0.1608 -0.0339 -0.1846
  785POPS   C4B11578   7.111  12.015   7.607 -0.1390 -0.2648 -0.1826
  786POPS   CNO11579  11.723   5.395   6.057  0.1880  0.0689  0.0862
  786POPS   PO411580  11.320   5.226   5.858  0.3455  0.1008  0.3385
  786POPS   GL111581  11.293   5.182   6.311  0.0946  0.1429 -0.1311
  786POPS   GL211582  11.365   5.418   6.446 -0.3516 -0.0706 -0.1644
  786POPS   C1A11583  11.204   4.951   6.678 -0.0170  0.0182 -0.1296
  786POPS   D2A11584  11.400   4.912   7.237  0.0491 -0.2089 -0.1477
  786POPS   C3A11585  11.783   4.907   7.510 -0.3244  0.1553 -0.2950
  786POPS   C4A11586  11.892   5.136   7.837  0.0973 -0.2175 -0.0595
  786POPS   C1B11587  11.449   5.314   6.895 -0.0267  0.0554 -0.1073
  786POPS   C2B11588  11.603   5.331   7.310  0.2134 -0.0893 -0.0424
  786POPS   C3B11589  11.446   5.254   7.757  0.0027  0.0161  0.1505
  786POPS   C4B11590  11.100   5.279   7.921 -0.0370  0.0972 -0.1210
  787POPS   CNO11591   1.222   4.559   5.607 -0.1331  0.1727  0.0607
  787POPS   PO411592   1.180   5.029   5.540  0.3852 -0.0756  0.3806
  787POPS   GL111593   1.188   5.033   5.950 -0.4819 -0.2447  0.0692
  787POPS   GL211594   0.901   4.960   6.136  0.0910 -0.1886  0.3503
  787POPS   C1A11595   1.317   5.331   6.263  0.2800  0.2201 -0.1073
  787POPS   D2A11596   1.417   5.253   6.617  0.0809  0.0621 -0.0123
  787POPS   C3A11597   1.695   4.954   6.723  0.3230  0.0621  0.1872
  787POPS   C4A11598   1.677   4.528   6.626  0.1001 -0.1922  0.1143
  787POPS   C1B11599   0.523   5.103   6.338  0.1295  0.0583 -0.1601
  787POPS   C2B11600   0.355   4.993   6.819  0.0121  0.0404 -0.2580
  787POPS   C3B11601   0.314   4.914   7.222 -0.0053  0.2941  0.1918
  787POPS   C4B11602   0.411   4.702   7.621 -0.1853 -0.0500 -0.2540
  788POPS   CNO11603   6.970   5.369   5.057  0.0582  0.3056  0.2096
  788POPS   PO411604   6.832   5.106   5.516  0.0054  0.0066  0.1158
  788POPS   GL111605   6.753   4.941   5.902  0.2711 -0.1971 -0.0414
  788POPS   GL211606   6.419   5.133   6.061  0.0913  0.0372 -0.1143
  788POPS   C1A11607   6.671   4.714   6.308 -0.1668  0.0065  0.0759
  788POPS   D2A11608   6.825   4.709   6.686 -0.2266  0.0074  0.1849
  788POPS   C3A11609   6.877   4.503   7.061  0.0465 -0.1275  0.0019
  788POPS   C4A11610   6.930   4.490   7.556  0.0266  0.3339  0.0101
  788POPS   C1B11611   6.523   5.149   6.538 -0.1997  0.1624  0.2117
  788POPS   C2B11612   6.670   5.055   6.967 -0.1236 -0.0776  0.0824
  788POPS   C3B11613   6.802   4.951   7.353  0.0467 -0.1645  0.1206
  788POPS   C4B11614   6.860   4.995   7.814  0.0078 -0.2468  0.1705
  789POPS   CNO11615   8.965  11.965   5.901  0.0172  0.0215  0.0887
  789POPS   PO411616   8.900  12.279   6.180 -0.0226  0.1209 -0.2612
  789POPS   GL111617   8.855  12.193   6.591 -0.2080 -0.0252 -0.1338
  789POPS   GL211618   8.551  12.227   6.601  0.1378 -0.3281 -0.1113
  789POPS   C1A11619   8.804  12.086   7.047 -0.1540 -0.2764  0.2610
  789POPS   D2A11620   8.788  12.147   7.460  0.1375  0.0630  0.0287
  789POPS   C3A11621   8.931  12.378   7.800 -0.0025  0.1509 -0.2020
  789POPS   C4A11622   8.855  12.524   8.203 -0.0704  0.3005  0.1017
  789POPS   C1B11623   8.421  12.376   7.151  0.1739 -0.1373 -0.1641
  789POPS   C2B11624   8.436  12.462   7.535  0.3067  0.1097 -0.0221
  789POPS   C3B11625   8.532  12.723   7.769  0.4231  0.0663  0.0561
  789POPS   C4B11626   8.562  13.160   7.853 -0.0128  0.2993  0.1095
  790POPS   CNO11627  10.384  17.821   5.461  0.3843 -0.0704  0.0887
  790POPS   PO411628   9.957  17.951   5.552  0.1146  0.1055 -0.2423
  790POPS   GL111629  10.197  17.942   5.940  0.0793 -0.2449  0.1133
  790POPS   GL211630  10.487  18.020   6.085  0.1903  0.1276  0.1757
  790POPS   C1A11631  10.194  18.051   6.493  0.0791 -0.1880  0.0045
  790POPS   D2A11632  10.127  18.023   7.002  0.1059 -0.1447 -0.1926
  790POPS   C3A11633  10.177  18.315   7.365  0.0697 -0.1095  0.2372
  790POPS   C4A11634   9.974  18.512   7.688 -0.0357 -0.0280 -0.0415
  790POPS   C1B11635  10.590  18.333   6.411 -0.0988  0.3443  0.1110
  790POPS   C2B11636  10.454  18.416   6.905  0.0241 -0.1795  0.0058
  790POPS   C3B11637  10.507  18.635   7.297 -0.2394 -0.1070  0.2235
  790POPS   C4B11638  10.277  18.865   7.593 -0.3870 -0.0300 -0.0669
  791POPS   CNO11639  16.129   5.718   5.230  0.1074  0.1179  0.1903
  791POPS   PO411640  15.655   5.831   5.416 -0.0992 -0.0950  0.2538
  791POPS   GL111641  15.924   5.633   5.731 -0.2883 -0.1535  0.2020
  791POPS   GL211642  16.206   5.567   5.731  0.3075 -0.1656  0.1052
  791POPS   C1A11643  15.855   5.668   6.216 -0.0237 -0.1422  0.1473
  791POPS   D2A11644  15.668   5.385   6.434 -0.2889  0.0348 -0.0665
  791POPS   C3A11645  15.906   5.366   6.766 -0.0994  0.0271  0.0833
  791POPS   C4A11646  15.846   5.013   6.961  0.0202  0.2540  0.0408
  791POPS   C1B11647  16.390   5.370   6.120  0.0620 -0.0496  0.1164
  791POPS   C2B11648  16.441   5.198   6.629 -0.2306 -0.0429 -0.2999
  791POPS   C3B11649  16.304   5.312   7.080  0.1158 -0.1236  0.1947
  791POPS   C4B11650  16.024   5.184   7.458  0.0966  0.2604 -0.1766
  792POPS   CNO11651   8.406   1.494   5.483 -0.2070  0.1771  0.1533
  792POPS   PO411652   8.203   1.220   5.848 -0.0483 -0.0551 -0.2089
  792POPS   GL111653   8.382   1.214   6.154 -0.0612 -0.1660  0.2181
  792POPS   GL211654   8.694   1.141   6.206  0.0044  0.0045  0.0328
  792POPS   C1A11655   8.190   1.217   6.557  0.2338 -0.1978 -0.0716
  792POPS   D2A11656   8.280   1.210   6.939 -0.0256 -0.1242  0.1182
  792POPS   C3A11657   7.971   1.165   7.337 -0.0318 -0.0269 -0.0585
  792POPS   C4A11658   7.483   1.158   7.416 -0.3712 -0.2714  0.1496
  792POPS   C1B11659   8.649   0.963   6.614  0.0918 -0.0017  0.3801
  792POPS   C2B11660   8.770   0.810   6.972  0.0431  0.0156  0.1572
  792POPS   C3B11661   8.809   0.381   7.172  0.1434 -0.0568  0.2328
  792POPS   C4B11662   8.633   0.002   7.344  0.1464  0.0397 -0.1218
  793POPS   CNO11663  12.108  16.708   5.664  0.0866  0.0823  0.2057
  793POPS   PO411664  12.498  16.885   5.710  0.2148 -0.0906 -0.0504
  793POPS   GL111665  12.654  16.876   6.154 -0.0461  0.2380 -0.1489
  793POPS   GL211666  12.252  16.751   6.211 -0.0038 -0.2371 -0.1198
  793POPS   C1A11667  12.632  16.910   6.602 -0.3353 -0.2486 -0.1897
  793POPS   D2A11668  12.599  16.981   7.043  0.0748 -0.2499 -0.1083
  793POPS   C3A11669  12.913  17.196   7.281  0.1487 -0.3781 -0.2533
  793POPS   C4A11670  12.663  17.313   7.660 -0.1204 -0.0396 -0.0867
  793POPS   C1B11671  12.173  16.668   6.685 -0.0557 -0.1021  0.1470
  793POPS   C2B11672  12.198  16.688   7.173  0.0424  0.1458 -0.1572
  793POPS   C3B11673  12.295  16.802   7.506  0.2187 -0.0052  0.1523
  793POPS   C4B11674  12.364  16.729   7.903  0.2866  0.0370 -0.2572
  794POPS   CNO11675  16.850  15.033   6.271  0.2111 -0.1420 -0.2202
  794POPS   PO411676  16.767  15.527   6.213 -0.1016  0.1066  0.4658
  794POPS   GL111677  16.626  15.290   6.669  0.1751  0.0093 -0.2055
  794POPS   GL211678  16.615  15.008   6.746 -0.1940 -0.1058 -0.2034
  794POPS   C1A11679  16.517  15.345   7.099  0.1443 -0.1473  0.2425
  794POPS   D2A11680  16.544  15.386   7.545 -0.1273  0.0772 -0.0158
  794POPS   C3A11681  16.332  15.678   7.759 -0.0235  0.0021  0.0078
  794POPS   C4A11682  16.187  16.079   7.846 -0.2500 -0.0894 -0.0410
  794POPS   C1B11683  16.836  14.935   7.109 -0.0225 -0.0491  0.0098
  794POPS   C2B11684  16.939  14.943   7.476  0.0164  0.1467 -0.0430
  794POPS   C3B11685  16.784  15.065   7.901 -0.1683 -0.3325 -0.0050
  794POPS   C4B11686  16.680  15.477   8.067 -0.1008 -0.2879 -0.1174
  795POPS   CNO11687   5.020   4.950   6.059 -0.0986  0.0349  0.2455
  795POPS   PO411688   5.510   5.101   5.988 -0.2067 -0.1129  0.0880
  795POPS   GL111689   5.769   5.228   6.336 -0.1144  0.2233 -0.3659
  795POPS   GL211690   6.052   5.286   6.422 -0.1142 -0.0378 -0.2536
  795POPS   C1A11691   5.657   5.429   6.674  0.0133 -0.2849 -0.1615
  795POPS   D2A11692   5.494   5.607   7.024 -0.0134  0.2757  0.1877
  795POPS   C3A11693   5.527   5.479   7.366  0.1868  0.1047  0.2923
  795POPS   C4A11694   5.343   5.405   7.753  0.1249  0.0182 -0.0845
  795POPS   C1B11695   6.101   5.187   6.830  0.0386 -0.1052 -0.0204
  795POPS   C2B11696   6.234   5.109   7.191 -0.1386 -0.4051 -0.0341
  795POPS   C3B11697   6.280   5.099   7.556  0.0254  0.3252 -0.2812
  795POPS   C4B11698   6.408   4.746   7.774  0.3080  0.0841  0.1860
  796POPS   CNO11699  16.477  11.318   5.414 -0.5130  0.1877  0.0531
  796POPS   PO411700  16.339  11.572   5.891 -0.1056  0.2870  0.1525
  796POPS   GL111701  16.467  11.305   6.277  0.2633  0.0991  0.0238
  796POPS   GL211702  16.300  11.027   6.339  0.0007 -0.0905  0.2821
  796POPS   C1A11703  16.542  11.221   6.668 -0.0464 -0.1319  0.1781
  796POPS   D2A11704  16.446  11.080   7.027 -0.0558 -0.0420 -0.0769
  796POPS   C3A11705  16.465  11.014   7.488 -0.0674 -0.2449  0.1822
  796POPS   C4A11706  16.246  11.148   7.924 -0.0262 -0.2684  0.1254
  796POPS   C1B11707  16.123  10.825   6.740  0.1395 -0.0570 -0.0919
  796POPS   C2B11708  16.247  10.681   7.171 -0.1943  0.1791 -0.1449
  796POPS   C3B11709  16.069  10.648   7.591 -0.0704 -0.0242  0.0003
  796POPS   C4B11710  16.184  10.670   7.931  0.1656  0.1255  0.0613
  797POPS   CNO11711  17.959  15.061   5.947 -0.0982 -0.2075  0.2675
  797POPS   PO411712  17.658  14.823   6.198  0.0885 -0.2304  0.3525
  797POPS   GL111713  17.738  14.587   6.511  0.1273  0.1343 -0.0010
  797POPS   GL211714  18.015  14.487   6.452 -0.1059 -0.0342 -0.0524
  797POPS   C1A11715  17.735  14.601   6.926 -0.0024  0.2197  0.0558
  797POPS   D2A11716  17.916  14.703   7.299 -0.0711 -0.3239 -0.1485
  797POPS   C3A11717  17.860  14.717   7.710 -0.0983  0.1532  0.0227
  797POPS   C4A11718  17.580  14.494   8.039 -0.4300 -0.2851 -0.0372
  797POPS   C1B11719  18.244  14.561   6.803  0.0850  0.0212  0.1344
  797POPS   C2B11720  18.407  14.535   7.299  0.1186  0.0141 -0.0040
  797POPS   C3B11721  18.635  14.359   7.645  0.1479 -0.1500  0.3735
  797POPS   C4B11722  18.874  14.241   8.015  0.0854  0.1071  0.2537
  798POPS   CNO11723  14.362  17.828   5.774 -0.1528 -0.0582 -0.3935
  798POPS   PO411724  14.360  17.560   6.131  0.1281 -0.2147  0.5312
  798POPS   GL111725  14.810  17.678   6.340 -0.1647 -0.3202 -0.3306
  798POPS   GL211726  15.049  17.500   6.294  0.0193 -0.1551 -0.0723
  798POPS   C1A11727  14.981  17.678   6.769 -0.0036 -0.2131  0.1195
  798POPS   D2A11728  15.269  17.710   7.018 -0.1100 -0.1731  0.0308
  798POPS   C3A11729  15.083  17.815   7.357  0.1430 -0.0566  0.0253
  798POPS   C4A11730  15.001  17.932   7.780  0.0819  0.1247  0.0639
  798POPS   C1B11731  15.477  17.729   6.523 -0.0077 -0.0114  0.0392
  798POPS   C2B11732  15.518  18.114   6.720  0.0763  0.3264 -0.1814
  798POPS   C3B11733  15.582  18.511   6.918  0.0521  0.2799  0.0452
  798POPS   C4B11734  15.623  18.884   7.143 -0.1591 -0.3127 -0.1304
  799POPS   CNO11735  10.040   5.089   5.699 -0.1163 -0.2417  0.2064
  799POPS   PO411736   9.870   5.516   5.666 -0.2620 -0.2675  0.2022
  799POPS   GL111737   9.789   5.700   6.180  0.4297  0.3044  0.0236
  799POPS   GL211738   9.494   5.570   6.362  0.0315  0.1677 -0.3238
  799POPS   C1A11739   9.727   5.979   6.481 -0.0353 -0.1440 -0.2778
  799POPS   D2A11740   9.883   6.187   6.818  0.1354 -0.2868 -0.1907
  799POPS   C3A11741   9.878   6.256   7.161  0.0059 -0.0250 -0.0193
  799POPS   C4A11742   9.682   6.145   7.417  0.0871 -0.1202  0.1147
  799POPS   C1B11743   9.524   5.347   6.746 -0.1323  0.2752 -0.2327
  799POPS   C2B11744   9.639   5.375   7.237 -0.2210  0.0398 -0.1916
  799POPS   C3B11745   9.774   5.606   7.602  0.0512 -0.1578  0.2481
  799POPS   C4B11746   9.839   5.923   7.884 -0.1474 -0.0452  0.1933
  800POPS   CNO11747   6.328   5.958   5.499  0.2536  0.0299 -0.2937
  800POPS   PO411748   6.029   6.137   5.771 -0.0307  0.0764 -0.0652
  800POPS   GL111749   6.101   6.234   6.257  0.0095 -0.0152 -0.0422
  800POPS   GL211750   6.397   6.189   6.318 -0.1280 -0.0877  0.2131
  800POPS   C1A11751   5.972   6.243   6.683 -0.0440  0.1758 -0.0429
  800POPS   D2A11752   6.054   6.362   7.043  0.3320 -0.3569 -0.1900
  800POPS   C3A11753   5.975   6.206   7.487  0.1860 -0.0033 -0.2333
  800POPS   C4A11754   6.077   5.909   7.819 -0.0920 -0.0854  0.1825
  800POPS   C1B11755   6.480   6.085   6.701 -0.1540  0.3049 -0.0768
  800POPS   C2B11756   6.369   5.974   7.157  0.0696  0.2133  0.1694
  800POPS   C3B11757   6.504   5.948   7.579 -0.3604 -0.0040  0.4824
  800POPS   C4B11758   6.541   5.803   8.082 -0.1182 -0.3113  0.0929
  801POPS   CNO11759   0.499  16.765   5.658  0.0534 -0.0933  0.2377
  801POPS   PO411760   0.853  16.780   5.896  0.3717 -0.0360 -0.1052
  801POPS   GL111761   1.105  17.075   6.168 -0.0972  0.0668  0.0150
  801POPS   GL211762   1.328  16.939   6.272  0.0055  0.2204 -0.2010
  801POPS   C1A11763   1.068  17.282   6.621  0.0187 -0.0190 -0.1657
  801POPS   D2A11764   1.160  17.397   7.043  0.0262  0.0227 -0.3402
  801POPS   C3A11765   1.216  17.201   7.432 -0.1406  0.1152  0.1475
  801POPS   C4A11766   1.231  17.389   7.847 -0.0926  0.0045 -0.2260
  801POPS   C1B11767   1.566  17.159   6.595  0.0724  0.3427 -0.1972
  801POPS   C2B11768   1.694  17.313   6.932 -0.0373 -0.2488 -0.0641
  801POPS   C3B11769   1.649  17.302   7.287 -0.1391 -0.0878  0.0785
  801POPS   C4B11770   1.688  17.206   7.670 -0.0565 -0.1801 -0.0697
  802POPS   CNO11771   5.986  17.656   5.543 -0.3037 -0.1526  0.0869
  802POPS   PO411772   6.381  17.666   5.795 -0.1213 -0.1596  0.0722
  802POPS   GL111773   6.495  17.817   6.097 -0.3481  0.0182 -0.0000
  802POPS   GL211774   6.820  17.719   6.162  0.0505 -0.1823 -0.0028
  802POPS   C1A11775   6.667  18.135   6.469  0.5003 -0.0144  0.2680
  802POPS   D2A11776   6.641  18.481   6.870  0.1999 -0.2222 -0.0352
  802POPS   C3A11777   6.844  18.469   7.282 -0.2472  0.0385  0.0714
  802POPS   C4A11778   7.155  18.441   7.662  0.0350  0.2234 -0.0583
  802POPS   C1B11779   6.538  17.674   6.578 -0.0673  0.1125 -0.1159
  802POPS   C2B11780   6.443  17.470   6.944 -0.2595  0.0616  0.1307
  802POPS   C3B11781   6.484  17.237   7.382  0.2372 -0.2435  0.0928
  802POPS   C4B11782   6.642  17.351   7.776  0.2112 -0.5242 -0.0199
  803POPS   CNO11783   7.829  16.332   5.670 -0.0136  0.0127 -0.0055
  803POPS   PO411784   7.774  15.894   5.713 -0.0464  0.1516 -0.1733
  803POPS   GL111785   7.752  16.074   6.079 -0.0844 -0.5619 -0.2298
  803POPS   GL211786   8.001  16.146   6.214  0.1773  0.0451 -0.1115
  803POPS   C1A11787   7.516  16.333   6.400 -0.1859  0.0818  0.1655
  803POPS   D2A11788   7.261  16.539   6.678  0.0008 -0.1267 -0.1440
  803POPS   C3A11789   7.368  16.631   7.116  0.1896  0.1709 -0.2719
  803POPS   C4A11790   7.330  16.440   7.523  0.2308 -0.3084 -0.0785
  803POPS   C1B11791   7.951  15.991   6.631 -0.1841 -0.0995 -0.2306
  803POPS   C2B11792   7.876  15.799   6.963 -0.0102  0.1022  0.0120
  803POPS   C3B11793   7.812  15.499   7.272  0.0664 -0.0501  0.1984
  803POPS   C4B11794   7.680  15.505   7.682 -0.1426  0.2972  0.3795
  804POPS   CNO11795  18.039   8.857   5.995  0.0014 -0.1431  0.2583
  804POPS   PO411796  17.767   8.616   5.830  0.2398  0.1277 -0.1328
  804POPS   GL111797  17.781   8.532   6.214  0.1585  0.2061  0.1308
  804POPS   GL211798  18.175   8.567   6.338 -0.1711  0.2725 -0.1916
  804POPS   C1A11799  17.786   8.676   6.600  0.3017  0.3079  0.1100
  804POPS   D2A11800  17.861   8.894   6.967  0.1227  0.0497 -0.0453
  804POPS   C3A11801  17.787   8.679   7.374 -0.4597 -0.0493  0.1855
  804POPS   C4A11802  17.745   8.556   7.728 -0.3745 -0.0490  0.2952
  804POPS   C1B11803  18.311   8.666   6.885  0.0928  0.1649 -0.0956
  804POPS   C2B11804  18.334   8.664   7.306  0.0403 -0.2667 -0.1584
  804POPS   C3B11805  18.278   8.693   7.761 -0.0435 -0.0734  0.0164
  804POPS   C4B11806  18.308   8.539   8.192 -0.2234 -0.3343 -0.0873
  805POPS   CNO11807   5.282   3.619   5.702 -0.1580 -0.1015  0.2179
  805POPS   PO411808   5.388   3.310   6.078  0.1113 -0.0075  0.1180
  805POPS   GL111809   5.434   3.614   6.434 -0.2762  0.0240  0.2184
  805POPS   GL211810   5.177   3.850   6.470  0.0809 -0.0311 -0.2844
  805POPS   C1A11811   5.591   3.863   6.863 -0.1944 -0.2040  0.3974
  805POPS   D2A11812   5.452   4.083   7.204 -0.2297 -0.1338 -0.1628
  805POPS   C3A11813   5.297   3.987   7.657 -0.1473 -0.3485  0.0289
  805POPS   C4A11814   5.558   4.114   8.066 -0.2205 -0.0026  0.0729
  805POPS   C1B11815   5.032   4.057   6.851 -0.0278  0.1355  0.2289
  805POPS   C2B11816   4.930   4.044   7.302 -0.2919  0.3655 -0.4389
  805POPS   C3B11817   4.830   4.186   7.609 -0.1550  0.2817  0.3316
  805POPS   C4B11818   4.471   4.015   7.856 -0.1528 -0.0518  0.0659
  806POPS   CNO11819   7.128   8.425   5.572 -0.0481  0.1581  0.1682
  806POPS   PO411820   7.209   8.819   5.789  0.3575 -0.3429 -0.5049
  806POPS   GL111821   7.357   8.841   6.184 -0.0712 -0.1926 -0.1039
  806POPS   GL211822   7.672   8.988   6.264  0.3153  0.2242 -0.0195
  806POPS   C1A11823   7.178   8.996   6.497 -0.1596  0.0741 -0.0041
  806POPS   D2A11824   6.985   9.120   6.804 -0.0410  0.3789 -0.2567
  806POPS   C3A11825   6.834   9.133   7.211 -0.0501  0.1615 -0.0417
  806POPS   C4A11826   6.854   9.054   7.572  0.0952 -0.0722  0.1945
  806POPS   C1B11827   7.672   8.912   6.641  0.2586 -0.2052 -0.1503
  806POPS   C2B11828   7.751   9.011   7.084  0.0207 -0.1197  0.1743
  806POPS   C3B11829   7.632   9.035   7.529 -0.0030  0.1016 -0.1578
  806POPS   C4B11830   7.610   8.641   7.864 -0.4982 -0.1990 -0.1715
  807POPS   CNO11831  14.596  12.828   5.550 -0.0144 -0.0886  0.1909
  807POPS   PO411832  14.622  12.635   6.057  0.0309  0.0066 -0.1849
  807POPS   GL111833  14.653  12.481   6.418  0.1388 -0.0848 -0.1671
  807POPS   GL211834  14.877  12.284   6.463 -0.1342 -0.0954  0.0502
  807POPS   C1A11835  14.417  12.622   6.788  0.0455 -0.0389  0.0730
  807POPS   D2A11836  14.413  13.077   6.926 -0.0186 -0.1661 -0.2052
  807POPS   C3A11837  14.316  13.203   7.214  0.1257  0.0387 -0.0151
  807POPS   C4A11838  14.309  13.038   7.602 -0.1027  0.0274  0.0371
  807POPS   C1B11839  14.803  12.322   6.946 -0.2576  0.4112 -0.2295
  807POPS   C2B11840  15.009  12.394   7.419  0.0788  0.0832 -0.1186
  807POPS   C3B11841  15.092  12.739   7.650  0.1680  0.2267  0.0218
  807POPS   C4B11842  14.976  13.122   7.669  0.0318  0.1465 -0.0763
  808POPS   CNO11843   8.038  16.987   5.362 -0.0961 -0.1008 -0.1117
  808POPS   PO411844   8.080  16.778   5.740  0.0859  0.2350  0.1405
  808POPS   GL111845   7.915  16.606   6.081 -0.0413 -0.1201  0.0797
  808POPS   GL211846   7.603  16.644   6.035 -0.3214 -0.1102  0.2150
  808POPS   C1A11847   7.966  16.523   6.535  0.1133 -0.0411  0.2971
  808POPS   D2A11848   7.813  16.607   6.841  0.2110  0.1197 -0.1838
  808POPS   C3A11849   7.812  16.786   7.223  0.0534  0.2501 -0.2685
  808POPS   C4A11850   7.913  16.614   7.590 -0.2541 -0.1128  0.0200
  808POPS   C1B11851   7.647  16.876   6.411  0.2457 -0.0090 -0.2010
  808POPS   C2B11852   7.733  17.139   6.784 -0.1412  0.0348  0.1219
  808POPS   C3B11853   7.825  17.578   7.092  0.0176 -0.2020 -0.0101
  808POPS   C4B11854   7.694  17.882   7.265  0.0353  0.0331  0.2831
  809POPS   CNO11855   1.615  17.569   5.662  0.3283 -0.0803 -0.1233
  809POPS   PO411856   1.500  17.330   5.953 -0.0877 -0.1374 -0.0863
  809POPS   GL111857   1.464  17.561   6.315  0.0170  0.0587  0.2740
  809POPS   GL211858   1.754  17.594   6.406  0.0502 -0.0234  0.2481
  809POPS   C1A11859   1.480  17.775   6.771 -0.1121 -0.0244  0.1828
  809POPS   D2A11860   1.460  17.747   7.226  0.2304  0.0830 -0.0612
  809POPS   C3A11861   1.639  17.723   7.634 -0.1321  0.0757  0.0609
  809POPS   C4A11862   1.455  17.764   8.062 -0.0000 -0.0404 -0.1142
  809POPS   C1B11863   2.075  17.622   6.661  0.4080 -0.0942 -0.0344
  809POPS   C2B11864   2.067  17.691   7.057  0.0601  0.2966  0.1989
  809POPS   C3B11865   2.085  17.784   7.488 -0.0197 -0.1988 -0.2038
  809POPS   C4B11866   1.994  17.980   7.827 -0.1703  0.2623 -0.2156
  810POPS   CNO11867  14.044  11.355   5.472  0.1600 -0.1200 -0.1670
  810POPS   PO411868  13.880  11.370   5.848 -0.0418 -0.0846 -0.0504
  810POPS   GL111869  13.621  11.218   6.217  0.1121 -0.1687  0.0868
  810POPS   GL211870  13.427  10.972   6.249 -0.2871 -0.0280 -0.1006
  810POPS   C1A11871  13.389  11.319   6.634 -0.1503  0.0194 -0.2859
  810POPS   D2A11872  13.088  11.289   6.947  0.0024  0.0703 -0.1777
  810POPS   C3A11873  13.161  11.091   7.340  0.1512 -0.0040 -0.0753
  810POPS   C4A11874  13.115  10.970   7.806  0.1068  0.0261  0.1028
  810POPS   C1B11875  13.406  10.793   6.612 -0.2259  0.1477  0.1795
  810POPS   C2B11876  13.477  10.811   7.028  0.0861 -0.3854 -0.1662
  810POPS   C3B11877  13.422  10.643   7.390  0.0246  0.1431  0.0622
  810POPS   C4B11878  13.568  10.356   7.747 -0.2233  0.2073  0.0333
  811YOPS   CNO11879   4.059  11.683   5.890 -0.1121 -0.1024  0.1644
  811YOPS   PO411880   3.926  11.819   6.269 -0.0363 -0.1639  0.2740
  811YOPS   GL111881   4.157  11.921   6.746 -0.0040 -0.0836  0.2142
  811YOPS   GL211882   4.257  11.553   6.654 -0.1088 -0.1834  0.0366
  811YOPS   C1A11883   4.029  12.006   7.198 -0.1787  0.0451 -0.4499
  811YOPS   D2A11884   4.076  12.099   7.605 -0.1281 -0.2403  0.0625
  811YOPS   C3A11885   4.121  12.292   7.941  0.2609 -0.0145 -0.0605
  811YOPS   C4A11886   4.395  12.302   8.208  0.3948  0.2794  0.3879
  811YOPS   C1B11887   4.322  11.608   7.082  0.2080 -0.1446  0.0912
  811YOPS   C2B11888   4.319  11.707   7.495 -0.0386  0.0830 -0.2169
  811YOPS   D3B11889   4.006  11.625   7.877  0.1736 -0.1729  0.0979
  811YOPS   C4B11890   3.706  11.965   7.931 -0.0431  0.3495  0.0441
  812YOPS   CNO11891  18.046   7.047   6.088  0.0386  0.2115 -0.3611
  812YOPS   PO411892  17.953   7.294   5.808  0.0126 -0.1290 -0.2830
  812YOPS   GL111893  17.568   7.178   6.102 -0.2652  0.1253  0.0082
  812YOPS   GL211894  17.534   6.854   6.138 -0.1631 -0.0530  0.3230
  812YOPS   C1A11895  17.251   7.188   6.486  0.1636  0.1397  0.1288
  812YOPS   D2A11896  17.258   7.139   6.869  0.2115 -0.3709  0.0943
  812YOPS   C3A11897  17.007   6.908   7.181  0.2167  0.0148  0.0990
  812YOPS   C4A11898  16.881   7.215   7.442  0.1076  0.0399 -0.0122
  812YOPS   C1B11899  17.624   6.908   6.603  0.2347  0.1268  0.1001
  812YOPS   C2B11900  17.568   6.905   7.071 -0.1445 -0.0239 -0.1010
  812YOPS   D3B11901  17.457   7.158   7.407 -0.0196 -0.0482  0.0146
  812YOPS   C4B11902  17.447   7.025   7.861 -0.0045 -0.1032  0.0174
  813YOPS   CNO11903   3.590  15.148   6.051  0.1245  0.1579 -0.0052
  813YOPS   PO411904   3.977  15.355   6.201 -0.0503 -0.0546 -0.1165
  813YOPS   GL111905   3.775  15.410   6.591 -0.0639  0.2816 -0.2551
  813YOPS   GL211906   3.469  15.143   6.555 -0.2292  0.0740 -0.1511
  813YOPS   C1A11907   3.789  15.302   7.038 -0.0333 -0.0300 -0.0713
  813YOPS   D2A11908   3.692  15.208   7.418 -0.0119 -0.1563 -0.2047
  813YOPS   C3A11909   3.508  15.312   7.756 -0.1137  0.0456 -0.1456
  813YOPS   C4A11910   3.077  15.364   7.851 -0.1464  0.0528  0.1135
  813YOPS   C1B11911   3.282  15.144   6.960 -0.0245 -0.0122  0.1165
  813YOPS   C2B11912   3.221  15.052   7.466 -0.0572 -0.1406 -0.0230
  813YOPS   D3B11913   3.153  14.867   7.825  0.0934  0.1656 -0.1860
  813YOPS   C4B11914   2.803  14.914   7.969 -0.2600  0.0891  0.0389
  814YOPS   CNO11915   2.225   5.966   5.890 -0.0281 -0.1413  0.1543
  814YOPS   PO411916   2.612   6.157   5.755 -0.1895  0.0699  0.0440
  814YOPS   GL111917   2.636   6.190   6.193  0.0555 -0.1074  0.0257
  814YOPS   GL211918   2.449   5.851   6.336 -0.2169 -0.3467  0.1535
  814YOPS   C1A11919   2.773   6.124   6.584  0.0614 -0.1905  0.1750
  814YOPS   D2A11920   2.731   5.802   6.769 -0.0186 -0.0035 -0.2573
  814YOPS   C3A11921   2.671   5.654   7.147  0.1239  0.0587  0.2498
  814YOPS   C4A11922   2.393   5.955   7.449  0.0224 -0.4501  0.0466
  814YOPS   C1B11923   2.237   6.053   6.622 -0.2769 -0.0840  0.1049
  814YOPS   C2B11924   2.139   5.860   7.019  0.1698  0.0736 -0.1904
  814YOPS   D3B11925   1.887   5.806   7.491  0.0686 -0.1905  0.3669
  814YOPS   C4B11926   2.010   5.627   7.822  0.0422 -0.1156  0.2452
  815YOPS   CNO11927  17.381   2.585   6.010  0.0478 -0.0268 -0.1548
  815YOPS   PO411928  16.965   2.358   5.975 -0.0290  0.0857 -0.1101
  815YOPS   GL111929  17.091   2.405   6.405 -0.0317 -0.2731  0.3101
  815YOPS   GL211930  16.966   2.129   6.406  0.1484  0.0620 -0.0434
  815YOPS   C1A11931  17.256   2.343   6.851 -0.0051 -0.0524 -0.1462
  815YOPS   D2A11932  17.346   2.306   7.277 -0.2183  0.0971 -0.0927
  815YOPS   C3A11933  17.493   2.317   7.679 -0.0576 -0.1554  0.0562
  815YOPS   C4A11934  17.624   1.999   8.106  0.3648  0.0632 -0.0211
  815YOPS   C1B11935  16.792   2.207   6.767  0.2703  0.0957  0.0969
  815YOPS   C2B11936  16.830   2.402   7.164 -0.0223  0.0971 -0.0420
  815YOPS   D3B11937  16.679   2.592   7.522  0.0568 -0.0468  0.0590
  815YOPS   C4B11938  17.064   2.666   7.879 -0.1879 -0.2811  0.2334
  816YOPS   CNO11939   1.465   6.794   5.963  0.1306 -0.0486  0.2335
  816YOPS   PO411940   1.914   6.796   6.099  0.1346 -0.1959  0.2164
  816YOPS   GL111941   1.716   6.733   6.455  0.2736  0.0163  0.3316
  816YOPS   GL211942   2.101   6.648   6.597 -0.0951 -0.1288  0.1626
  816YOPS   C1A11943   1.587   6.752   6.853 -0.1068 -0.2058  0.0498
  816YOPS   D2A11944   1.576   6.625   7.253 -0.2953 -0.1273 -0.1212
  816YOPS   C3A11945   1.574   6.289   7.585  0.2081  0.0593  0.0732
  816YOPS   C4A11946   1.253   6.076   7.988  0.2061  0.1730  0.0309
  816YOPS   C1B11947   1.964   6.411   7.004  0.0620 -0.0549 -0.1305
  816YOPS   C2B11948   2.012   6.293   7.353 -0.1144 -0.3707  0.3202
  816YOPS   D3B11949   2.111   6.163   7.805  0.0403  0.1546  0.0895
  816YOPS   C4B11950   2.394   5.978   7.916  0.0605  0.0702  0.1247
  817YOPS   CNO11951   7.914   3.380   5.064  0.0978  0.3143 -0.0389
  817YOPS   PO411952   7.760   3.229   5.403 -0.2489 -0.2349  0.1196
  817YOPS   GL111953   7.690   3.184   5.861  0.2680  0.2578  0.3656
  817YOPS   GL211954   7.663   2.881   5.975 -0.2304  0.2269 -0.0103
  817YOPS   C1A11955   7.772   3.137   6.373 -0.2413 -0.2365  0.3460
  817YOPS   D2A11956   7.608   3.281   6.744  0.2880 -0.1367 -0.1525
  817YOPS   C3A11957   7.505   3.273   7.185 -0.0922 -0.0390 -0.2904
  817YOPS   C4A11958   7.510   2.949   7.557 -0.1239  0.0488  0.2635
  817YOPS   C1B11959   7.549   2.735   6.343  0.1129  0.0468  0.0355
  817YOPS   C2B11960   7.332   2.409   6.689 -0.1995  0.0570 -0.0752
  817YOPS   D3B11961   7.027   2.551   7.029 -0.1690 -0.0956  0.0341
  817YOPS   C4B11962   7.233   2.521   7.384  0.1536  0.2539  0.1643
  818YOPS   CNO11963   4.479   8.602   5.932  0.0995 -0.1058  0.0809
  818YOPS   PO411964   4.773   8.988   6.128  0.1660  0.1165  0.2014
  818YOPS   GL111965   4.635   8.908   6.462  0.4631 -0.0526  0.0306
  818YOPS   GL211966   4.945   8.971   6.598  0.2796 -0.3279  0.0287
  818YOPS   C1A11967   4.499   8.828   6.843  0.2075  0.1085  0.1729
  818YOPS   D2A11968   4.407   8.664   7.171 -0.1986  0.1435 -0.1668
  818YOPS   C3A11969   4.402   8.586   7.628  0.0394 -0.1474 -0.0396
  818YOPS   C4A11970   4.402   8.109   7.751  0.2311  0.0628  0.0962
  818YOPS   C1B11971   4.868   8.880   7.166 -0.2714  0.3947 -0.0556
  818YOPS   C2B11972   4.952   8.656   7.594  0.1260 -0.2601 -0.4150
  818YOPS   D3B11973   4.739   8.396   7.951  0.0476 -0.0788 -0.2411
  818YOPS   C4B11974   4.928   8.112   8.259 -0.1011  0.0163  0.3933
  819YOPS   CNO11975   3.561  12.370   5.699  0.0487  0.2741  0.0571
  819YOPS   PO411976   3.172  12.288   6.019  0.0433 -0.0809  0.1069
  819YOPS   GL111977   3.203  12.494   6.337  0.0625 -0.1610 -0.2750
  819YOPS   GL211978   2.917  12.699   6.379  0.0586 -0.0535 -0.0197
  819YOPS   C1A11979   3.180  12.478   6.731 -0.1580  0.0218  0.0149
  819YOPS   D2A11980   3.070  12.618   7.146 -0.1218  0.1696  0.4121
  819YOPS   C3A11981   2.918  12.585   7.505  0.0644  0.1482  0.1124
  819YOPS   C4A11982   3.282  12.786   7.769 -0.0900 -0.1131 -0.1541
  819YOPS   C1B11983   2.649  12.821   6.797 -0.1143  0.1880  0.0480
  819YOPS   C2B11984   2.516  12.805   7.210  0.0876  0.5099 -0.0147
  819YOPS   D3B11985   2.451  12.720   7.669  0.3582  0.1986  0.0152
  819YOPS   C4B11986   2.420  12.389   8.045 -0.2331  0.0013 -0.2209
  820YOPS   CNO11987   3.897   3.889   5.998  0.0238 -0.1374  0.1869
  820YOPS   PO411988   3.688   4.077   5.811  0.2302 -0.2277  0.0774
  820YOPS   GL111989   3.541   4.229   6.170 -0.0347 -0.3154  0.0812
  820YOPS   GL211990   3.693   4.457   6.390 -0.1946 -0.1684  0.1560
  820YOPS   C1A11991   3.173   4.252   6.432  0.0380 -0.1491  0.3607
  820YOPS   D2A11992   2.988   4.319   6.750 -0.2389  0.0799  0.0627
  820YOPS   C3A11993   2.649   4.336   6.899  0.0697 -0.0728 -0.0663
  820YOPS   C4A11994   2.494   4.389   7.262  0.1434 -0.4422  0.2838
  820YOPS   C1B11995   3.613   4.318   6.795 -0.1372  0.2073 -0.1318
  820YOPS   C2B11996   3.542   4.164   7.072  0.2668  0.0547 -0.1061
  820YOPS   D3B11997   3.691   4.196   7.519  0.0606 -0.1185 -0.0168
  820YOPS   C4B11998   3.299   4.202   7.797  0.2611  0.1395 -0.5291
  821YOPS   CNO11999   5.784  11.800   5.706 -0.1100  0.1140  0.4308
  821YOPS   PO412000   5.913  11.894   6.149 -0.0088  0.0434 -0.0852
  821YOPS   GL112001   5.837  11.898   6.593  0.2026  0.0854  0.2403
  821YOPS   GL212002   6.012  11.756   6.659 -0.1105 -0.0897 -0.0862
  821YOPS   C1A12003   5.886  12.230   6.939  0.1619 -0.1580  0.0975
  821YOPS   D2A12004   5.978  12.355   7.349 -0.1298 -0.1749 -0.0455
  821YOPS   C3A12005   5.780  12.412   7.766  0.0019  0.0936  0.1692
  821YOPS   C4A12006   5.909  12.718   7.996 -0.2651  0.2759  0.0427
  821YOPS   C1B12007   6.280  11.856   6.983  0.2962 -0.2102  0.0531
  821YOPS   C2B12008   6.361  11.944   7.375  0.1070 -0.3801  0.1436
  821YOPS   D3B12009   6.168  12.031   7.765 -0.1543  0.2180  0.1519
  821YOPS   C4B12010   6.365  12.301   8.056  0.1207  0.0417  0.0474
  822YOPS   CNO12011  11.244  12.221   5.731  0.2371 -0.1318  0.1088
  822YOPS   PO412012  11.543  12.051   5.874  0.2059  0.3001  0.1507
  822YOPS   GL112013  11.709  12.090   6.278  0.0106  0.0894  0.3256
  822YOPS   GL212014  11.819  12.350   6.428 -0.0108 -0.0140  0.0473
  822YOPS   C1A12015  11.727  11.850   6.646  0.1776  0.1215  0.1630
  822YOPS   D2A12016  11.773  11.830   7.048 -0.0724  0.0568 -0.4096
  822YOPS   C3A12017  11.625  12.078   7.334  0.1658  0.0105  0.2717
  822YOPS   C4A12018  11.433  11.808   7.687 -0.0149 -0.1455 -0.1801
  822YOPS   C1B12019  11.706  12.444   6.937  0.1170 -0.5909 -0.1394
  822YOPS   C2B12020  11.628  12.568   7.395 -0.3206  0.1449 -0.3976
  822YOPS   D3B12021  11.909  12.677   7.817 -0.2405 -0.1662  0.1102
  822YOPS   C4B12022  11.881  12.885   8.283  0.3495  0.2970  0.2175
  823YOPS   CNO12023   0.455   8.906   6.052 -0.2163 -0.1863  0.2275
  823YOPS   PO412024   0.496   8.413   6.168  0.1130 -0.2760  0.1786
  823YOPS   GL112025   0.535   8.649   6.508 -0.3653  0.2593  0.0235
  823YOPS   GL212026   0.785   8.612   6.771  0.1008 -0.3598 -0.0037
  823YOPS   C1A12027   0.338   9.073   6.649 -0.5236 -0.1033  0.1812
  823YOPS   D2A12028   0.334   9.140   7.076  0.2422 -0.0897  0.1379
  823YOPS   C3A12029   0.117   9.132   7.527 -0.3750  0.1557 -0.0636
  823YOPS   C4A12030   0.280   9.265   7.894  0.0530  0.0707 -0.1166
  823YOPS   C1B12031   0.704   8.547   7.162  0.2104  0.1011 -0.2440
  823YOPS   C2B12032   0.663   8.612   7.542  0.5801 -0.1440  0.2350
  823YOPS   D3B12033   0.669   8.410   7.844 -0.2851 -0.3969  0.0970
  823YOPS   C4B12034   0.984   8.427   8.133  0.1541 -0.0786 -0.3620
  824YOPS   CNO12035  11.364   9.939   6.348 -0.2339  0.2474  0.2107
  824YOPS   PO412036  11.647  10.185   6.100 -0.1570  0.3398 -0.2633
  824YOPS   GL112037  11.745  10.361   6.491  0.0716  0.0392  0.1369
  824YOPS   GL212038  11.906  10.744   6.519  0.0804 -0.3922 -0.0137
  824YOPS   C1A12039  11.802  10.218   6.859 -0.0291  0.2027  0.1177
  824YOPS   D2A12040  12.044  10.331   7.114  0.0131 -0.1794 -0.0166
  824YOPS   C3A12041  12.479  10.363   7.435  0.2675 -0.2312 -0.1601
  824YOPS   C4A12042  12.554  10.132   7.837  0.0593  0.1319 -0.3378
  824YOPS   C1B12043  12.092  10.748   6.884 -0.1938 -0.1636 -0.1384
  824YOPS   C2B12044  12.124  10.784   7.320 -0.1486 -0.2084  0.0798
  824YOPS   D3B12045  12.169  10.600   7.776  0.0905  0.0762  0.0704
  824YOPS   C4B12046  12.064  10.145   7.662 -0.2360  0.0846 -0.0743
  825YOPS   CNO12047   7.882   8.952   5.805  0.0754  0.3354  0.2253
  825YOPS   PO412048   8.063   8.571   5.894  0.0939 -0.0855 -0.1644
  825YOPS   GL112049   8.475   8.549   6.289  0.0302  0.2586  0.1426
  825YOPS   GL212050   8.789   8.691   6.384 -0.0197  0.2060  0.0459
  825YOPS   C1A12051   8.428   8.376   6.671  0.0762  0.2309  0.0959
  825YOPS   D2A12052   8.415   8.347   7.170  0.3434 -0.0604  0.1444
  825YOPS   C3A12053   8.299   8.358   7.569 -0.0688 -0.0793 -0.1913
  825YOPS   C4A12054   8.574   8.096   7.846  0.1421 -0.0157  0.1622
  825YOPS   C1B12055   8.851   8.679   6.752 -0.0061 -0.2453  0.0516
  825YOPS   C2B12056   8.904   8.582   7.205  0.0576 -0.0347  0.0802
  825YOPS   D3B12057   8.733   8.776   7.484  0.0750  0.0460 -0.1734
  825YOPS   C4B12058   8.614   8.693   7.931  0.2761 -0.1832 -0.2022
  826YOPS   CNO12059   3.055  12.223   5.556 -0.0018  0.1369 -0.0679
  826YOPS   PO412060   2.579  12.019   5.687 -0.1559  0.2245  0.0003
  826YOPS   GL112061   2.658  12.008   6.149 -0.1943  0.0121 -0.2045
  826YOPS   GL212062   2.801  12.215   6.400  0.4745  0.2934 -0.1213
  826YOPS   C1A12063   2.336  12.095   6.512 -0.0385 -0.0342  0.1429
  826YOPS   D2A12064   2.052  11.906   6.919 -0.1557  0.0985  0.0154
  826YOPS   C3A12065   1.974  11.806   7.410  0.0918 -0.2047  0.3287
  826YOPS   C4A12066   1.948  11.453   7.542  0.0628 -0.3320 -0.0040
  826YOPS   C1B12067   2.721  12.281   6.765 -0.3411  0.0488  0.0315
  826YOPS   C2B12068   2.619  12.322   7.198 -0.1421 -0.0583 -0.0325
  826YOPS   D3B12069   2.556  12.215   7.603  0.0008 -0.1017  0.1245
  826YOPS   C4B12070   2.185  11.968   7.869 -0.2036 -0.2000  0.4008
  827YOPS   CNO12071  10.570   6.240   5.688 -0.0184 -0.3078 -0.0576
  827YOPS   PO412072  10.230   6.467   5.872  0.2861 -0.1276 -0.1874
  827YOPS   GL112073  10.312   6.614   6.208  0.0375  0.0622  0.0244
  827YOPS   GL212074  10.614   6.712   6.482 -0.1998  0.0878 -0.2247
  827YOPS   C1A12075  10.108   6.615   6.574 -0.1466 -0.0390 -0.0962
  827YOPS   D2A12076   9.936   6.700   7.033  0.0231  0.2657  0.1385
  827YOPS   C3A12077   9.656   6.678   7.391  0.0633 -0.0304  0.1936
  827YOPS   C4A12078   9.734   6.494   7.785 -0.0430 -0.2270  0.3043
  827YOPS   C1B12079  10.836   6.568   6.836 -0.1454 -0.1336 -0.0309
  827YOPS   C2B12080  10.975   6.745   7.145 -0.1677  0.1277 -0.1912
  827YOPS   D3B12081  10.824   6.955   7.454 -0.1409  0.3133 -0.3905
  827YOPS   C4B12082  10.911   6.989   7.892 -0.1230  0.0640 -0.6117
  828YOPS   CNO12083   4.075   5.402   5.884 -0.1707  0.1177  0.0911
  828YOPS   PO412084   4.312   5.649   6.112 -0.0253 -0.0233  0.0100
  828YOPS   GL112085   4.225   5.691   6.522  0.4563  0.0088  0.3333
  828YOPS   GL212086   4.555   5.631   6.668  0.0865  0.1892 -0.2545
  828YOPS   C1A12087   4.054   5.649   6.988  0.1703 -0.2498  0.4902
  828YOPS   D2A12088   3.712   5.688   7.158 -0.0441 -0.4402 -0.0317
  828YOPS   C3A12089   3.421   5.951   7.443  0.1410 -0.2772  0.0644
  828YOPS   C4A12090   3.238   5.997   7.903  0.1299 -0.0246 -0.2040
  828YOPS   C1B12091   4.635   5.361   6.903  0.0647 -0.0562  0.2138
  828YOPS   C2B12092   4.624   5.161   7.304 -0.0430  0.1847 -0.1662
  828YOPS   D3B12093   4.389   4.901   7.579 -0.0519  0.1899 -0.3564
  828YOPS   C4B12094   3.981   4.796   7.388  0.1135  0.0584 -0.1537
  829YOPS   CNO12095  17.370   2.222   5.683  0.1932  0.0227  0.1356
  829YOPS   PO412096  17.801   2.397   5.665  0.1559 -0.0552 -0.1515
  829YOPS   GL112097  17.774   2.252   6.021  0.0698 -0.3419  0.0878
  829YOPS   GL212098  17.508   2.093   6.261  0.0109  0.0539 -0.1401
  829YOPS   C1A12099  17.673   2.582   6.379 -0.1394 -0.0281  0.0329
  829YOPS   D2A12100  17.686   2.552   6.950  0.0796  0.3544  0.0609
  829YOPS   C3A12101  17.772   2.581   7.325 -0.2414  0.2881  0.0018
  829YOPS   C4A12102  18.076   2.348   7.445 -0.1761  0.1757 -0.0277
  829YOPS   C1B12103  17.724   2.111   6.696 -0.0047  0.1018 -0.3487
  829YOPS   C2B12104  17.813   2.109   7.079 -0.2139 -0.2480 -0.0184
  829YOPS   D3B12105  17.670   1.949   7.446 -0.3284  0.1787  0.1727
  829YOPS   C4B12106  17.961   1.935   7.702 -0.4732 -0.2451 -0.1958
  830YOPS   CNO12107   3.221   5.423   5.634  0.2291  0.0443 -0.0779
  830YOPS   PO412108   3.620   5.489   5.865  0.0972 -0.4850  0.0637
  830YOPS   GL112109   3.305   5.416   6.166  0.1724  0.1089 -0.0660
  830YOPS   GL212110   2.972   5.231   6.144 -0.3014  0.1668 -0.3307
  830YOPS   C1A12111   3.128   5.157   6.578 -0.1127  0.2967  0.1918
  830YOPS   D2A12112   2.933   5.235   6.989 -0.0120 -0.0902 -0.0186
  830YOPS   C3A12113   2.797   5.204   7.466  0.3298  0.1008 -0.3005
  830YOPS   C4A12114   3.160   5.011   7.711  0.0139 -0.0113 -0.1823
  830YOPS   C1B12115   2.690   5.419   6.450  0.0284 -0.3669  0.0637
  830YOPS   C2B12116   2.293   5.543   6.653  0.0098 -0.1901 -0.2238
  830YOPS   D3B12117   1.838   5.496   6.709 -0.1232  0.0323  0.0928
  830YOPS   C4B12118   1.659   5.547   7.042 -0.0301  0.0259 -0.2860
  831YOPS   CNO12119   3.502   9.081   5.855  0.1539  0.0237 -0.0977
  831YOPS   PO412120   3.466   8.654   6.002  0.0555  0.0443 -0.2368
  831YOPS   GL112121   3.593   8.850   6.321  0.0334  0.0639 -0.1528
  831YOPS   GL212122   3.891   8.933   6.333  0.0980 -0.1027  0.3085
  831YOPS   C1A12123   3.411   8.797   6.777 -0.0355 -0.2834  0.2161
  831YOPS   D2A12124   3.390   8.694   7.124  0.0506 -0.1132  0.0506
  831YOPS   C3A12125   3.478   8.448   7.511  0.1977 -0.1211  0.1087
  831YOPS   C4A12126   3.486   8.591   7.962  0.2573  0.2461  0.1505
  831YOPS   C1B12127   3.911   8.877   6.748  0.0436  0.1578  0.2131
  831YOPS   C2B12128   3.706   9.101   7.131  0.0390  0.1994 -0.0494
  831YOPS   D3B12129   3.570   8.987   7.492  0.1185 -0.1251 -0.2009
  831YOPS   C4B12130   3.762   9.000   7.858  0.1410 -0.1472  0.0048
  832YOPS   CNO12131   2.560   5.153   5.842  0.0585  0.0414  0.0323
  832YOPS   PO412132   2.130   5.006   5.780  0.2749  0.2641  0.0600
  832YOPS   GL112133   2.184   5.207   6.169  0.2065  0.0056 -0.0603
  832YOPS   GL212134   2.218   5.512   6.104  0.1090 -0.0463 -0.0349
  832YOPS   C1A12135   2.156   5.072   6.614 -0.0630  0.1243 -0.2028
  832YOPS   D2A12136   1.957   5.127   7.106 -0.0313 -0.1388  0.1561
  832YOPS   C3A12137   1.719   5.311   7.487  0.1771  0.1167  0.1863
  832YOPS   C4A12138   1.316   5.305   7.322  0.1117 -0.0413  0.0251
  832YOPS   C1B12139   1.950   5.816   6.266  0.0098 -0.0602 -0.0245
  832YOPS   C2B12140   1.631   5.750   6.385 -0.0826  0.0039 -0.0156
  832YOPS   D3B12141   1.251   5.768   6.561 -0.0954 -0.0163  0.3213
  832YOPS   C4B12142   1.157   5.592   6.889 -0.2575 -0.2593  0.3353
  833YOPS   CNO12143  16.740  13.258   6.075  0.1840  0.2267  0.0953
  833YOPS   PO412144  16.459  12.913   6.196 -0.1430 -0.1376  0.0812
  833YOPS   GL112145  16.691  12.930   6.541  0.1713  0.5317  0.1111
  833YOPS   GL212146  16.719  13.343   6.606 -0.1506  0.1662  0.2132
  833YOPS   C1A12147  16.886  12.891   6.913 -0.0009 -0.1452 -0.1309
  833YOPS   D2A12148  16.849  13.116   7.330 -0.1372 -0.0192  0.1875
  833YOPS   C3A12149  16.974  13.239   7.749 -0.0307  0.3594  0.3158
  833YOPS   C4A12150  16.952  13.521   7.971  0.2960  0.2808 -0.1277
  833YOPS   C1B12151  16.555  13.450   7.058  0.1234  0.0062 -0.1591
  833YOPS   C2B12152  16.619  13.497   7.492  0.2238 -0.1318  0.3111
  833YOPS   D3B12153  16.466  13.642   7.923 -0.3284  0.0326  0.0108
  833YOPS   C4B12154  16.706  13.835   8.256  0.1160 -0.3721  0.4226
  834YOPS   CNO12155   6.945  11.286   6.317 -0.1942  0.1880 -0.2700
  834YOPS   PO412156   6.668  11.254   6.126  0.2294 -0.0096  0.0275
  834YOPS   GL112157   6.463  11.495   6.497 -0.0516  0.1554  0.1668
  834YOPS   GL212158   6.626  11.632   6.638 -0.1866  0.2639 -0.2799
  834YOPS   C1A12159   6.266  11.367   6.900 -0.2975  0.0374  0.0750
  834YOPS   D2A12160   6.224  11.476   7.306 -0.1976  0.0509 -0.0446
  834YOPS   C3A12161   6.256  11.549   7.691  0.0723 -0.1499  0.2059
  834YOPS   C4A12162   6.277  11.302   8.106  0.2356 -0.5172 -0.3497
  834YOPS   C1B12163   7.164  11.485   6.724 -0.0479 -0.2133 -0.0175
  834YOPS   C2B12164   7.325  11.140   6.652  0.0440  0.0869  0.0887
  834YOPS   D3B12165   7.586  10.833   6.878 -0.0207 -0.0028  0.2237
  834YOPS   C4B12166   7.473  10.556   7.128  0.1560 -0.1320 -0.2020
  835YOPS   CNO12167  11.796   4.029   5.684 -0.1154  0.3022  0.0387
  835YOPS   PO412168  11.681   4.450   5.519  0.1062  0.1616 -0.1734
  835YOPS   GL112169  11.735   4.450   5.954 -0.0187  0.2521  0.0824
  835YOPS   GL212170  11.600   4.316   6.185  0.1509 -0.3471  0.0330
  835YOPS   C1A12171  12.059   4.148   6.205  0.1452  0.5710  0.0511
  835YOPS   D2A12172  12.146   4.110   6.580 -0.3409  0.1391  0.1939
  835YOPS   C3A12173  12.240   4.020   7.042  0.3675  0.1585  0.0678
  835YOPS   C4A12174  12.474   4.199   7.290 -0.3108 -0.2220  0.3528
  835YOPS   C1B12175  11.703   4.420   6.478  0.0812  0.2273  0.1661
  835YOPS   C2B12176  11.577   4.442   6.867  0.2088  0.0637  0.1512
  835YOPS   D3B12177  11.613   4.488   7.260  0.0385 -0.0071  0.1515
  835YOPS   C4B12178  11.894   4.105   7.401 -0.2381 -0.1693  0.2444
  836YOPS   CNO12179   7.390   6.279   6.028 -0.2559 -0.1630  0.0538
  836YOPS   PO412180   7.750   6.492   5.900 -0.1664 -0.0924  0.2393
  836YOPS   GL112181   7.758   6.483   6.355 -0.0059  0.1120  0.0572
  836YOPS   GL212182   7.931   6.080   6.392  0.0205  0.3479 -0.3435
  836YOPS   C1A12183   8.069   6.430   6.759  0.3398 -0.0538 -0.2101
  836YOPS   D2A12184   8.194   6.435   7.228  0.2794  0.1282  0.1316
  836YOPS   C3A12185   8.212   6.432   7.718 -0.1059 -0.2161  0.1356
  836YOPS   C4A12186   7.877   6.375   8.014  0.0491  0.0676  0.0629
  836YOPS   C1B12187   7.927   5.781   6.687  0.1473  0.0396  0.0893
  836YOPS   C2B12188   7.801   5.533   7.119  0.1739 -0.2778  0.2430
  836YOPS   D3B12189   7.650   5.123   7.269  0.3730  0.1081  0.0641
  836YOPS   C4B12190   7.618   5.043   7.740 -0.1369  0.0212 -0.0287
  837YOPS   CNO12191   8.318   3.470   5.383  0.3234  0.0880 -0.3067
  837YOPS   PO412192   8.090   3.824   5.322  0.2452  0.2204  0.1517
  837YOPS   GL112193   7.937   3.589   5.725 -0.1873  0.3446  0.2577
  837YOPS   GL212194   8.277   3.612   5.891  0.1559 -0.0496 -0.1087
  837YOPS   C1A12195   7.780   3.547   6.138  0.1519  0.2646 -0.1515
  837YOPS   D2A12196   7.788   3.708   6.572 -0.2707  0.1149 -0.0138
  837YOPS   C3A12197   7.440   3.786   6.886  0.0271  0.1059 -0.1590
  837YOPS   C4A12198   7.470   3.852   7.258 -0.0005  0.0130  0.2803
  837YOPS   C1B12199   8.262   3.344   6.277 -0.0122 -0.0863 -0.1447
  837YOPS   C2B12200   8.143   3.347   6.664 -0.2612  0.0432  0.1226
  837YOPS   D3B12201   8.124   3.370   7.091  0.0636  0.0464  0.0173
  837YOPS   C4B12202   7.882   3.597   7.270 -0.0641  0.0796 -0.0437
  838YOPS   CNO12203   2.939   4.839   5.807 -0.1276 -0.1841  0.1037
  838YOPS   PO412204   3.301   4.959   5.859  0.0696 -0.0035 -0.1626
  838YOPS   GL112205   3.291   4.771   6.280  0.1114 -0.1670 -0.0022
  838YOPS   GL212206   2.932   4.695   6.389 -0.2818  0.4346  0.1006
  838YOPS   C1A12207   3.343   4.743   6.706  0.2249 -0.2350  0.0053
  838YOPS   D2A12208   3.134   4.758   6.945 -0.2131  0.1583 -0.0399
  838YOPS   C3A12209   2.965   4.788   7.291  0.0370 -0.0910  0.1889
  838YOPS   C4A12210   2.543   4.857   7.330 -0.0060  0.2127 -0.0997
  838YOPS   C1B12211   2.680   4.845   6.729 -0.0182 -0.1607  0.1589
  838YOPS   C2B12212   2.444   5.232   7.034  0.1155 -0.1063  0.0915
  838YOPS   D3B12213   2.280   5.443   7.423 -0.1332 -0.0154  0.3919
  838YOPS   C4B12214   2.582   5.570   7.756 -0.1112 -0.1009 -0.2359
  839YOPS   CNO12215  10.345   9.415   6.142  0.1092 -0.0879  0.0599
  839YOPS   PO412216  10.766   9.303   5.989  0.1664  0.2021 -0.2290
  839YOPS   GL112217  10.818   9.197   6.420  0.0200  0.2674  0.0015
  839YOPS   GL212218  10.613   9.198   6.596  0.2914 -0.0736 -0.0414
  839YOPS   C1A12219  11.032   8.892   6.737 -0.1371 -0.2566  0.1729
  839YOPS   D2A12220  11.192   8.811   7.168 -0.0627 -0.1197 -0.0364
  839YOPS   C3A12221  11.277   8.595   7.368 -0.0476 -0.0054  0.1077
  839YOPS   C4A12222  11.686   8.481   7.549  0.0049 -0.1428  0.0349
  839YOPS   C1B12223  10.897   9.334   6.929  0.0279  0.2557  0.0636
  839YOPS   C2B12224  10.954   9.228   7.336 -0.1096  0.2272  0.0433
  839YOPS   D3B12225  11.062   9.014   7.681 -0.0050  0.0468 -0.1459
  839YOPS   C4B12226  11.019   9.054   8.138 -0.2278 -0.0846 -0.0651
  840YOPS   CNO12227   5.590   0.773   5.676  0.2818  0.2303  0.0121
  840YOPS   PO412228   5.794   0.772   6.055 -0.0961  0.0984 -0.0253
  840YOPS   GL112229   5.744   0.573   6.404  0.0744  0.2643 -0.1905
  840YOPS   GL212230   5.669   0.214   6.404 -0.0876 -0.2806 -0.0547
  840YOPS   C1A12231   5.692   0.785   6.848  0.2569  0.3814  0.2462
  840YOPS   D2A12232   5.796   0.686   7.335  0.2310 -0.0696  0.1639
  840YOPS   C3A12233   5.890   0.365   7.587  0.2346 -0.0533 -0.1293
  840YOPS   C4A12234   5.681   0.212   7.890 -0.3456 -0.0722  0.1167
  840YOPS   C1B12235   5.622   0.320   6.819  0.1002 -0.1703 -0.2325
  840YOPS   C2B12236   5.623   0.187   7.193 -0.2280  0.0039 -0.0550
  840YOPS   D3B12237   5.764  -0.177   7.532 -0.0314  0.0449  0.0953
  840YOPS   C4B12238   5.757  -0.301   7.967 -0.1065  0.3085  0.1533
  841POPE   NH312239  13.207   3.953   5.922 -0.3674  0.1001  0.0304
  841POPE   PO412240  13.254   3.520   5.856 -0.1170 -0.0755 -0.0820
  841POPE   GL112241  13.125   3.489   6.186 -0.2726 -0.0206 -0.2453
  841POPE   GL212242  12.975   3.776   6.358 -0.0013 -0.1584 -0.1459
  841POPE   C1A12243  13.141   3.210   6.479 -0.2434  0.5693 -0.1899
  841POPE   D2A12244  13.241   3.128   6.916  0.0461 -0.3275 -0.3163
  841POPE   C3A12245  13.263   2.919   7.302  0.1364 -0.1040 -0.1275
  841POPE   C4A12246  13.537   2.680   7.628 -0.0373 -0.2935  0.1568
  841POPE   C1B12247  13.137   3.635   6.741 -0.0325 -0.1753  0.1460
  841POPE   C2B12248  13.147   3.543   7.183 -0.1288  0.1632  0.1476
  841POPE   C3B12249  13.341   3.302   7.609  0.0066 -0.1823 -0.2166
  841POPE   C4B12250  13.465   3.012   8.010 -0.4106  0.0579  0.1788
  842POPE   NH312251  16.750  11.763   6.153  0.0664 -0.0237 -0.1893
  842POPE   PO412252  16.242  11.903   6.236  0.1147  0.0748  0.1505
  842POPE   GL112253  16.471  11.689   6.599  0.0412 -0.1928 -0.0986
  842POPE   GL212254  16.725  11.897   6.636 -0.0366 -0.0404 -0.4553
  842POPE   C1A12255  16.505  11.614   7.066  0.1599 -0.0014  0.0387
  842POPE   D2A12256  16.456  11.477   7.440  0.2111 -0.3250 -0.2106
  842POPE   C3A12257  16.787  11.295   7.770  0.0028  0.1954  0.2247
  842POPE   C4A12258  16.844  11.139   8.134 -0.1040 -0.1197  0.1154
  842POPE   C1B12259  16.992  11.510   6.770 -0.1129 -0.0547 -0.0017
  842POPE   C2B12260  16.957  11.240   7.207  0.0055  0.0023  0.0525
  842POPE   C3B12261  17.096  10.987   7.461  0.4616  0.0143 -0.0017
  842POPE   C4B12262  17.596  10.855   7.444 -0.3095 -0.0874  0.0115
  843POPE   NH312263  15.047  13.045   6.010  0.1123  0.2332 -0.1385
  843POPE   PO412264  14.716  13.406   6.024 -0.0785 -0.0865  0.0835
  843POPE   GL112265  14.453  13.125   6.214  0.0022  0.0757  0.2697
  843POPE   GL212266  14.604  12.971   6.474 -0.1539  0.0110 -0.1629
  843POPE   C1A12267  14.126  12.942   6.512  0.0100 -0.0546  0.1295
  843POPE   D2A12268  13.914  12.572   6.564 -0.1172  0.1364  0.3098
  843POPE   C3A12269  13.979  12.375   6.914 -0.0530  0.0909  0.1779
  843POPE   C4A12270  13.785  12.214   7.314  0.3023  0.0729 -0.1188
  843POPE   C1B12271  14.475  13.426   6.596 -0.0144 -0.1006 -0.1389
  843POPE   C2B12272  14.201  13.559   6.909  0.0888  0.0029 -0.0254
  843POPE   C3B12273  14.011  13.568   7.432  0.1031  0.0456  0.0594
  843POPE   C4B12274  13.827  13.123   7.457  0.2347  0.2648 -0.2495
  844POPE   NH312275  17.772   5.691   5.692  0.1657  0.1395 -0.1390
  844POPE   PO412276  17.313   5.411   5.818  0.1196  0.1678  0.1719
  844POPE   GL112277  17.104   5.101   6.077 -0.0379  0.1194  0.3064
  844POPE   GL212278  16.874   5.197   6.273  0.0409 -0.2258 -0.0654
  844POPE   C1A12279  17.280   4.900   6.482 -0.0356 -0.0030  0.0385
  844POPE   D2A12280  17.455   4.848   6.876 -0.0033 -0.0796  0.2037
  844POPE   C3A12281  17.366   5.049   7.260 -0.2457 -0.0645 -0.0125
  844POPE   C4A12282  17.376   5.114   7.751  0.0242 -0.0686 -0.0536
  844POPE   C1B12283  16.910   5.150   6.732 -0.0369  0.0135  0.0285
  844POPE   C2B12284  16.902   5.028   7.258 -0.0569  0.1131  0.0768
  844POPE   C3B12285  17.030   5.350   7.576 -0.1665 -0.0824 -0.1601
  844POPE   C4B12286  16.808   5.740   7.717  0.0972 -0.0224 -0.0625
  845POPE   NH312287  10.501  16.826   5.961 -0.0637 -0.0038 -0.0292
  845POPE   PO412288  10.602  17.195   5.819  0.4001 -0.0319 -0.2903
  845POPE   GL112289  10.724  17.179   6.242 -0.1345  0.2791 -0.0086
  845POPE   GL212290  10.944  17.284   6.343 -0.0129 -0.1981  0.1505
  845POPE   C1A12291  10.745  16.976   6.642  0.0816  0.0734  0.0529
  845POPE   D2A12292  10.771  16.944   7.104  0.1229  0.3353 -0.3983
  845POPE   C3A12293  10.421  16.691   7.338 -0.1490  0.1685 -0.3224
  845POPE   C4A12294  10.253  16.764   7.668  0.1002  0.0644 -0.0077
  845POPE   C1B12295  10.956  17.407   6.779 -0.0573 -0.0878 -0.2103
  845POPE   C2B12296  10.953  17.608   7.157  0.2290 -0.1141  0.1362
  845POPE   C3B12297  11.034  17.692   7.638 -0.1680 -0.1567 -0.0590
  845POPE   C4B12298  11.050  17.737   8.065 -0.0167  0.0856 -0.2950
  846POPE   NH312299  14.869   1.535   5.177 -0.0304  0.4375  0.0091
  846POPE   PO412300  14.642   1.311   5.505 -0.0581  0.0291 -0.4539
  846POPE   GL112301  14.732   1.324   6.011 -0.0220  0.1789  0.0851
  846POPE   GL212302  14.507   1.466   6.253 -0.1670 -0.0643  0.0974
  846POPE   C1A12303  15.018   1.249   6.426  0.3552  0.2416 -0.2119
  846POPE   D2A12304  15.486   1.257   6.490  0.4655  0.0543 -0.1803
  846POPE   C3A12305  15.743   0.763   6.616  0.3033  0.0566  0.4242
  846POPE   C4A12306  16.059   0.656   6.939 -0.0496 -0.1478 -0.1977
  846POPE   C1B12307  14.659   1.488   6.672  0.3623 -0.0237  0.1453
  846POPE   C2B12308  14.857   1.665   7.067 -0.2143  0.2723 -0.0672
  846POPE   C3B12309  15.162   1.589   7.369 -0.1499 -0.1259 -0.0981
  846POPE   C4B12310  15.430   1.387   7.605 -0.2117  0.2902  0.0728
  847POPE   NH312311  10.514  12.216   6.216 -0.2343  0.0267  0.1388
  847POPE   PO412312  10.776  11.896   6.230  0.0947  0.0127  0.1446
  847POPE   GL112313  10.776  12.183   6.612 -0.1480 -0.1230 -0.1195
  847POPE   GL212314  10.803  12.540   6.563  0.1556 -0.0846 -0.2038
  847POPE   C1A12315  10.748  12.170   7.060  0.1164 -0.2180 -0.2044
  847POPE   D2A12316  10.719  12.133   7.542 -0.0381  0.0959  0.2378
  847POPE   C3A12317  10.980  11.884   7.788  0.1220 -0.2362  0.0413
  847POPE   C4A12318  10.880  11.812   8.308  0.1195 -0.1967  0.1250
  847POPE   C1B12319  10.894  12.893   6.816 -0.1252 -0.0144 -0.1196
  847POPE   C2B12320  10.660  13.147   7.129 -0.0228 -0.1744  0.1523
  847POPE   C3B12321  10.587  13.135   7.624 -0.2475  0.0883  0.1514
  847POPE   C4B12322  10.237  13.001   7.764  0.0235 -0.1137 -0.3225
  848POPE   NH312323  10.854   5.369   5.749  0.2612  0.2723 -0.0627
  848POPE   PO412324  10.398   5.469   5.735 -0.2183  0.0025  0.0212
  848POPE   GL112325  10.303   5.569   6.144 -0.5006  0.0372 -0.3249
  848POPE   GL212326  10.123   5.236   6.158 -0.0769 -0.1717 -0.2198
  848POPE   C1A12327  10.478   5.605   6.553 -0.2321  0.0882 -0.0866
  848POPE   D2A12328  10.619   5.690   7.007 -0.0446  0.0525  0.1224
  848POPE   C3A12329  10.571   5.428   7.350 -0.0070 -0.0789 -0.1046
  848POPE   C4A12330  10.837   5.590   7.677 -0.1623 -0.0114  0.0290
  848POPE   C1B12331  10.021   5.458   6.560 -0.2234 -0.0458 -0.1942
  848POPE   C2B12332  10.126   5.502   6.956 -0.0500 -0.3414  0.1105
  848POPE   C3B12333  10.153   5.782   7.267  0.0693 -0.0958 -0.4943
  848POPE   C4B12334  10.157   6.155   7.560 -0.0099  0.1295 -0.2058
  849POPE   NH312335  10.463  14.298   6.114 -0.0657  0.1530 -0.2180
  849POPE   PO412336  10.098  14.618   6.226 -0.1381  0.3237 -0.0709
  849POPE   GL112337  10.395  14.671   6.512  0.2608 -0.3157 -0.1425
  849POPE   GL212338  10.416  14.992   6.710 -0.2265  0.0008  0.0678
  849POPE   C1A12339  10.347  14.551   6.973 -0.4776 -0.2499 -0.1883
  849POPE   D2A12340  10.414  14.523   7.473  0.2174 -0.0279  0.1816
  849POPE   C3A12341  10.474  14.490   7.862 -0.0718  0.2172 -0.0455
  849POPE   C4A12342  10.458  14.725   8.163 -0.0099 -0.0656  0.0141
  849POPE   C1B12343  10.548  14.983   7.227  0.0369  0.0964 -0.3034
  849POPE   C2B12344  10.554  15.153   7.630 -0.3247 -0.0189  0.0646
  849POPE   C3B12345  10.404  15.213   8.065 -0.0334 -0.0589  0.2081
  849POPE   C4B12346  10.326  15.333   8.530 -0.0300 -0.2102  0.1724
  850POPE   NH312347  17.801   6.794   5.731  0.1334  0.2236 -0.2592
  850POPE   PO412348  17.363   7.079   5.644 -0.1494 -0.0099 -0.3253
  850POPE   GL112349  17.141   7.365   5.997  0.1971 -0.0338  0.1208
  850POPE   GL212350  17.226   7.581   6.139  0.0429  0.3276  0.2450
  850POPE   C1A12351  16.817   7.408   6.322  0.1609  0.0912  0.1081
  850POPE   D2A12352  16.613   7.225   6.669  0.0577  0.2905 -0.0611
  850POPE   C3A12353  16.852   7.410   6.951  0.1756 -0.0413 -0.2318
  850POPE   C4A12354  17.193   7.545   7.160  0.0405  0.1589 -0.4001
  850POPE   C1B12355  17.223   7.648   6.607 -0.1000  0.0154 -0.3419
  850POPE   C2B12356  17.128   7.926   6.834  0.2923 -0.1729 -0.2654
  850POPE   C3B12357  17.063   8.258   7.106  0.1782 -0.0202 -0.0474
  850POPE   C4B12358  16.974   8.313   7.524 -0.0848  0.0730 -0.5208
  851POPE   NH312359  17.739   1.783   5.836 -0.0886 -0.1762 -0.0400
  851POPE   PO412360  18.078   1.936   5.769  0.1050 -0.1557 -0.1888
  851POPE   GL112361  18.386   1.945   6.052  0.1260  0.1909 -0.0784
  851POPE   GL212362  18.138   1.962   6.330 -0.2977  0.5043 -0.0908
  851POPE   C1A12363  18.734   1.755   6.375  0.2935  0.2931 -0.2054
  851POPE   D2A12364  19.024   1.961   6.705 -0.0049 -0.2434  0.0135
  851POPE   C3A12365  18.849   1.818   7.053  0.0671  0.0281 -0.1290
  851POPE   C4A12366  18.901   1.840   7.496  0.0774 -0.2177 -0.0315
  851POPE   C1B12367  18.164   1.954   6.744 -0.2399 -0.0597  0.0442
  851POPE   C2B12368  18.239   1.900   7.211  0.0853  0.1971 -0.2008
  851POPE   C3B12369  18.465   2.063   7.564  0.1461 -0.0318 -0.1016
  851POPE   C4B12370  18.583   2.152   7.976  0.3443  0.0981  0.0908
  852POPE   NH312371   5.924  15.430   5.799  0.1145 -0.3322  0.0447
  852POPE   PO412372   6.103  15.074   5.918 -0.2002  0.1067 -0.2007
  852POPE   GL112373   6.308  15.317   6.227  0.0952  0.1141  0.3189
  852POPE   GL212374   5.999  15.312   6.344  0.0585 -0.3592  0.1989
  852POPE   C1A12375   6.390  15.617   6.410 -0.2926 -0.1224  0.0284
  852POPE   D2A12376   6.342  15.659   6.830  0.2183  0.0299 -0.0452
  852POPE   C3A12377   6.628  15.954   6.997 -0.0347  0.3989 -0.0619
  852POPE   C4A12378   6.570  16.255   7.197 -0.0521 -0.0868  0.0103
  852POPE   C1B12379   5.854  15.181   6.719 -0.0654  0.1031  0.1996
  852POPE   C2B12380   5.801  15.051   7.029  0.2007 -0.0200  0.0270
  852POPE   C3B12381   5.728  15.116   7.460 -0.2013 -0.0844 -0.1859
  852POPE   C4B12382   5.977  15.211   7.807 -0.0717 -0.1053 -0.0539
  853POPE   NH312383   9.896  16.686   5.972  0.1293  0.1263 -0.3211
  853POPE   PO412384   9.784  16.295   6.069  0.0309  0.0165 -0.2841
  853POPE   GL112385   9.764  16.068   6.512 -0.0567  0.0012 -0.1765
  853POPE   GL212386   9.960  16.257   6.529 -0.1233  0.3540  0.1496
  853POPE   C1A12387   9.779  15.963   6.938  0.0313  0.1251 -0.2587
  853POPE   D2A12388   9.722  15.949   7.410 -0.0631 -0.1427 -0.0566
  853POPE   C3A12389   9.920  15.777   7.719  0.0359  0.1389  0.0030
  853POPE   C4A12390  10.113  15.603   8.139  0.0291 -0.0125  0.2995
  853POPE   C1B12391   9.818  16.657   6.657  0.0456  0.0483  0.1634
  853POPE   C2B12392   9.849  16.857   6.929 -0.0029  0.5774 -0.2187
  853POPE   C3B12393   9.620  16.840   7.317  0.0328 -0.0453  0.1617
  853POPE   C4B12394   9.729  16.867   7.710  0.1826  0.0055  0.0472
  854POPE   NH312395  15.195  12.526   6.158 -0.3000  0.0954 -0.0800
  854POPE   PO412396  15.501  12.868   6.032 -0.1086 -0.1563  0.0527
  854POPE   GL112397  15.377  12.968   6.398  0.0390 -0.1165 -0.2717
  854POPE   GL212398  15.017  12.818   6.543 -0.1778  0.0146  0.1079
  854POPE   C1A12399  15.402  13.020   6.834 -0.2019  0.3800  0.1486
  854POPE   D2A12400  15.247  13.016   7.241 -0.1100  0.1615  0.1707
  854POPE   C3A12401  15.493  13.191   7.586  0.0481  0.0677  0.0112
  854POPE   C4A12402  15.466  13.405   7.967  0.4697 -0.0224  0.0248
  854POPE   C1B12403  14.895  12.829   6.927  0.0568 -0.2718 -0.0448
  854POPE   C2B12404  14.699  12.797   7.340 -0.2024  0.1234 -0.1987
  854POPE   C3B12405  14.639  12.694   7.787 -0.0930  0.0126  0.3698
  854POPE   C4B12406  14.896  12.439   8.100  0.1593  0.1914 -0.0810
  855POPE   NH312407   0.138   4.193   5.854 -0.1376  0.2190 -0.2943
  855POPE   PO412408   0.516   4.275   5.704 -0.2650  0.1034  0.0141
  855POPE   GL112409   0.511   4.531   6.127  0.2043  0.0670 -0.0163
  855POPE   GL212410   0.173   4.511   6.291 -0.1318 -0.0747 -0.0907
  855POPE   C1A12411   0.590   4.640   6.540 -0.1116 -0.0667  0.0509
  855POPE   D2A12412   0.714   4.697   6.982  0.0919  0.0342  0.2059
  855POPE   C3A12413   0.586   4.379   7.180  0.4057  0.0666 -0.1656
  855POPE   C4A12414   0.712   4.322   7.599 -0.3262  0.1832  0.2549
  855POPE   C1B12415   0.360   4.241   6.591  0.3367  0.1937  0.1096
  855POPE   C2B12416   0.393   3.963   6.987 -0.0259 -0.0232 -0.0565
  855POPE   C3B12417   0.576   3.910   7.337  0.0959  0.0585 -0.2149
  855POPE   C4B12418   0.934   3.845   7.666  0.1860 -0.1281  0.0805
  856POPE   NH312419  13.318   1.194   5.868  0.1590  0.5170  0.0401
  856POPE   PO412420  13.746   1.285   5.657 -0.0778 -0.0077 -0.0503
  856POPE   GL112421  13.741   1.306   6.039  0.0312 -0.1712  0.0874
  856POPE   GL212422  13.530   1.259   6.333 -0.0023  0.2578  0.0961
  856POPE   C1A12423  14.070   1.314   6.400  0.2217 -0.1304 -0.1269
  856POPE   D2A12424  14.177   1.231   6.682 -0.1870 -0.3293 -0.2637
  856POPE   C3A12425  14.116   1.046   7.091 -0.3628  0.2111 -0.0533
  856POPE   C4A12426  14.107   1.244   7.483 -0.1758  0.0829  0.0604
  856POPE   C1B12427  13.683   1.196   6.789 -0.3947  0.1204 -0.1718
  856POPE   C2B12428  13.698   0.819   6.980  0.0121  0.1218  0.1538
  856POPE   C3B12429  13.769   0.716   7.334 -0.1320  0.4421 -0.0017
  856POPE   C4B12430  13.769   0.278   7.378 -0.2043 -0.3004  0.0201
  857POPE   NH312431   2.862   2.268   5.960 -0.0025 -0.1455  0.1336
  857POPE   PO412432   2.690   2.701   6.111  0.0009  0.2633 -0.1284
  857POPE   GL112433   2.461   2.977   6.452 -0.1469 -0.0964 -0.3239
  857POPE   GL212434   2.641   3.298   6.457  0.0672 -0.0597 -0.1332
  857POPE   C1A12435   2.490   2.915   6.882  0.1554  0.1116 -0.0875
  857POPE   D2A12436   2.421   2.738   7.318  0.2693 -0.0126  0.1207
  857POPE   C3A12437   2.630   2.812   7.705 -0.3093 -0.0450 -0.0752
  857POPE   C4A12438   2.630   3.070   8.024 -0.1842  0.2103 -0.1056
  857POPE   C1B12439   2.540   3.440   6.949 -0.3850  0.0928  0.0623
  857POPE   C2B12440   2.503   3.266   7.368  0.0057  0.1299  0.5565
  857POPE   C3B12441   2.424   3.537   7.742 -0.0363  0.1280 -0.4196
  857POPE   C4B12442   2.132   3.839   7.915  0.2876  0.1560 -0.1314
  858POPE   NH312443  14.430   9.705   5.508 -0.0084  0.1474  0.0411
  858POPE   PO412444  14.373   9.373   5.854 -0.2052 -0.1925 -0.0200
  858POPE   GL112445  14.570   9.425   6.251  0.1306  0.2010 -0.2800
  858POPE   GL212446  14.937   9.504   6.282 -0.2814  0.1018 -0.2925
  858POPE   C1A12447  14.602   9.180   6.560  0.2280  0.1519 -0.2324
  858POPE   D2A12448  14.585   9.208   7.008  0.2646 -0.1123  0.1019
  858POPE   C3A12449  14.501   8.911   7.248  0.1428  0.1710 -0.0029
  858POPE   C4A12450  14.364   8.581   7.433  0.1544  0.0569 -0.1787
  858POPE   C1B12451  14.946   9.486   6.796  0.1041  0.1681  0.0682
  858POPE   C2B12452  14.970   9.426   7.262  0.0713 -0.1184 -0.3235
  858POPE   C3B12453  14.744   9.629   7.657  0.2504 -0.1498 -0.1302
  858POPE   C4B12454  14.716   9.643   8.059 -0.1675 -0.1494  0.0295
  859POPE   NH312455   4.040   0.680   5.721  0.1779 -0.2099 -0.3443
  859POPE   PO412456   3.626   0.594   6.008 -0.2088  0.1878  0.2402
  859POPE   GL112457   3.562   0.449   6.448  0.0418  0.1529 -0.0890
  859POPE   GL212458   3.313   0.141   6.487  0.1770  0.2551  0.2646
  859POPE   C1A12459   3.817   0.415   6.767  0.0168 -0.1254 -0.2207
  859POPE   D2A12460   3.752   0.347   7.188  0.1113  0.0446  0.1024
  859POPE   C3A12461   3.981   0.264   7.602  0.0761 -0.1217  0.3039
  859POPE   C4A12462   4.093   0.158   8.030 -0.1697 -0.0888  0.0111
  859POPE   C1B12463   3.353   0.336   6.875  0.1189 -0.1167  0.0914
  859POPE   C2B12464   3.271   0.175   7.265 -0.1426 -0.0360  0.2979
  859POPE   C3B12465   3.491   0.347   7.595  0.0342  0.2378  0.0611
  859POPE   C4B12466   3.606   0.337   8.060 -0.2864 -0.1031  0.0182
  860POPE   NH312467   4.599   0.057   6.278  0.4019 -0.0565 -0.0122
  860POPE   PO412468   4.688  -0.344   6.204  0.3610  0.0375 -0.0571
  860POPE   GL112469   4.837  -0.331   6.625  0.0268 -0.0450  0.1879
  860POPE   GL212470   4.648  -0.141   6.783 -0.1354  0.0476  0.0762
  860POPE   C1A12471   4.931  -0.339   7.156 -0.1104  0.2590 -0.0532
  860POPE   D2A12472   5.002  -0.797   7.366  0.1915 -0.0528  0.1574
  860POPE   C3A12473   4.994  -1.166   7.082  0.0985  0.0503  0.1272
  860POPE   C4A12474   4.950  -1.251   6.685  0.1697  0.0685  0.1986
  860POPE   C1B12475   4.524  -0.006   7.173 -0.4357 -0.1856  0.2590
  860POPE   C2B12476   4.444   0.113   7.551  0.1701 -0.1354  0.0807
  860POPE   C3B12477   4.455   0.443   7.845  0.1246 -0.1782 -0.0684
  860POPE   C4B12478   4.504   0.636   8.170  0.2307  0.1399 -0.0924
  861POPE   NH312479  12.746   3.607   5.871  0.0718 -0.0018  0.0372
  861POPE   PO412480  12.734   4.053   5.935  0.3532 -0.0687 -0.0700
  861POPE   GL112481  12.508   3.935   6.311 -0.1091  0.2545 -0.0635
  861POPE   GL212482  12.202   3.617   6.258  0.2243 -0.3779 -0.1135
  861POPE   C1A12483  12.573   3.846   6.741  0.2564  0.0688 -0.0111
  861POPE   D2A12484  12.654   3.715   7.203  0.1121 -0.3474  0.0575
  861POPE   C3A12485  12.759   3.901   7.485 -0.3172 -0.1059 -0.2258
  861POPE   C4A12486  12.768   3.867   7.965 -0.5781 -0.0823 -0.0385
  861POPE   C1B12487  12.189   3.593   6.595  0.4146  0.4108 -0.0431
  861POPE   C2B12488  12.222   3.505   7.058 -0.1289 -0.0292 -0.1789
  861POPE   C3B12489  12.367   3.369   7.550  0.4107 -0.1405 -0.0105
  861POPE   C4B12490  12.509   3.026   7.740 -0.1002 -0.1104 -0.1226
  862POPE   NH312491  12.810   6.884   5.871  0.2038 -0.2937 -0.2707
  862POPE   PO412492  12.510   7.249   5.867  0.2200  0.0828 -0.0464
  862POPE   GL112493  12.619   7.277   6.228 -0.0088 -0.1447  0.1643
  862POPE   GL212494  12.521   7.602   6.239 -0.1444 -0.0907 -0.0445
  862POPE   C1A12495  12.809   7.364   6.609  0.0041 -0.2517  0.1979
  862POPE   D2A12496  12.684   7.506   7.048  0.0998  0.2634  0.0498
  862POPE   C3A12497  12.838   7.475   7.494  0.0974  0.1391 -0.2408
  862POPE   C4A12498  12.708   7.217   7.800 -0.1658 -0.0699  0.2364
  862POPE   C1B12499  12.417   7.816   6.610  0.0282 -0.3803  0.2131
  862POPE   C2B12500  12.411   7.863   7.008  0.2029  0.0493  0.1267
  862POPE   C3B12501  12.565   7.910   7.393  0.1299 -0.1920 -0.1152
  862POPE   C4B12502  12.744   7.833   7.836  0.1363 -0.2468 -0.0685
  863POPE   NH312503   8.340   8.166   5.983 -0.1064 -0.2792 -0.0195
  863POPE   PO412504   8.732   8.163   6.038  0.1310  0.2480 -0.0046
  863POPE   GL112505   8.893   8.169   6.480  0.0838  0.3153 -0.1554
  863POPE   GL212506   9.247   7.978   6.516 -0.0060  0.3125 -0.0152
  863POPE   C1A12507   8.857   8.227   6.882 -0.1250  0.0393 -0.1789
  863POPE   D2A12508   8.893   8.105   7.351 -0.0207 -0.0047 -0.0492
  863POPE   C3A12509   8.942   8.374   7.635  0.0866  0.0365 -0.2522
  863POPE   C4A12510   9.122   8.695   7.844  0.1530 -0.1940 -0.3081
  863POPE   C1B12511   9.204   7.918   7.002 -0.3926 -0.1185 -0.1049
  863POPE   C2B12512   9.036   7.639   7.157 -0.2300 -0.0306  0.0365
  863POPE   C3B12513   8.968   7.481   7.560  0.0901  0.0229 -0.2795
  863POPE   C4B12514   8.672   7.630   7.876 -0.0383  0.0885  0.3859
  864POPE   NH312515   1.774   8.136   6.167  0.1549 -0.0676  0.1724
  864POPE   PO412516   1.372   8.089   6.337 -0.1011 -0.0864 -0.3039
  864POPE   GL112517   1.116   8.095   6.697 -0.2244  0.1836 -0.0393
  864POPE   GL212518   1.215   8.341   6.795 -0.0363 -0.0680 -0.1809
  864POPE   C1A12519   1.011   8.048   7.119 -0.0511 -0.0655 -0.1178
  864POPE   D2A12520   1.010   8.145   7.588 -0.0967 -0.0271 -0.2689
  864POPE   C3A12521   1.290   8.389   7.723  0.3905  0.3000  0.2330
  864POPE   C4A12522   1.692   8.606   7.457 -0.0518  0.0786 -0.1207
  864POPE   C1B12523   1.287   8.487   7.141 -0.1658  0.2612 -0.0862
  864POPE   C2B12524   1.119   8.716   7.474  0.0988  0.2101 -0.2126
  864POPE   C3B12525   1.133   8.841   7.938  0.1625  0.0114 -0.0268
  864POPE   C4B12526   1.398   8.848   8.286 -0.1110 -0.0956 -0.2698
  865POPE   NH312527   5.010  10.416   6.240 -0.1768  0.3844  0.0010
  865POPE   PO412528   5.500  10.507   6.221 -0.0733 -0.2570  0.1664
  865POPE   GL112529   5.843  10.572   6.548 -0.4953 -0.1174 -0.0674
  865POPE   GL212530   5.937  10.815   6.628  0.0040 -0.0242  0.0755
  865POPE   C1A12531   5.946  10.486   7.025 -0.2353  0.0040 -0.0141
  865POPE   D2A12532   6.093  10.393   7.446 -0.1206 -0.0594  0.2868
  865POPE   C3A12533   6.354  10.637   7.759  0.0178 -0.2330  0.1602
  865POPE   C4A12534   6.472  10.712   8.100 -0.2814  0.0045  0.0169
  865POPE   C1B12535   5.985  10.991   7.011 -0.0123 -0.1715  0.2294
  865POPE   C2B12536   5.951  11.116   7.465 -0.0921  0.1122  0.0713
  865POPE   C3B12537   6.066  11.017   7.756 -0.3377  0.1642 -0.2419
  865POPE   C4B12538   6.010  10.901   8.226  0.0016  0.1569  0.1677
  866POPE   NH312539   2.852  14.902   5.582  0.1564 -0.0650  0.0721
  866POPE   PO412540   3.032  14.970   5.999 -0.1591  0.1335  0.0025
  866POPE   GL112541   2.928  14.953   6.450  0.1363  0.0258 -0.0654
  866POPE   GL212542   2.717  15.166   6.556 -0.1061 -0.0345  0.0914
  866POPE   C1A12543   2.637  14.678   6.701  0.0381 -0.2300  0.0293
  866POPE   D2A12544   2.480  14.543   7.081 -0.2437 -0.0523  0.1977
  866POPE   C3A12545   2.223  14.244   7.394  0.2987  0.2228 -0.0821
  866POPE   C4A12546   2.161  14.554   7.619 -0.0640 -0.0946  0.0860
  866POPE   C1B12547   2.780  15.077   7.010 -0.0680 -0.0119  0.0274
  866POPE   C2B12548   2.683  14.869   7.363 -0.2246  0.2367  0.1235
  866POPE   C3B12549   2.662  14.457   7.580 -0.2236  0.0794 -0.0822
  866POPE   C4B12550   2.488  14.149   7.814  0.0088 -0.2167 -0.3582
  867POPE   NH312551   0.917  13.159   5.825 -0.1889  0.3062 -0.1041
  867POPE   PO412552   1.310  12.836   5.868 -0.0591 -0.0348 -0.0735
  867POPE   GL112553   1.535  12.782   6.206  0.1489 -0.1136  0.0072
  867POPE   GL212554   1.774  12.618   6.176 -0.1517  0.0796 -0.1842
  867POPE   C1A12555   1.721  12.887   6.690 -0.1077 -0.0801  0.3109
  867POPE   D2A12556   1.509  13.040   7.040  0.1993  0.1342  0.1261
  867POPE   C3A12557   1.375  12.883   7.466  0.0106  0.1484 -0.0455
  867POPE   C4A12558   1.583  12.611   7.848 -0.2666 -0.2755  0.0657
  867POPE   C1B12559   1.987  12.468   6.487 -0.0005 -0.2854  0.0005
  867POPE   C2B12560   2.169  12.374   6.857 -0.0685 -0.0696  0.2185
  867POPE   C3B12561   2.172  12.423   7.372 -0.0608  0.2425 -0.0461
  867POPE   C4B12562   2.048  12.440   7.728  0.0930 -0.2312  0.0052
  868POPE   NH312563  14.099  17.182   5.945  0.0152 -0.3035  0.1148
  868POPE   PO412564  13.934  17.542   5.826  0.2069  0.0927  0.1624
  868POPE   GL112565  13.907  17.703   6.302  0.0633 -0.0974  0.0003
  868POPE   GL212566  13.725  17.835   6.419 -0.1070 -0.1745  0.2201
  868POPE   C1A12567  13.975  17.550   6.685  0.0627  0.2099  0.2874
  868POPE   D2A12568  14.032  17.766   7.077  0.0384  0.0299 -0.1991
  868POPE   C3A12569  13.979  17.885   7.479 -0.1251  0.1686 -0.2088
  868POPE   C4A12570  13.959  17.697   7.894 -0.0600 -0.2190 -0.0413
  868POPE   C1B12571  13.575  17.943   6.772  0.0608  0.2789  0.0420
  868POPE   C2B12572  13.450  18.092   7.173 -0.2175  0.0915  0.2440
  868POPE   C3B12573  13.542  18.055   7.679 -0.0643 -0.2004 -0.1861
  868POPE   C4B12574  13.571  18.052   8.187  0.2317  0.1925 -0.0215
  869POPE   NH312575  11.678   4.913   5.776 -0.1864  0.1253 -0.0657
  869POPE   PO412576  11.268   4.687   5.904  0.0444 -0.0943  0.2775
  869POPE   GL112577  11.156   4.532   6.275  0.1951  0.1746  0.2061
  869POPE   GL212578  10.922   4.309   6.209 -0.0230  0.0519  0.0556
  869POPE   C1A12579  11.155   4.386   6.656  0.3445  0.3678  0.1411
  869POPE   D2A12580  11.234   4.072   6.863  0.0255  0.2408  0.1215
  869POPE   C3A12581  11.354   4.044   7.236  0.0123  0.1508 -0.0679
  869POPE   C4A12582  11.221   3.876   7.583 -0.0672  0.1581 -0.0794
  869POPE   C1B12583  10.626   4.308   6.599 -0.4944  0.0788  0.2845
  869POPE   C2B12584  10.597   4.332   7.093  0.2441  0.0885  0.3020
  869POPE   C3B12585  10.384   4.214   7.415  0.0452  0.2446 -0.1949
  869POPE   C4B12586  10.172   4.207   7.859  0.1868  0.1540  0.0926
  870POPE   NH312587  13.432  11.706   6.070 -0.0899 -0.1770  0.3645
  870POPE   PO412588  13.137  11.587   5.827  0.0050  0.0229 -0.5228
  870POPE   GL112589  13.058  11.375   6.196  0.0386 -0.0732 -0.1025
  870POPE   GL212590  13.008  11.621   6.423 -0.0493  0.0037  0.2417
  870POPE   C1A12591  12.983  11.047   6.490  0.2543  0.0961 -0.1588
  870POPE   D2A12592  12.931  10.805   7.009 -0.0525 -0.1422  0.0411
  870POPE   C3A12593  12.510  10.598   6.972 -0.1941 -0.0130  0.2286
  870POPE   C4A12594  12.234  10.349   6.577  0.0927 -0.1967 -0.4978
  870POPE   C1B12595  13.193  11.742   6.794 -0.2531  0.0047  0.2312
  870POPE   C2B12596  13.126  11.691   7.244  0.0664 -0.0932 -0.0526
  870POPE   C3B12597  13.057  11.909   7.638 -0.0627 -0.3548 -0.1160
  870POPE   C4B12598  12.726  11.954   7.924 -0.2500 -0.3581 -0.2501
  871YOPE   NH312599  12.362  13.993   6.144  0.0812  0.1162 -0.4842
  871YOPE   PO412600  12.806  14.346   6.204 -0.1170  0.0410  0.1813
  871YOPE   GL112601  12.675  14.548   6.452 -0.0094  0.2591  0.1269
  871YOPE   GL212602  12.411  14.386   6.523  0.3028  0.1158  0.1760
  871YOPE   C1A12603  12.783  14.901   6.687  0.0133  0.1261  0.0153
  871YOPE   D2A12604  12.940  14.878   7.058  0.1403  0.1242  0.0874
  871YOPE   C3A12605  12.699  14.837   7.413  0.1015 -0.5001 -0.3389
  871YOPE   C4A12606  12.905  14.577   7.627  0.5060  0.1447 -0.0999
  871YOPE   C1B12607  12.152  14.322   6.888  0.1000 -0.0520 -0.2845
  871YOPE   C2B12608  12.100  14.199   7.312  0.3527 -0.0510 -0.1139
  871YOPE   D3B12609  12.259  13.904   7.513 -0.1371  0.1363  0.1229
  871YOPE   C4B12610  12.394  13.482   7.757  0.1288  0.1085 -0.4149
  872YOPE   NH312611  13.360   6.198   5.933 -0.0855 -0.1049  0.1051
  872YOPE   PO412612  13.724   6.395   5.857 -0.0237  0.0743 -0.0416
  872YOPE   GL112613  13.667   6.425   6.290 -0.0420 -0.0163  0.0141
  872YOPE   GL212614  13.519   6.127   6.467 -0.0229  0.0649  0.0400
  872YOPE   C1A12615  13.839   6.405   6.758  0.1274  0.1163 -0.1500
  872YOPE   D2A12616  13.773   6.381   7.240  0.0363 -0.0652  0.1270
  872YOPE   C3A12617  13.860   6.106   7.589  0.1602 -0.0268 -0.0203
  872YOPE   C4A12618  13.961   5.817   7.893 -0.0338 -0.2315  0.1771
  872YOPE   C1B12619  13.481   6.014   6.883 -0.3465 -0.3631  0.0168
  872YOPE   C2B12620  13.636   5.789   7.201 -0.2477 -0.3026 -0.1296
  872YOPE   D3B12621  14.037   5.666   7.375  0.1903 -0.0929  0.1446
  872YOPE   C4B12622  14.372   5.578   7.723 -0.3961  0.3589 -0.2152
  873YOPE   NH312623  12.991   2.671   5.715  0.0004  0.0191  0.3401
  873YOPE   PO412624  13.344   3.043   5.641 -0.2192  0.2280  0.1518
  873YOPE   GL112625  13.467   3.131   6.086  0.0921 -0.2095  0.0374
  873YOPE   GL212626  13.255   2.804   6.114 -0.2710  0.0773 -0.0004
  873YOPE   C1A12627  13.605   2.922   6.459 -0.1821  0.0636 -0.1321
  873YOPE   D2A12628  13.542   2.630   6.762  0.0205  0.1244  0.0510
  873YOPE   C3A12629  13.607   2.571   7.162 -0.0169 -0.0041 -0.0949
  873YOPE   C4A12630  14.017   2.536   7.435  0.2803  0.3135 -0.0010
  873YOPE   C1B12631  13.038   2.722   6.482 -0.0734  0.0588 -0.0338
  873YOPE   C2B12632  13.035   2.628   6.892  0.1889 -0.0963  0.2986
  873YOPE   D3B12633  13.074   2.405   7.298  0.1047  0.0510  0.2537
  873YOPE   C4B12634  12.785   2.267   7.670 -0.0901 -0.0625 -0.2544
  874YOPE   NH312635  10.045  10.996   6.277  0.3367 -0.0846  0.0037
  874YOPE   PO412636   9.688  10.988   6.468  0.0990 -0.3219  0.4725
  874YOPE   GL112637   9.626  10.776   6.841 -0.0845  0.0514  0.2041
  874YOPE   GL212638   9.487  10.526   6.789 -0.1873  0.1689 -0.1608
  874YOPE   C1A12639   9.877  10.795   7.119  0.1767  0.1131 -0.0841
  874YOPE   D2A12640  10.125  11.053   7.314 -0.0166  0.1568  0.0537
  874YOPE   C3A12641  10.494  11.120   7.512  0.0714  0.2570  0.2791
  874YOPE   C4A12642  10.896  10.975   7.297  0.2015  0.1299  0.2704
  874YOPE   C1B12643   9.546  10.441   7.254 -0.0675 -0.0961 -0.0906
  874YOPE   C2B12644   9.544  10.455   7.727  0.2276 -0.1124  0.3157
  874YOPE   D3B12645   9.702  10.295   8.120 -0.1471 -0.0881 -0.2875
  874YOPE   C4B12646   9.855  10.134   8.487 -0.1605 -0.1562 -0.1238
  875YOPE   NH312647  17.076  10.048   6.072  0.2140 -0.1688 -0.1036
  875YOPE   PO412648  17.098  10.432   5.892 -0.0674 -0.0053  0.0481
  875YOPE   GL112649  16.973  10.434   6.380  0.0560 -0.0716  0.1136
  875YOPE   GL212650  17.167  10.169   6.526 -0.0691  0.0041 -0.1623
  875YOPE   C1A12651  16.864  10.401   6.815 -0.1521  0.2350 -0.3252
  875YOPE   D2A12652  17.230  10.571   7.119 -0.0603  0.1532 -0.0043
  875YOPE   C3A12653  17.301  10.516   7.608  0.0835  0.0789 -0.3722
  875YOPE   C4A12654  17.230  10.762   7.921 -0.1179  0.2329  0.2027
  875YOPE   C1B12655  17.325  10.139   6.929  0.2742 -0.0696  0.2311
  875YOPE   C2B12656  17.589  10.294   7.232  0.2788 -0.0308 -0.1404
  875YOPE   D3B12657  17.835  10.444   7.554 -0.0766 -0.0231  0.1853
  875YOPE   C4B12658  17.756  10.583   7.985  0.2522 -0.2824  0.1829
  876YOPE   NH312659   8.669   2.881   5.877 -0.1127  0.2357 -0.0582
  876YOPE   PO412660   8.858   2.478   5.845 -0.0492 -0.3128 -0.2343
  876YOPE   GL112661   8.843   2.442   6.242 -0.0938 -0.0731 -0.1163
  876YOPE   GL212662   8.610   2.646   6.297  0.1153  0.3462  0.2095
  876YOPE   C1A12663   8.980   2.586   6.720  0.2807  0.1383  0.0458
  876YOPE   D2A12664   9.374   2.579   6.844  0.0526  0.1590 -0.0268
  876YOPE   C3A12665   9.334   2.559   7.153 -0.1064  0.1992  0.0407
  876YOPE   C4A12666   9.194   2.671   7.628 -0.3040 -0.0169  0.1314
  876YOPE   C1B12667   8.626   2.938   6.546  0.2568 -0.2028 -0.1381
  876YOPE   C2B12668   8.526   3.027   6.964 -0.2170 -0.0288  0.0374
  876YOPE   D3B12669   8.463   3.030   7.286  0.0708  0.0395  0.3070
  876YOPE   C4B12670   8.358   2.899   7.808 -0.2594  0.3109 -0.1997
  877YOPE   NH312671   0.611   0.398   5.801  0.2589  0.0468 -0.1904
  877YOPE   PO412672   0.853   0.062   5.966 -0.1322  0.3401  0.0412
  877YOPE   GL112673   0.697  -0.153   6.237  0.2369 -0.0619  0.0141
  877YOPE   GL212674   0.912  -0.505   6.259  0.2391 -0.1069  0.2424
  877YOPE   C1A12675   0.436  -0.266   6.545 -0.2169 -0.1279 -0.2467
  877YOPE   D2A12676   0.304  -0.284   6.996  0.0944 -0.0318  0.1544
  877YOPE   C3A12677   0.463  -0.308   7.386 -0.2687 -0.0534  0.1641
  877YOPE   C4A12678   0.464  -0.363   7.846  0.1966 -0.2597 -0.0484
  877YOPE   C1B12679   0.925  -0.335   6.669  0.0645  0.0106 -0.0552
  877YOPE   C2B12680   0.864  -0.286   7.130  0.0392 -0.2961  0.0968
  877YOPE   D3B12681   0.965  -0.392   7.558  0.2450 -0.0262  0.2351
  877YOPE   C4B12682   0.909  -0.379   8.069 -0.0486 -0.0477 -0.1714
  878YOPE   NH312683  16.702  17.884   5.893 -0.0158  0.1948  0.2678
  878YOPE   PO412684  16.403  17.592   5.920  0.1721  0.2247  0.1047
  878YOPE   GL112685  16.253  17.405   6.282  0.1688  0.1926  0.0233
  878YOPE   GL212686  16.020  17.398   6.350  0.0766  0.0063 -0.0773
  878YOPE   C1A12687  16.332  17.391   6.706 -0.3899  0.0863  0.3170
  878YOPE   D2A12688  16.494  17.309   7.167  0.2209  0.0666  0.0464
  878YOPE   C3A12689  16.632  17.646   7.384  0.0269  0.0781 -0.3206
  878YOPE   C4A12690  16.785  18.092   7.679  0.0375 -0.0364  0.0280
  878YOPE   C1B12691  15.782  17.379   6.662 -0.2074 -0.2478  0.1199
  878YOPE   C2B12692  15.790  17.713   6.975  0.0530 -0.1897 -0.0552
  878YOPE   D3B12693  15.555  17.687   7.402 -0.2661  0.3476 -0.0882
  878YOPE   C4B12694  15.370  17.563   7.754  0.0546  0.0274 -0.1369
  879YOPE   NH312695   4.302  17.460   6.063  0.0470  0.0131 -0.1291
  879YOPE   PO412696   3.964  17.511   6.061  0.2583 -0.2216  0.0505
  879YOPE   GL112697   4.105  17.871   6.312  0.2806  0.1943 -0.0815
  879YOPE   GL212698   3.805  18.115   6.261 -0.0393  0.0364 -0.3729
  879YOPE   C1A12699   4.123  17.950   6.823  0.1584  0.2547  0.2491
  879YOPE   D2A12700   4.052  17.949   7.246 -0.1599 -0.0322 -0.0832
  879YOPE   C3A12701   4.128  17.737   7.647 -0.0447  0.1671 -0.0044
  879YOPE   C4A12702   4.336  17.848   7.924 -0.2981  0.0865 -0.0464
  879YOPE   C1B12703   3.660  17.965   6.679  0.0185 -0.3047 -0.2616
  879YOPE   C2B12704   3.618  18.032   6.988 -0.1176 -0.0495 -0.1264
  879YOPE   D3B12705   3.600  17.881   7.384 -0.0015 -0.3662 -0.0753
  879YOPE   C4B12706   3.661  17.998   7.763 -0.2635  0.1994  0.1730
  880YOPE   NH312707   8.945  14.446   6.137  0.0515 -0.0698 -0.0402
  880YOPE   PO412708   9.199  14.670   6.233  0.0295 -0.1467 -0.2243
  880YOPE   GL112709   9.470  14.779   6.542 -0.0334 -0.1004  0.1863
  880YOPE   GL212710   9.715  14.531   6.568 -0.2892 -0.0258 -0.3723
  880YOPE   C1A12711   9.448  14.790   6.928  0.1591 -0.1209  0.0359
  880YOPE   D2A12712   9.564  14.576   7.325  0.0378  0.0252 -0.1799
  880YOPE   C3A12713   9.840  14.474   7.550 -0.0032 -0.1473 -0.1991
  880YOPE   C4A12714   9.991  14.377   7.978  0.2891  0.1875  0.1739
  880YOPE   C1B12715   9.861  14.329   6.920 -0.1593  0.3831  0.2651
  880YOPE   C2B12716  10.100  14.192   7.228 -0.3957 -0.4588 -0.1921
  880YOPE   D3B12717  10.226  13.997   7.610  0.1465  0.3001  0.2455
  880YOPE   C4B12718  10.367  13.956   8.004  0.1174 -0.0022 -0.0344
  881YOPE   NH312719   7.841   5.089   5.471  0.1977  0.4336  0.0772
  881YOPE   PO412720   8.266   5.048   5.641 -0.3052 -0.2060 -0.0052
  881YOPE   GL112721   8.353   5.063   6.080 -0.0994  0.2863  0.0472
  881YOPE   GL212722   8.549   5.279   6.333 -0.2893  0.1925  0.0366
  881YOPE   C1A12723   8.441   4.793   6.437  0.1522  0.2903 -0.1308
  881YOPE   D2A12724   8.694   4.541   6.671 -0.1281 -0.2820 -0.0270
  881YOPE   C3A12725   8.865   4.654   7.005  0.0952  0.0493 -0.0649
  881YOPE   C4A12726   9.236   4.463   7.183  0.1304 -0.1520  0.1423
  881YOPE   C1B12727   8.603   5.180   6.719 -0.1040  0.1438  0.0245
  881YOPE   C2B12728   8.661   5.080   7.224 -0.0273 -0.0016  0.0485
  881YOPE   D3B12729   8.862   4.998   7.637 -0.2063  0.2647  0.1793
  881YOPE   C4B12730   8.916   5.086   8.103 -0.0349 -0.0291  0.0911
  882YOPE   NH312731  10.516  13.061   6.258 -0.0929 -0.2322 -0.1175
  882YOPE   PO412732  10.120  13.176   6.346  0.0033  0.2752 -0.0017
  882YOPE   GL112733  10.220  13.154   6.751 -0.3047  0.2723  0.0273
  882YOPE   GL212734  10.380  12.858   6.746 -0.1782 -0.1823 -0.1612
  882YOPE   C1A12735  10.157  13.139   7.244  0.1777  0.0827 -0.1480
  882YOPE   D2A12736  10.213  12.668   7.379 -0.1459  0.0602  0.1500
  882YOPE   C3A12737  10.344  12.408   7.796 -0.1009 -0.2729 -0.0358
  882YOPE   C4A12738  10.199  12.479   8.175  0.0574  0.1397 -0.1911
  882YOPE   C1B12739  10.579  12.652   7.099 -0.1330  0.0233  0.1017
  882YOPE   C2B12740  10.744  12.605   7.387  0.1143 -0.1361 -0.1796
  882YOPE   D3B12741  10.893  12.691   7.690 -0.2640 -0.0360 -0.0132
  882YOPE   C4B12742  10.646  12.766   8.034 -0.3832  0.0412 -0.1545
  883YOPE   NH312743   7.037   0.700   5.815 -0.1527  0.1264 -0.1254
  883YOPE   PO412744   6.896   1.013   6.093  0.2358 -0.1119  0.0499
  883YOPE   GL112745   6.999   1.125   6.549 -0.0512 -0.0134 -0.2474
  883YOPE   GL212746   7.250   1.300   6.463  0.0746  0.2319 -0.0575
  883YOPE   C1A12747   7.198   1.253   7.020  0.0977  0.1117  0.0860
  883YOPE   D2A12748   7.088   1.527   7.349 -0.1950  0.3279 -0.0018
  883YOPE   C3A12749   7.322   1.666   7.658  0.2613 -0.0747  0.2462
  883YOPE   C4A12750   7.458   1.555   8.018  0.2776  0.2120 -0.3435
  883YOPE   C1B12751   6.979   1.549   6.742  0.2240 -0.0380  0.2030
  883YOPE   C2B12752   6.655   1.760   7.001  0.2281 -0.2660  0.2290
  883YOPE   D3B12753   6.564   1.711   7.352 -0.3175  0.1173  0.0364
  883YOPE   C4B12754   6.782   1.706   7.782 -0.0864 -0.0188  0.1460
  884YOPE   NH312755   9.648  11.835   6.524 -0.0261  0.0195 -0.3373
  884YOPE   PO412756   9.883  11.489   6.451 -0.1095  0.0063  0.2087
  884YOPE   GL112757  10.040  11.678   6.780  0.1893  0.1854 -0.1541
  884YOPE   GL212758   9.732  11.860   7.000  0.2599 -0.4489  0.2409
  884YOPE   C1A12759  10.175  11.507   7.167 -0.0986  0.2496 -0.1232
  884YOPE   D2A12760  10.082  11.463   7.571  0.2054  0.1121  0.2978
  884YOPE   C3A12761  10.081  11.127   7.848  0.2331  0.3258  0.2386
  884YOPE   C4A12762  10.400  10.973   8.036  0.2775  0.1377 -0.2542
  884YOPE   C1B12763   9.718  11.724   7.409  0.0836  0.0919 -0.0950
  884YOPE   C2B12764   9.595  11.642   7.864  0.0165 -0.1008  0.2155
  884YOPE   D3B12765   9.617  11.293   8.240  0.1203  0.1392  0.1838
  884YOPE   C4B12766   9.785  10.845   8.167 -0.1816 -0.0682  0.2247
  885YOPE   NH312767  11.581   6.457   5.773 -0.1425 -0.1479  0.0668
  885YOPE   PO412768  11.500   6.875   5.628  0.0060 -0.2900  0.3424
  885YOPE   GL112769  11.273   6.790   6.003 -0.2593 -0.0273  0.1422
  885YOPE   GL212770  11.469   7.100   6.230 -0.0773 -0.0432 -0.1245
  885YOPE   C1A12771  11.178   6.741   6.498  0.0096  0.1574  0.1316
  885YOPE   D2A12772  11.434   6.732   6.827  0.0442  0.4405  0.3815
  885YOPE   C3A12773  11.547   6.781   7.272  0.1566  0.2103 -0.1549
  885YOPE   C4A12774  11.720   6.880   7.743  0.2581  0.0423  0.1375
  885YOPE   C1B12775  11.566   7.272   6.547 -0.0032 -0.1110 -0.1098
  885YOPE   C2B12776  11.672   7.262   6.951  0.1971  0.1188 -0.0080
  885YOPE   D3B12777  11.775   7.229   7.368 -0.1681  0.0784 -0.1814
  885YOPE   C4B12778  11.736   7.343   7.886 -0.0212  0.2605 -0.0970
  886YOPE   NH312779  15.983  13.813   6.174  0.0437  0.0842 -0.1154
  886YOPE   PO412780  16.443  13.772   6.022 -0.1977 -0.3595  0.3271
  886YOPE   GL112781  16.388  13.876   6.474 -0.1253 -0.0229 -0.1333
  886YOPE   GL212782  16.275  13.602   6.619 -0.0374 -0.0054 -0.4215
  886YOPE   C1A12783  16.347  14.071   6.922  0.1307  0.0132  0.0552
  886YOPE   D2A12784  16.332  13.920   7.347  0.0986 -0.1317 -0.2276
  886YOPE   C3A12785  16.129  13.776   7.615 -0.0059 -0.1334  0.0770
  886YOPE   C4A12786  15.771  13.707   7.576  0.0629  0.0261  0.0918
  886YOPE   C1B12787  16.025  13.564   7.011  0.1295  0.0889 -0.0371
  886YOPE   C2B12788  16.117  13.336   7.393 -0.0173  0.0828 -0.2106
  886YOPE   D3B12789  16.001  13.385   7.936 -0.0759 -0.1424  0.3369
  886YOPE   C4B12790  16.147  13.396   8.327  0.1367  0.0336  0.2802
  887YOPE   NH312791  13.792   7.065   5.528  0.1702  0.1764 -0.0783
  887YOPE   PO412792  14.180   7.282   5.380  0.0162  0.0282  0.0578
  887YOPE   GL112793  14.136   7.403   5.743  0.0267  0.0805  0.0755
  887YOPE   GL212794  13.884   7.384   5.921  0.0585  0.1357 -0.2796
  887YOPE   C1A12795  14.304   7.448   6.207 -0.1388  0.0220 -0.4211
  887YOPE   D2A12796  14.276   7.144   6.582 -0.0702 -0.0012 -0.0255
  887YOPE   C3A12797  14.399   7.301   6.889 -0.1365  0.0894  0.0158
  887YOPE   C4A12798  14.591   7.513   7.278 -0.0078 -0.0975 -0.1948
  887YOPE   C1B12799  13.849   7.392   6.359 -0.0668  0.1714 -0.2699
  887YOPE   C2B12800  13.961   7.414   6.784 -0.0411  0.1690  0.2063
  887YOPE   D3B12801  13.898   7.303   7.074 -0.1490  0.0655 -0.3144
  887YOPE   C4B12802  14.239   7.160   7.368 -0.2505  0.1375  0.3322
  888YOPE   NH312803   2.616  11.522   6.024  0.1267  0.0086  0.0086
  888YOPE   PO412804   2.901  11.192   6.106 -0.1782  0.0726 -0.2235
  888YOPE   GL112805   2.963  11.288   6.474 -0.0955 -0.1267 -0.2334
  888YOPE   GL212806   3.235  11.491   6.489  0.1020  0.0377 -0.1062
  888YOPE   C1A12807   2.709  11.700   6.632  0.0469 -0.1745 -0.1435
  888YOPE   D2A12808   2.513  11.885   6.995 -0.1662 -0.1194  0.0649
  888YOPE   C3A12809   2.494  11.772   7.472  0.0168 -0.2377  0.1942
  888YOPE   C4A12810   2.451  11.497   7.797  0.0112 -0.0133 -0.1772
  888YOPE   C1B12811   3.224  11.320   6.873  0.1610  0.1661 -0.0123
  888YOPE   C2B12812   3.373  11.321   7.295  0.0310 -0.0551  0.1418
  888YOPE   D3B12813   3.488  11.026   7.739  0.0893  0.3766  0.1059
  888YOPE   C4B12814   3.256  11.059   8.197  0.0966 -0.1098 -0.0653
  889YOPE   NH312815  16.913   6.640   5.542  0.0788  0.0089 -0.2430
  889YOPE   PO412816  16.971   6.253   5.553  0.1968 -0.0637  0.0602
  889YOPE   GL112817  16.960   6.283   6.012 -0.0830  0.3322 -0.3498
  889YOPE   GL212818  17.273   6.388   6.016 -0.0785 -0.2244  0.2216
  889YOPE   C1A12819  16.987   6.167   6.519  0.2152 -0.0882  0.2479
  889YOPE   D2A12820  16.989   6.025   6.938 -0.1516  0.1864 -0.2989
  889YOPE   C3A12821  17.081   5.988   7.344  0.0407  0.2332 -0.1140
  889YOPE   C4A12822  16.991   6.207   7.830 -0.1210 -0.1716  0.1302
  889YOPE   C1B12823  17.316   6.521   6.451 -0.2645 -0.0012 -0.0793
  889YOPE   C2B12824  17.266   6.553   6.901 -0.0192 -0.4648  0.0736
  889YOPE   D3B12825  17.288   6.457   7.271 -0.1046  0.1158 -0.0184
  889YOPE   C4B12826  17.507   6.355   7.683  0.2096  0.0616  0.0510
  890YOPE   NH312827   7.178   4.640   5.451  0.0386  0.1454  0.0795
  890YOPE   PO412828   7.335   4.933   5.612  0.0960  0.0385  0.0373
  890YOPE   GL112829   7.381   5.131   5.969 -0.0197 -0.2452 -0.2453
  890YOPE   GL212830   7.570   5.436   5.896 -0.1071  0.2118  0.2101
  890YOPE   C1A12831   7.533   5.162   6.379  0.2621 -0.1290 -0.0203
  890YOPE   D2A12832   7.499   5.218   6.772 -0.1805 -0.0144 -0.0386
  890YOPE   C3A12833   7.340   4.858   7.006  0.2805 -0.2533 -0.1650
  890YOPE   C4A12834   7.266   4.792   7.367 -0.0021 -0.1258 -0.0104
  890YOPE   C1B12835   7.519   5.649   6.327 -0.0574 -0.0148  0.1806
  890YOPE   C2B12836   7.413   5.708   6.775 -0.2217 -0.1218  0.1277
  890YOPE   D3B12837   7.396   5.798   7.219 -0.1150 -0.0533 -0.0058
  890YOPE   C4B12838   7.759   5.517   7.589 -0.0256  0.0340  0.3088
  891YOPE   NH312839  13.477  17.207   5.817 -0.0325 -0.3972  0.0266
  891YOPE   PO412840  13.728  16.821   5.726 -0.0950  0.2184  0.2125
  891YOPE   GL112841  13.924  16.729   6.159  0.0567 -0.0229 -0.1145
  891YOPE   GL212842  14.073  16.408   6.255 -0.1222 -0.3166  0.0587
  891YOPE   C1A12843  13.894  16.895   6.638 -0.1807 -0.0682  0.1863
  891YOPE   D2A12844  13.705  17.125   7.003 -0.1558 -0.2106  0.1792
  891YOPE   C3A12845  13.469  16.946   7.212  0.0629  0.0127  0.0717
  891YOPE   C4A12846  13.276  17.172   7.612 -0.5713  0.1058 -0.3741
  891YOPE   C1B12847  14.201  16.416   6.639  0.2878 -0.1397 -0.3877
  891YOPE   C2B12848  14.325  16.353   7.141 -0.2445 -0.0578  0.0793
  891YOPE   D3B12849  14.234  16.118   7.562  0.0756  0.1012 -0.2185
  891YOPE   C4B12850  14.225  15.694   7.774 -0.0022  0.1883 -0.1655
  892YOPE   NH312851   3.558   3.142   5.760  0.0419  0.0072  0.0771
  892YOPE   PO412852   3.219   3.271   5.822 -0.0203 -0.0988 -0.0080
  892YOPE   GL112853   3.210   3.273   6.194  0.2485  0.2465 -0.0178
  892YOPE   GL212854   3.088   3.037   6.353 -0.0985  0.1172  0.1121
  892YOPE   C1A12855   3.118   3.391   6.641 -0.0496  0.2754  0.1061
  892YOPE   D2A12856   3.002   3.455   7.126 -0.1642  0.1997  0.1387
  892YOPE   C3A12857   3.273   3.741   7.338  0.2510  0.0758 -0.1804
  892YOPE   C4A12858   3.542   3.804   7.722 -0.1336  0.0239 -0.0182
  892YOPE   C1B12859   2.991   2.888   6.719  0.0309 -0.0492 -0.0742
  892YOPE   C2B12860   2.867   2.972   7.180 -0.2970  0.1444  0.0786
  892YOPE   D3B12861   3.011   3.102   7.457 -0.1953 -0.3349 -0.0546
  892YOPE   C4B12862   2.870   3.401   7.687 -0.1442  0.0132 -0.1796
  893YOPE   NH312863  12.043  17.116   5.911  0.1548  0.2750 -0.1131
  893YOPE   PO412864  12.119  17.532   5.877 -0.0448  0.1232 -0.2039
  893YOPE   GL112865  12.058  17.495   6.300  0.1629  0.1163  0.2774
  893YOPE   GL212866  12.292  17.231   6.358 -0.0640  0.0421  0.2943
  893YOPE   C1A12867  11.946  17.571   6.717 -0.0172 -0.0716  0.0751
  893YOPE   D2A12868  11.674  17.703   7.053  0.0314 -0.1526 -0.2082
  893YOPE   C3A12869  11.509  17.657   7.450  0.0825 -0.2943  0.1026
  893YOPE   C4A12870  11.462  17.574   7.870  0.3342 -0.1289 -0.1519
  893YOPE   C1B12871  12.313  17.250   6.784  0.1453 -0.1836  0.0662
  893YOPE   C2B12872  12.143  17.419   7.202 -0.1143 -0.0012 -0.3234
  893YOPE   D3B12873  12.059  17.398   7.648  0.2017  0.2601 -0.2319
  893YOPE   C4B12874  11.910  17.513   8.081 -0.1048  0.0182 -0.2000
  894YOPE   NH312875   8.006   9.494   6.072 -0.0124  0.0562 -0.0131
  894YOPE   PO412876   8.395   9.599   6.133 -0.0779 -0.1921  0.2557
  894YOPE   GL112877   8.287   9.441   6.490 -0.1318  0.1535 -0.1226
  894YOPE   GL212878   7.987   9.379   6.544  0.0149 -0.0087  0.0622
  894YOPE   C1A12879   8.425   9.441   6.893  0.4558  0.0514 -0.0299
  894YOPE   D2A12880   8.375   9.378   7.368 -0.1139 -0.2571  0.0591
  894YOPE   C3A12881   8.416   9.650   7.611  0.3374 -0.1953  0.2394
  894YOPE   C4A12882   8.338   9.753   8.025  0.0455 -0.1752 -0.2132
  894YOPE   C1B12883   7.971   9.422   6.890 -0.4951  0.1574  0.2157
  894YOPE   C2B12884   7.826   9.450   7.369 -0.0321  0.1833 -0.0372
  894YOPE   D3B12885   8.020   9.406   7.796  0.1164  0.3806 -0.1517
  894YOPE   C4B12886   7.951   9.508   8.217  0.1011 -0.2358 -0.0631
  895YOPE   NH312887   0.401   7.939   6.084 -0.1924 -0.1799  0.0485
  895YOPE   PO412888   0.090   7.685   5.912  0.0656 -0.0452  0.1589
  895YOPE   GL112889   0.072   7.631   6.354  0.1683  0.2496 -0.3478
  895YOPE   GL212890   0.052   8.042   6.400 -0.1493  0.2038  0.1587
  895YOPE   C1A12891   0.082   7.369   6.819  0.0297 -0.0483 -0.3651
  895YOPE   D2A12892   0.390   7.453   7.177  0.0877  0.2510  0.4504
  895YOPE   C3A12893   0.368   7.304   7.543  0.1419  0.0676 -0.2994
  895YOPE   C4A12894   0.438   7.087   7.982  0.1366  0.1340  0.1732
  895YOPE   C1B12895   0.058   8.249   6.690  0.0325 -0.0306  0.1081
  895YOPE   C2B12896  -0.090   8.335   7.120  0.1605 -0.1311 -0.0025
  895YOPE   D3B12897  -0.267   8.057   7.526  0.2072 -0.2462  0.0742
  895YOPE   C4B12898  -0.412   8.059   8.046  0.3881  0.1669 -0.1532
  896YOPE   NH312899  14.708  17.191   6.117  0.0988  0.0629 -0.1161
  896YOPE   PO412900  14.460  16.813   6.060 -0.0156 -0.0549 -0.0804
  896YOPE   GL112901  14.354  16.876   6.420  0.0772  0.0433  0.2450
  896YOPE   GL212902  14.239  17.152   6.471  0.1746 -0.3061 -0.2722
  896YOPE   C1A12903  14.518  16.773   6.811  0.0670 -0.0491  0.0738
  896YOPE   D2A12904  14.615  16.777   7.263  0.1566  0.1428  0.0642
  896YOPE   C3A12905  14.380  16.660   7.607  0.0445 -0.3554 -0.0921
  896YOPE   C4A12906  13.889  16.484   7.603 -0.0468  0.3470 -0.0571
  896YOPE   C1B12907  14.246  17.187   6.824  0.2782 -0.1897  0.2999
  896YOPE   C2B12908  14.152  17.337   7.239 -0.1518 -0.1535 -0.2659
  896YOPE   D3B12909  14.257  17.276   7.555 -0.1081  0.0971  0.0484
  896YOPE   C4B12910  14.295  17.358   8.036  0.1964  0.1085  0.1396
  897YOPE   NH312911   8.194   9.958   6.382  0.0672 -0.0953  0.2260
  897YOPE   PO412912   8.653  10.122   6.406 -0.1388 -0.1813  0.3362
  897YOPE   GL112913   8.545   9.878   6.696 -0.0943  0.2475  0.0112
  897YOPE   GL212914   8.296   9.910   6.878  0.1558  0.0168 -0.2422
  897YOPE   C1A12915   8.696   9.752   7.125  0.1116  0.0005  0.3238
  897YOPE   D2A12916   9.103   9.757   7.238 -0.0447  0.1280  0.0880
  897YOPE   C3A12917   9.182   9.676   7.633 -0.1661 -0.0263 -0.0546
  897YOPE   C4A12918   8.867   9.645   7.881  0.1469  0.0094  0.1045
  897YOPE   C1B12919   8.078   9.830   7.191 -0.0172  0.0339  0.0856
  897YOPE   C2B12920   7.955   9.841   7.614 -0.1943  0.0461 -0.4311
  897YOPE   D3B12921   7.818  10.156   7.887  0.1041 -0.1898  0.0578
  897YOPE   C4B12922   7.912  10.447   7.999  0.2226 -0.0230  0.0234
  898YOPE   NH312923  17.607  12.210   5.952  0.0027 -0.0383 -0.0414
  898YOPE   PO412924  17.294  11.938   5.859 -0.5129  0.1342 -0.0651
  898YOPE   GL112925  17.267  12.015   6.303 -0.0750  0.1962  0.0005
  898YOPE   GL212926  17.530  11.866   6.324  0.0141 -0.1208 -0.3041
  898YOPE   C1A12927  17.202  11.963   6.740 -0.2026 -0.0448  0.0891
  898YOPE   D2A12928  17.359  11.930   7.091  0.2437  0.1278  0.3063
  898YOPE   C3A12929  17.240  12.063   7.445 -0.1698  0.2944  0.1620
  898YOPE   C4A12930  17.393  12.361   7.694  0.2423  0.1107 -0.0192
  898YOPE   C1B12931  17.782  11.868   6.706 -0.2564 -0.1858 -0.1472
  898YOPE   C2B12932  17.885  11.754   7.165  0.2426  0.1483 -0.3106
  898YOPE   D3B12933  18.152  11.661   7.557  0.1548 -0.0720 -0.1201
  898YOPE   C4B12934  18.354  11.743   8.029  0.2166  0.2350 -0.0378
  899YOPE   NH312935  13.835   5.190   5.446 -0.1496 -0.0745 -0.0941
  899YOPE   PO412936  13.851   4.843   5.701 -0.1573 -0.0438  0.1652
  899YOPE   GL112937  13.772   4.820   6.135  0.2031  0.0887  0.1709
  899YOPE   GL212938  13.561   4.635   6.330  0.2156 -0.0749 -0.2126
  899YOPE   C1A12939  13.911   4.832   6.670 -0.2209  0.0023 -0.0770
  899YOPE   D2A12940  14.059   4.690   7.010  0.3001 -0.1422 -0.4590
  899YOPE   C3A12941  14.031   4.524   7.427  0.3027 -0.1055 -0.0388
  899YOPE   C4A12942  14.072   4.468   7.854 -0.0274 -0.3732  0.1074
  899YOPE   C1B12943  13.552   4.561   6.691 -0.0513  0.2854  0.0551
  899YOPE   C2B12944  13.482   4.536   7.124  0.1339 -0.0324 -0.1919
  899YOPE   D3B12945  13.558   4.346   7.581  0.0484  0.1048  0.1685
  899YOPE   C4B12946  13.583   4.414   8.018  0.2707 -0.0395  0.1441
  900YOPE   NH312947  16.360  15.225   6.301  0.0702 -0.0131  0.0215
  900YOPE   PO412948  16.220  15.637   6.109  0.1018  0.0587  0.2055
  900YOPE   GL112949  16.493  15.867   6.435 -0.3380  0.2210  0.0537
  900YOPE   GL212950  16.786  15.969   6.483 -0.0129 -0.0125 -0.1967
  900YOPE   C1A12951  16.508  15.788   6.865 -0.1298  0.2262 -0.0166
  900YOPE   D2A12952  16.301  15.871   7.247 -0.0910  0.1319 -0.0476
  900YOPE   C3A12953  15.945  15.909   7.446  0.1873  0.2612 -0.0395
  900YOPE   C4A12954  15.678  16.143   7.746 -0.0962  0.3252  0.2125
  900YOPE   C1B12955  17.002  16.169   6.771 -0.0665  0.0607 -0.0725
  900YOPE   C2B12956  17.169  16.469   7.041  0.0577  0.2286  0.2452
  900YOPE   D3B12957  17.129  16.367   7.430  0.1191  0.0073  0.1905
  900YOPE   C4B12958  17.017  16.301   7.790 -0.1173  0.2034  0.0379
  901YOPE   NH312959   5.476  15.670   6.043 -0.1316 -0.0431 -0.2272
  901YOPE   PO412960   5.161  15.501   6.065  0.2276  0.1704  0.0823
  901YOPE   GL112961   5.077  15.656   6.392  0.1450  0.1409 -0.2255
  901YOPE   GL212962   4.712  15.780   6.512  0.0384 -0.4145  0.1556
  901YOPE   C1A12963   5.112  15.897   6.821  0.2337  0.0637 -0.1092
  901YOPE   D2A12964   5.169  15.920   7.274  0.0289  0.1047  0.0610
  901YOPE   C3A12965   5.386  15.867   7.693 -0.2146 -0.1601 -0.1252
  901YOPE   C4A12966   5.713  15.627   7.986  0.0308  0.1529  0.3241
  901YOPE   C1B12967   4.645  15.825   6.868  0.0169  0.0098 -0.2691
  901YOPE   C2B12968   4.716  15.779   7.271  0.1162  0.1263 -0.0052
  901YOPE   D3B12969   4.904  15.680   7.614  0.1426  0.0653  0.1453
  901YOPE   C4B12970   4.900  15.896   7.927  0.0737 -0.0705 -0.1967
  902YOPE   NH312971  15.882  15.298   6.259  0.0201 -0.0575 -0.3161
  902YOPE   PO412972  15.468  15.488   6.269  0.1508 -0.2529 -0.2467
  902YOPE   GL112973  15.447  15.535   6.599  0.3740 -0.0633  0.0413
  902YOPE   GL212974  15.653  15.269   6.767  0.1384 -0.0462  0.0728
  902YOPE   C1A12975  15.564  15.732   7.015 -0.1767 -0.1196 -0.0530
  902YOPE   D2A12976  15.463  15.627   7.459  0.3588 -0.2767  0.1011
  902YOPE   C3A12977  15.082  15.441   7.699  0.1461  0.1898 -0.0236
  902YOPE   C4A12978  15.072  15.248   8.154 -0.0252 -0.0817 -0.0184
  902YOPE   C1B12979  15.577  14.964   6.965  0.2139  0.0925 -0.0689
  902YOPE   C2B12980  15.679  14.696   7.346 -0.0557  0.1039 -0.2977
  902YOPE   D3B12981  15.884  14.627   7.727  0.0966  0.1652 -0.1565
  902YOPE   C4B12982  16.055  14.506   8.046 -0.2639  0.0271 -0.1415
  903YOPE   NH312983  16.140   6.160   5.516  0.0570  0.0320 -0.1023
  903YOPE   PO412984  16.508   5.977   5.422  0.2288  0.1087  0.1272
  903YOPE   GL112985  16.536   5.990   5.821  0.0271  0.1027 -0.0225
  903YOPE   GL212986  16.542   6.400   5.816  0.2057  0.0334  0.0270
  903YOPE   C1A12987  16.644   5.887   6.206 -0.1961 -0.1593  0.3511
  903YOPE   D2A12988  16.586   5.630   6.485 -0.1267 -0.2931 -0.0213
  903YOPE   C3A12989  16.646   5.682   6.853 -0.0234  0.1023 -0.2319
  903YOPE   C4A12990  16.745   5.631   7.229 -0.2284  0.3776 -0.0847
  903YOPE   C1B12991  16.514   6.368   6.307 -0.1063  0.1528 -0.0831
  903YOPE   C2B12992  16.571   6.197   6.759  0.0339  0.2559  0.2934
  903YOPE   D3B12993  16.450   6.065   7.104 -0.0763 -0.3602 -0.1310
  903YOPE   C4B12994  16.411   6.059   7.505  0.0229 -0.1857  0.1139
  904YOPE   NH312995   3.123  14.131   6.010  0.0373 -0.0516  0.1180
  904YOPE   PO412996   3.383  14.272   6.272  0.0287 -0.0971 -0.1421
  904YOPE   GL112997   3.387  14.284   6.665  0.1104 -0.1990  0.4603
  904YOPE   GL212998   3.171  14.590   6.663 -0.0969 -0.2388 -0.4167
  904YOPE   C1A12999   3.463  14.257   7.049  0.1039 -0.0469  0.2349
  904YOPE   D2A13000   3.447  14.185   7.430 -0.0757 -0.0615 -0.1369
  904YOPE   C3A13001   3.665  13.916   7.681  0.0185 -0.2489  0.1774
  904YOPE   C4A13002   3.850  13.569   7.658 -0.0983 -0.2857 -0.0243
  904YOPE   C1B13003   3.080  14.624   7.015  0.0794 -0.1213  0.1415
  904YOPE   C2B13004   3.143  14.568   7.450 -0.3208 -0.0930 -0.2410
  904YOPE   D3B13005   3.318  14.296   7.877  0.1704 -0.0749 -0.1326
  904YOPE   C4B13006   3.298  14.129   8.268 -0.3907  0.3294  0.0696
  905YOPE   NH313007   9.227   1.656   5.421  0.2745 -0.1874  0.0044
  905YOPE   PO413008   8.783   1.691   5.700 -0.2707 -0.1852 -0.1760
  905YOPE   GL113009   8.738   1.963   6.118  0.0569 -0.0632 -0.2058
  905YOPE   GL213010   8.672   1.654   6.236 -0.0566 -0.2728 -0.1267
  905YOPE   C1A13011   8.754   2.042   6.597  0.0048 -0.0280  0.1764
  905YOPE   D2A13012   8.534   1.980   7.043  0.1011  0.2396  0.1585
  905YOPE   C3A13013   8.604   2.113   7.428  0.2807  0.0529 -0.0555
  905YOPE   C4A13014   8.370   1.940   7.852 -0.0247  0.3007 -0.1919
  905YOPE   C1B13015   8.573   1.487   6.582  0.0418 -0.1997  0.2520
  905YOPE   C2B13016   8.753   1.312   6.974  0.0000  0.0572 -0.1042
  905YOPE   D3B13017   8.563   1.219   7.424 -0.1703  0.0575  0.0092
  905YOPE   C4B13018   8.295   1.394   7.762 -0.1540  0.1745 -0.0574
  906YOPE   NH313019   3.653  12.296   6.244  0.1961 -0.3611  0.0588
  906YOPE   PO413020   3.639  12.678   6.113 -0.1380  0.0427 -0.1621
  906YOPE   GL113021   3.650  12.701   6.591  0.0466  0.2098 -0.0497
  906YOPE   GL213022   3.832  13.004   6.591 -0.1853  0.3373  0.1204
  906YOPE   C1A13023   3.593  12.909   7.007  0.0913 -0.1711  0.2947
  906YOPE   D2A13024   3.581  12.973   7.327  0.0169  0.0745  0.1378
  906YOPE   C3A13025   3.508  13.351   7.412 -0.0449 -0.0211 -0.0990
  906YOPE   C4A13026   3.245  13.743   7.377  0.1103  0.1691 -0.4990
  906YOPE   C1B13027   4.014  13.150   6.939 -0.2439 -0.1124  0.0308
  906YOPE   C2B13028   4.185  13.183   7.291 -0.0493  0.0167  0.0624
  906YOPE   D3B13029   4.090  13.077   7.724  0.4475 -0.0049  0.0581
  906YOPE   C4B13030   4.037  13.256   8.062 -0.0306 -0.1350  0.0928
  907YOPE   NH313031  12.454   4.452   5.828  0.2346 -0.0736 -0.1431
  907YOPE   PO413032  12.106   4.680   5.734 -0.1372 -0.2495  0.0057
  907YOPE   GL113033  12.152   4.726   6.182 -0.1675 -0.1666  0.1604
  907YOPE   GL213034  12.127   5.056   6.350 -0.1588  0.0340  0.1425
  907YOPE   C1A13035  12.184   4.658   6.571  0.1608 -0.1504 -0.0064
  907YOPE   D2A13036  12.042   4.486   6.918 -0.1595 -0.1066 -0.1812
  907YOPE   C3A13037  12.136   4.531   7.460  0.1611 -0.2616 -0.3150
  907YOPE   C4A13038  12.184   4.630   7.934 -0.0642  0.3408 -0.2147
  907YOPE   C1B13039  11.837   5.449   6.493  0.1726  0.0242  0.0151
  907YOPE   C2B13040  11.779   5.776   6.856 -0.0906  0.1106 -0.0273
  907YOPE   D3B13041  11.943   5.794   7.279  0.0402  0.1728 -0.1391
  907YOPE   C4B13042  12.172   5.529   7.496 -0.1410  0.0280 -0.0641
  908YOPE   NH313043   3.710   7.041   6.013 -0.3336 -0.0396  0.0182
  908YOPE   PO413044   3.595   7.422   6.047  0.0407 -0.3417 -0.0399
  908YOPE   GL113045   3.540   7.656   6.453 -0.0217  0.1712 -0.3075
  908YOPE   GL213046   3.777   7.837   6.610 -0.0266  0.3172 -0.1097
  908YOPE   C1A13047   3.389   7.834   6.905  0.1030  0.3249  0.0827
  908YOPE   D2A13048   3.170   7.862   7.357 -0.1740 -0.2651  0.0501
  908YOPE   C3A13049   3.115   7.448   7.534  0.0187 -0.1568  0.1122
  908YOPE   C4A13050   3.225   7.192   7.939  0.0995 -0.1223 -0.0468
  908YOPE   C1B13051   3.787   7.388   6.808 -0.2936 -0.1264  0.0255
  908YOPE   C2B13052   3.564   7.329   7.185  0.0357 -0.1144 -0.0201
  908YOPE   D3B13053   3.556   7.261   7.637 -0.2969 -0.1530 -0.1104
  908YOPE   C4B13054   3.669   7.415   8.074  0.0637 -0.0427 -0.4368
  909YOPE   NH313055   1.704  17.949   6.060 -0.0962 -0.0073 -0.0428
  909YOPE   PO413056   1.884  18.371   5.983  0.2296 -0.0858 -0.3318
  909YOPE   GL113057   1.702  18.322   6.423 -0.2458  0.1927 -0.1033
  909YOPE   GL213058   1.765  18.066   6.533 -0.1111  0.0014 -0.2390
  909YOPE   C1A13059   1.685  18.518   6.854  0.0584  0.2417  0.0870
  909YOPE   D2A13060   1.591  18.661   7.298 -0.1218  0.0776  0.2239
  909YOPE   C3A13061   1.909  18.900   7.464 -0.1595  0.0015 -0.0277
  909YOPE   C4A13062   2.284  19.155   7.599  0.0531  0.0560  0.0786
  909YOPE   C1B13063   1.780  18.090   6.989  0.0699 -0.1511  0.3502
  909YOPE   C2B13064   1.666  18.179   7.369 -0.1365  0.2433 -0.0399
  909YOPE   D3B13065   1.962  18.414   7.568 -0.1347 -0.1517 -0.2357
  909YOPE   C4B13066   2.055  18.642   7.871  0.0026  0.2029 -0.0452
  910YOPE   NH313067   5.626   3.263   5.676  0.0333 -0.1192 -0.0598
  910YOPE   PO413068   5.939   3.250   5.780  0.0262 -0.1492 -0.1381
  910YOPE   GL113069   5.885   3.288   6.243  0.3051  0.0318 -0.1773
  910YOPE   GL213070   6.127   3.043   6.271 -0.1444  0.3327  0.1328
  910YOPE   C1A13071   5.816   3.406   6.633 -0.2846  0.0847 -0.0323
  910YOPE   D2A13072   5.658   3.337   6.991 -0.3840 -0.1271  0.4007
  910YOPE   C3A13073   5.606   3.606   7.309  0.0520  0.0568 -0.1548
  910YOPE   C4A13074   5.640   3.650   7.707 -0.2892 -0.1453 -0.0095
  910YOPE   C1B13075   6.085   3.042   6.834  0.0546 -0.3762  0.1665
  910YOPE   C2B13076   5.950   2.981   7.251 -0.3097 -0.1438  0.2347
  910YOPE   D3B13077   5.982   3.228   7.687 -0.1382  0.2014 -0.2766
  910YOPE   C4B13078   5.856   3.429   8.130 -0.2553 -0.1110  0.1263
  911YOPE   NH313079   1.280  12.288   5.521  0.0533 -0.2740 -0.0384
  911YOPE   PO413080   0.834  12.134   5.544  0.3184  0.0536  0.3474
  911YOPE   GL113081   1.043  12.152   6.015  0.0446 -0.4637 -0.1164
  911YOPE   GL213082   1.247  12.416   6.095 -0.3035  0.1536 -0.0127
  911YOPE   C1A13083   1.009  12.203   6.476 -0.1823  0.0431 -0.0263
  911YOPE   D2A13084   0.914  12.231   6.952  0.1516  0.0930 -0.1702
  911YOPE   C3A13085   0.671  11.970   7.211  0.1909 -0.1316 -0.1167
  911YOPE   C4A13086   0.496  11.895   7.642 -0.0113 -0.4589 -0.1772
  911YOPE   C1B13087   1.531  12.298   6.441 -0.1781 -0.0751 -0.0092
  911YOPE   C2B13088   1.608  12.386   6.887 -0.3703  0.2794  0.0311
  911YOPE   D3B13089   1.648  12.445   7.347 -0.0657  0.2447  0.1397
  911YOPE   C4B13090   1.657  12.131   7.731 -0.1095 -0.4997  0.0595
  912YOPE   NH313091   8.602   6.743   5.799 -0.0938 -0.0610 -0.2623
  912YOPE   PO413092   9.060   6.694   5.520  0.2316  0.3013  0.0280
  912YOPE   GL113093   9.130   6.751   5.964  0.0990 -0.0147 -0.1698
  912YOPE   GL213094   9.288   7.094   6.018 -0.1502 -0.1205 -0.2325
  912YOPE   C1A13095   9.129   6.542   6.337  0.0870 -0.1813  0.1275
  912YOPE   D2A13096   8.946   6.138   6.602  0.3138 -0.0279  0.2865
  912YOPE   C3A13097   9.276   5.894   6.792  0.1201  0.2550  0.1967
  912YOPE   C4A13098   9.642   5.784   6.989 -0.0823 -0.0120 -0.2398
  912YOPE   C1B13099   9.293   6.989   6.425  0.2186  0.3390  0.1433
  912YOPE   C2B13100   9.096   6.972   6.778  0.1384  0.1166  0.0385
  912YOPE   D3B13101   9.190   6.926   7.193 -0.2383 -0.2414  0.1600
  912YOPE   C4B13102   9.299   7.206   7.362  0.0604 -0.3288  0.1203
  913YOPE   NH313103   5.918   1.830   6.358  0.0838  0.0178 -0.2845
  913YOPE   PO413104   6.132   2.229   6.381 -0.3172  0.2342 -0.0100
  913YOPE   GL113105   5.893   2.096   6.793  0.0272 -0.1844  0.1035
  913YOPE   GL213106   5.648   2.109   6.909  0.2358 -0.3343 -0.1335
  913YOPE   C1A13107   5.637   1.704   7.089 -0.2130  0.0144 -0.2871
  913YOPE   D2A13108   5.657   1.601   7.516  0.0853 -0.1531  0.1992
  913YOPE   C3A13109   5.702   1.959   7.713  0.2134  0.2182 -0.1058
  913YOPE   C4A13110   5.622   2.383   7.963 -0.0624  0.0357 -0.0299
  913YOPE   C1B13111   5.529   2.120   7.314 -0.1797  0.3189  0.3389
  913YOPE   C2B13112   5.257   2.168   7.683  0.3010 -0.2094 -0.0243
  913YOPE   D3B13113   5.311   2.003   8.103  0.2474  0.0746  0.0812
  913YOPE   C4B13114   5.604   1.871   8.261  0.2096 -0.1569 -0.1169
  914YOPE   NH313115  13.356  18.012   5.825  0.0935 -0.0968  0.1571
  914YOPE   PO413116  13.476  17.657   5.998 -0.1275 -0.1389 -0.3054
  914YOPE   GL113117  13.279  17.686   6.424  0.1887 -0.0748 -0.1384
  914YOPE   GL213118  13.452  17.487   6.665 -0.0352 -0.0304  0.1269
  914YOPE   C1A13119  12.996  17.697   6.856  0.0915  0.0237  0.3021
  914YOPE   D2A13120  12.608  17.560   7.076  0.1477  0.0663  0.1899
  914YOPE   C3A13121  12.482  17.799   7.383  0.0431 -0.1436 -0.1703
  914YOPE   C4A13122  12.325  18.136   7.601  0.1848 -0.2563 -0.0365
  914YOPE   C1B13123  13.377  17.446   7.155  0.1306  0.0126 -0.1280
  914YOPE   C2B13124  13.675  17.490   7.495 -0.3281  0.0701 -0.0602
  914YOPE   D3B13125  13.447  17.590   7.880 -0.1866  0.0070  0.0373
  914YOPE   C4B13126  13.127  17.765   8.128  0.0883 -0.0821  0.0231
  915YOPE   NH313127   3.139   7.549   6.154  0.4340  0.0531  0.1117
  915YOPE   PO413128   2.927   7.925   6.230  0.1780  0.1659  0.1071
  915YOPE   GL113129   3.179   7.996   6.468 -0.1711 -0.0979 -0.3127
  915YOPE   GL213130   3.289   8.412   6.448 -0.2547  0.1292  0.3950
  915YOPE   C1A13131   3.115   8.227   6.935  0.1436  0.3069  0.3667
  915YOPE   D2A13132   2.981   8.341   7.460  0.0746  0.1308 -0.0271
  915YOPE   C3A13133   3.045   8.139   7.789 -0.1946  0.1354  0.0384
  915YOPE   C4A13134   2.925   7.810   7.997 -0.0577  0.0693 -0.0433
  915YOPE   C1B13135   3.630   8.306   6.714  0.1795 -0.3495  0.1392
  915YOPE   C2B13136   3.632   8.156   7.151 -0.0030 -0.1955  0.1741
  915YOPE   D3B13137   4.012   8.093   7.455  0.2681 -0.1845  0.1490
  915YOPE   C4B13138   4.287   8.179   7.225 -0.0748 -0.1471 -0.2895
  916YOPE   NH313139  11.523  12.559   6.053 -0.1192 -0.1681  0.1587
  916YOPE   PO413140  11.069  12.745   6.203  0.1084  0.3016 -0.2761
  916YOPE   GL113141  11.291  12.657   6.545  0.0827  0.1247 -0.0967
  916YOPE   GL213142  11.345  12.348   6.607 -0.1935  0.1206 -0.0241
  916YOPE   C1A13143  11.146  12.567   7.002  0.0132  0.0055 -0.1709
  916YOPE   D2A13144  11.183  12.346   7.365  0.0323  0.0866  0.3218
  916YOPE   C3A13145  11.290  12.295   7.809 -0.0225 -0.0187 -0.1097
  916YOPE   C4A13146  11.385  12.094   8.173 -0.0856 -0.0583  0.2994
  916YOPE   C1B13147  11.280  12.072   6.911  0.2258 -0.0127 -0.2390
  916YOPE   C2B13148  11.131  11.887   7.313  0.2449  0.1470 -0.1480
  916YOPE   D3B13149  11.076  11.503   7.534 -0.2068 -0.0969 -0.1049
  916YOPE   C4B13150  11.033  11.212   7.770 -0.0047  0.1441 -0.0889
  917YOPE   NH313151  11.489   1.988   5.985 -0.1838 -0.0049 -0.2850
  917YOPE   PO413152  11.315   2.264   5.612 -0.0305 -0.0847 -0.0023
  917YOPE   GL113153  11.114   2.401   6.041  0.0681  0.0488  0.0183
  917YOPE   GL213154  11.145   2.695   6.046 -0.3283  0.3059 -0.0947
  917YOPE   C1A13155  11.195   2.370   6.498  0.1678  0.3763  0.1726
  917YOPE   D2A13156  11.317   2.519   6.889 -0.0097 -0.0626  0.1264
  917YOPE   C3A13157  11.539   2.408   7.133 -0.0360  0.0132  0.1228
  917YOPE   C4A13158  11.599   2.203   7.497 -0.0005 -0.1414 -0.2075
  917YOPE   C1B13159  11.122   2.941   6.351  0.2533 -0.0133  0.2446
  917YOPE   C2B13160  11.173   2.989   6.783  0.2986 -0.0089  0.1144
  917YOPE   D3B13161  11.310   2.958   7.238  0.0448 -0.1993  0.2506
  917YOPE   C4B13162  11.524   2.848   7.585  0.1555  0.2084  0.0575
  918YOPE   NH313163  17.499   4.884   5.841  0.0757  0.0405  0.0318
  918YOPE   PO413164  17.873   5.180   5.793  0.3719 -0.0308 -0.0135
  918YOPE   GL113165  17.594   5.230   6.179 -0.1721 -0.1450 -0.0568
  918YOPE   GL213166  17.678   5.494   6.238  0.0096  0.1955 -0.1026
  918YOPE   C1A13167  17.714   5.174   6.563  0.0787  0.1950  0.1159
  918YOPE   D2A13168  17.959   4.866   6.805  0.0203  0.0752 -0.2659
  918YOPE   C3A13169  17.925   4.935   7.196  0.3140 -0.1257  0.2284
  918YOPE   C4A13170  17.760   5.305   7.449 -0.0374 -0.3079  0.0537
  918YOPE   C1B13171  17.711   5.669   6.612  0.0737 -0.0188 -0.2177
  918YOPE   C2B13172  17.850   5.545   7.021 -0.0362 -0.3045 -0.2340
  918YOPE   D3B13173  18.191   5.341   7.179 -0.1037 -0.2742  0.2178
  918YOPE   C4B13174  18.575   5.430   7.453  0.2196  0.3090 -0.0125
  919YOPE   NH313175   5.139   2.933   6.162 -0.0730  0.1397 -0.0061
  919YOPE   PO413176   4.707   3.101   6.133 -0.3632  0.1535 -0.3933
  919YOPE   GL113177   4.462   3.126   6.451 -0.1972 -0.0660  0.0772
  919YOPE   GL213178   4.637   3.078   6.752  0.0673  0.0291  0.0766
  919YOPE   C1A13179   3.940   2.990   6.606 -0.1271 -0.0698 -0.0519
  919YOPE   D2A13180   3.792   3.146   7.001  0.0433  0.2845  0.0348
  919YOPE   C3A13181   3.428   3.091   7.110  0.3449  0.1142 -0.1409
  919YOPE   C4A13182   3.313   2.718   7.190 -0.1114  0.0981  0.0492
  919YOPE   C1B13183   4.768   3.010   7.137  0.1845 -0.3521  0.0057
  919YOPE   C2B13184   4.881   3.066   7.515 -0.3711 -0.2448  0.2377
  919YOPE   D3B13185   5.008   3.127   7.881 -0.1963  0.0953 -0.0297
  919YOPE   C4B13186   5.091   2.956   8.256 -0.0815  0.0250 -0.1048
  920YOPE   NH313187  11.539  10.685   6.147 -0.0321 -0.0237 -0.0249
  920YOPE   PO413188  11.246  10.435   6.328  0.0280  0.3073 -0.0711
  920YOPE   GL113189  11.131  10.268   6.650  0.2723 -0.0376  0.2287
  920YOPE   GL213190  11.323  10.145   6.816 -0.0340 -0.1768  0.4259
  920YOPE   C1A13191  10.930  10.173   7.128 -0.2165  0.1845  0.2187
  920YOPE   D2A13192  10.925  10.102   7.523  0.1240  0.0317  0.1244
  920YOPE   C3A13193  10.898   9.844   7.899  0.3328 -0.0033  0.0441
  920YOPE   C4A13194  10.901   9.490   8.020 -0.5282  0.0025  0.0077
  920YOPE   C1B13195  11.390  10.174   7.266 -0.2598  0.0109  0.2298
  920YOPE   C2B13196  11.477  10.165   7.679 -0.2750  0.1100 -0.0288
  920YOPE   D3B13197  11.328   9.900   8.037 -0.0683 -0.0469  0.0165
  920YOPE   C4B13198  11.342   9.656   8.337  0.2334  0.0583  0.3278
  921YOPE   NH313199  17.955  18.022   5.973  0.0879 -0.1384 -0.0144
  921YOPE   PO413200  18.365  18.108   5.912  0.0289  0.3959  0.0562
  921YOPE   GL113201  18.331  18.218   6.336 -0.2839  0.0686 -0.0611
  921YOPE   GL213202  18.057  18.440   6.370 -0.2035  0.0309  0.1675
  921YOPE   C1A13203  18.210  18.183   6.797  0.2044  0.4713  0.1741
  921YOPE   D2A13204  18.235  18.228   7.238 -0.0740  0.1524 -0.3883
  921YOPE   C3A13205  18.224  18.518   7.578 -0.0130 -0.0870  0.0910
  921YOPE   C4A13206  18.029  18.655   7.946  0.0483 -0.0314 -0.1340
  921YOPE   C1B13207  18.201  18.708   6.691 -0.2099  0.2216 -0.1054
  921YOPE   C2B13208  18.214  18.757   7.128  0.1110  0.1269 -0.0732
  921YOPE   D3B13209  18.314  19.023   7.433  0.1500 -0.0063 -0.2242
  921YOPE   C4B13210  18.421  19.068   7.832 -0.2580  0.2039 -0.0090
  922YOPE   NH313211  12.495   3.029   5.249  0.2282 -0.1643 -0.1661
  922YOPE   PO413212  12.417   3.351   5.572 -0.1931 -0.0440  0.1273
  922YOPE   GL113213  12.379   3.262   5.943  0.2941  0.2333 -0.0890
  922YOPE   GL213214  12.156   3.034   5.884 -0.2075 -0.1424  0.0600
  922YOPE   C1A13215  12.161   3.115   6.371 -0.0031 -0.2921  0.1608
  922YOPE   D2A13216  12.223   3.053   6.836 -0.2559 -0.0168 -0.2407
  922YOPE   C3A13217  12.330   2.852   7.161  0.0074 -0.2409  0.1141
  922YOPE   C4A13218  12.703   2.690   7.438  0.1372  0.1038  0.1155
  922YOPE   C1B13219  11.802   2.883   6.130  0.1950 -0.0909 -0.3128
  922YOPE   C2B13220  11.601   2.644   6.451  0.3048 -0.0467 -0.0677
  922YOPE   D3B13221  11.647   2.238   6.639  0.0852 -0.5777  0.2037
  922YOPE   C4B13222  11.697   1.942   6.975 -0.0155 -0.1467 -0.2657
  923YOPE   NH313223   0.411   3.352   5.919  0.1752  0.0492  0.1608
  923YOPE   PO413224   0.198   3.030   5.770  0.0536  0.2528 -0.0631
  923YOPE   GL113225  -0.046   3.200   6.222 -0.1538  0.1998  0.2887
  923YOPE   GL213226   0.134   3.383   6.360  0.3450 -0.0549 -0.1892
  923YOPE   C1A13227  -0.332   3.484   6.500 -0.0985  0.2468 -0.2535
  923YOPE   D2A13228  -0.739   3.632   6.580  0.0947 -0.3660 -0.0314
  923YOPE   C3A13229  -0.830   3.632   6.978 -0.3904 -0.1062 -0.1973
  923YOPE   C4A13230  -0.648   3.659   7.351  0.0234  0.0044 -0.0774
  923YOPE   C1B13231  -0.092   3.098   6.712 -0.1033  0.0797  0.1294
  923YOPE   C2B13232  -0.104   2.986   7.090  0.1798  0.0195  0.3456
  923YOPE   D3B13233  -0.085   3.031   7.510  0.1154 -0.1075 -0.1938
  923YOPE   C4B13234  -0.053   2.823   7.905 -0.0928 -0.1444 -0.1794
  924YOPE   NH313235   0.295  11.848   5.768  0.4417 -0.3852 -0.0015
  924YOPE   PO413236  -0.039  12.208   5.734 -0.0224 -0.3011  0.0731
  924YOPE   GL113237   0.165  12.308   6.104 -0.2164  0.0826 -0.0405
  924YOPE   GL213238   0.507  12.330   6.141 -0.1822 -0.1758  0.0042
  924YOPE   C1A13239  -0.007  12.461   6.508  0.0002 -0.0018 -0.1739
  924YOPE   D2A13240  -0.070  12.272   6.919  0.1515 -0.2016  0.0304
  924YOPE   C3A13241  -0.323  12.220   7.346 -0.0832 -0.3937 -0.3111
  924YOPE   C4A13242  -0.376  11.962   7.648 -0.1851  0.1029 -0.1906
  924YOPE   C1B13243   0.547  12.248   6.567  0.1146 -0.0090  0.0617
  924YOPE   C2B13244   0.427  12.333   6.953  0.2216 -0.1952  0.0518
  924YOPE   D3B13245   0.181  12.108   7.309  0.2935  0.1450  0.1343
  924YOPE   C4B13246   0.065  12.123   7.711  0.0344  0.1356  0.0122
  925YOPE   NH313247   0.789  14.963   6.122 -0.2397 -0.0236 -0.0297
  925YOPE   PO413248   1.315  14.901   6.157  0.0142  0.0006  0.0018
  925YOPE   GL113249   1.279  15.154   6.424 -0.1133 -0.0632  0.2287
  925YOPE   GL213250   1.036  15.261   6.493 -0.0376 -0.0923  0.1627
  925YOPE   C1A13251   1.400  15.307   6.871  0.2015 -0.3437  0.1953
  925YOPE   D2A13252   1.477  15.600   7.260  0.1315  0.0582 -0.2081
  925YOPE   C3A13253   1.459  15.415   7.591  0.1374 -0.1708  0.2387
  925YOPE   C4A13254   1.617  15.291   7.982 -0.1086  0.2364  0.1157
  925YOPE   C1B13255   0.895  15.513   6.757  0.0544  0.0373 -0.0983
  925YOPE   C2B13256   0.822  15.685   7.115 -0.1753  0.0978  0.1612
  925YOPE   D3B13257   1.015  15.679   7.532 -0.0871  0.0889 -0.3024
  925YOPE   C4B13258   1.162  15.742   7.888  0.0718  0.0569 -0.1873
  926YOPE   NH313259   9.342  13.583   6.066  0.2241  0.1334 -0.1800
  926YOPE   PO413260   8.984  13.376   5.958  0.2707  0.0773  0.0537
  926YOPE   GL113261   9.124  13.364   6.419  0.0314  0.1913  0.0414
  926YOPE   GL213262   9.147  13.613   6.565  0.1989  0.1964  0.3041
  926YOPE   C1A13263   9.005  13.123   6.735 -0.0534  0.2674 -0.1794
  926YOPE   D2A13264   8.576  13.151   6.840 -0.2393 -0.1383  0.0828
  926YOPE   C3A13265   8.314  12.977   6.622  0.3153  0.3754 -0.0966
  926YOPE   C4A13266   7.905  12.970   6.434 -0.2215  0.2808  0.1200
  926YOPE   C1B13267   9.099  13.756   6.959  0.2412  0.1877 -0.1762
  926YOPE   C2B13268   9.089  13.838   7.378 -0.0071  0.1066  0.1184
  926YOPE   D3B13269   9.032  13.955   7.821 -0.0176  0.2715  0.1924
  926YOPE   C4B13270   8.958  13.941   8.266 -0.0031  0.2217 -0.0786
  927YOPE   NH313271  12.146  11.829   5.915 -0.4271  0.0007  0.1922
  927YOPE   PO413272  12.257  11.436   5.886  0.2750  0.3629  0.0530
  927YOPE   GL113273  12.274  11.444   6.291  0.2800 -0.0329 -0.3594
  927YOPE   GL213274  12.550  11.408   6.394  0.1319  0.0144 -0.0913
  927YOPE   C1A13275  12.212  11.658   6.694 -0.0249 -0.0305  0.2358
  927YOPE   D2A13276  12.339  11.706   7.064 -0.1591  0.1837 -0.1445
  927YOPE   C3A13277  12.430  11.709   7.548 -0.0129  0.3105 -0.2667
  927YOPE   C4A13278  12.307  11.640   7.926 -0.3404  0.4828  0.1183
  927YOPE   C1B13279  12.711  11.509   6.796  0.2048 -0.0066  0.1252
  927YOPE   C2B13280  12.719  11.406   7.253 -0.0301 -0.2750 -0.0517
  927YOPE   D3B13281  12.793  11.375   7.621 -0.0956 -0.0974 -0.1670
  927YOPE   C4B13282  12.723  11.330   8.081  0.2759  0.2372  0.0000
  928YOPE   NH313283   7.005  12.998   6.030 -0.0870 -0.0740 -0.2062
  928YOPE   PO413284   6.712  12.705   5.832 -0.4377  0.0972  0.2733
  928YOPE   GL113285   6.481  12.911   6.137  0.0680 -0.3312  0.0040
  928YOPE   GL213286   6.723  13.071   6.434  0.0437 -0.0545 -0.0020
  928YOPE   C1A13287   6.192  12.950   6.510 -0.2534  0.2722  0.1246
  928YOPE   D2A13288   5.956  12.781   6.748 -0.1017  0.0845 -0.0164
  928YOPE   C3A13289   6.074  12.860   7.206 -0.0207  0.0129 -0.2847
  928YOPE   C4A13290   5.973  12.994   7.602 -0.7799  0.0724  0.0569
  928YOPE   C1B13291   6.683  13.029   6.843  0.3490  0.0602  0.1422
  928YOPE   C2B13292   6.674  13.057   7.214 -0.0956  0.0432 -0.0631
  928YOPE   D3B13293   6.506  13.032   7.663 -0.2849  0.2780  0.2332
  928YOPE   C4B13294   6.658  12.705   7.938 -0.0684 -0.0668 -0.1188
  929YOPE   NH313295  11.671   9.643   5.969  0.0075  0.1782 -0.1829
  929YOPE   PO413296  12.094   9.844   6.041  0.0920 -0.3121  0.1835
  929YOPE   GL113297  11.986   9.947   6.491 -0.0184 -0.1007  0.2291
  929YOPE   GL213298  11.776   9.701   6.490  0.0680 -0.1770  0.0509
  929YOPE   C1A13299  12.177   9.910   6.860  0.0396 -0.2061 -0.0636
  929YOPE   D2A13300  12.239   9.831   7.277 -0.0770  0.0037 -0.3088
  929YOPE   C3A13301  12.243   9.641   7.671 -0.0699  0.0717  0.1973
  929YOPE   C4A13302  12.293   9.325   7.983 -0.0683 -0.1344 -0.1568
  929YOPE   C1B13303  11.784   9.667   6.902  0.1782  0.2223 -0.0861
  929YOPE   C2B13304  11.772   9.797   7.331 -0.2954 -0.0014 -0.2391
  929YOPE   D3B13305  11.763   9.806   7.815 -0.2492  0.0013  0.2161
  929YOPE   C4B13306  11.759  10.121   8.199 -0.1172 -0.0229 -0.0766
  930YOPE   NH313307  13.161  14.100   5.959  0.1190 -0.3617  0.1850
  930YOPE   PO413308  13.445  14.427   6.012  0.0634 -0.2357  0.1229
  930YOPE   GL113309  13.471  14.493   6.418  0.0549  0.2341  0.1567
  930YOPE   GL213310  13.146  14.303   6.538 -0.1267 -0.1517 -0.2084
  930YOPE   C1A13311  13.640  14.388   6.733  0.0264 -0.2993 -0.2217
  930YOPE   D2A13312  13.595  14.384   7.140 -0.1069  0.1514  0.1555
  930YOPE   C3A13313  13.839  14.327   7.544  0.0134 -0.1325  0.3991
  930YOPE   C4A13314  14.054  13.996   7.738  0.3477 -0.3984 -0.0088
  930YOPE   C1B13315  13.092  14.455   6.881 -0.1745  0.0273  0.0626
  930YOPE   C2B13316  13.094  14.398   7.250  0.0368  0.1961 -0.0012
  930YOPE   D3B13317  13.411  14.501   7.633  0.1293 -0.1092  0.0658
  930YOPE   C4B13318  13.556  14.208   7.979 -0.0060 -0.1939  0.0515
  931YOPE   NH313319  11.220   0.212   5.625  0.0876 -0.2691  0.1337
  931YOPE   PO413320  11.526   0.035   5.941 -0.0648 -0.1658 -0.1077
  931YOPE   GL113321  11.545  -0.119   6.276  0.0939 -0.1245  0.4009
  931YOPE   GL213322  11.467  -0.375   6.245  0.1178  0.0351 -0.1853
  931YOPE   C1A13323  11.453  -0.171   6.694  0.0680  0.3340  0.2029
  931YOPE   D2A13324  11.175  -0.045   6.866 -0.1501 -0.1081  0.0870
  931YOPE   C3A13325  11.272  -0.007   7.255 -0.0212  0.2082  0.0277
  931YOPE   C4A13326  11.341  -0.013   7.656 -0.0301 -0.2026 -0.1339
  931YOPE   C1B13327  11.458  -0.698   6.561  0.0852  0.1462 -0.0599
  931YOPE   C2B13328  11.362  -0.798   6.994  0.0094 -0.1243 -0.1401
  931YOPE   D3B13329  11.118  -0.902   7.428  0.1727  0.3077  0.0909
  931YOPE   C4B13330  11.100  -0.937   7.903  0.1992 -0.0276  0.0684
  932YOPE   NH313331   8.529   0.125   5.331 -0.1954 -0.2073 -0.1781
  932YOPE   PO413332   8.736   0.432   5.617 -0.0213 -0.1170 -0.0670
  932YOPE   GL113333   9.154   0.280   5.734  0.2142  0.0797  0.0508
  932YOPE   GL213334   9.430   0.471   5.756  0.0529  0.0013 -0.1017
  932YOPE   C1A13335   9.217   0.375   6.199  0.1501  0.1601  0.0537
  932YOPE   D2A13336   9.137   0.537   6.587  0.0465 -0.3404 -0.1511
  932YOPE   C3A13337   9.274   0.456   6.952  0.0564 -0.3947 -0.0058
  932YOPE   C4A13338   9.202   0.675   7.329 -0.0612 -0.0178 -0.2884
  932YOPE   C1B13339   9.560   0.650   6.104 -0.0004 -0.1265  0.1066
  932YOPE   C2B13340   9.580   0.788   6.520 -0.1868  0.2329 -0.0979
  932YOPE   D3B13341   9.611   0.824   6.975 -0.0049  0.0148 -0.1294
  932YOPE   C4B13342   9.622   0.910   7.396  0.1067  0.0370 -0.1572
  933YOPE   NH313343  12.958   5.215   5.834  0.1399  0.0161 -0.1394
  933YOPE   PO413344  12.587   5.566   5.748 -0.0210 -0.1963  0.0442
  933YOPE   GL113345  12.356   5.460   6.084 -0.0952  0.0678 -0.0152
  933YOPE   GL213346  12.089   5.688   6.103  0.0311  0.2950  0.1710
  933YOPE   C1A13347  12.465   5.392   6.430  0.0711  0.1157 -0.0261
  933YOPE   D2A13348  12.227   5.486   6.798  0.0044 -0.3872 -0.1885
  933YOPE   C3A13349  12.254   5.928   6.856  0.1358  0.2595  0.1094
  933YOPE   C4A13350  12.470   6.185   6.580  0.1634 -0.1705 -0.0004
  933YOPE   C1B13351  12.027   5.954   6.441  0.4692  0.1440 -0.0719
  933YOPE   C2B13352  11.713   6.286   6.698  0.1060  0.0624 -0.0930
  933YOPE   D3B13353  11.682   6.277   7.105  0.2458 -0.2775 -0.4012
  933YOPE   C4B13354  11.680   6.240   7.609 -0.2499 -0.0310  0.3049
  934YOPE   NH313355  12.068  18.016   6.102  0.2172 -0.2357  0.1466
  934YOPE   PO413356  12.154  18.363   5.852 -0.0679  0.1295  0.3379
  934YOPE   GL113357  12.473  18.300   6.283 -0.1503  0.0828  0.1548
  934YOPE   GL213358  12.723  18.174   6.222 -0.0707 -0.0626  0.0177
  934YOPE   C1A13359  12.522  18.228   6.728  0.0924 -0.1560  0.0115
  934YOPE   D2A13360  12.497  18.277   7.110 -0.1745 -0.3301 -0.2558
  934YOPE   C3A13361  12.721  18.433   7.466  0.1309  0.0677  0.0185
  934YOPE   C4A13362  12.889  18.638   7.819 -0.0118  0.0398  0.1732
  934YOPE   C1B13363  13.008  18.103   6.504  0.3440 -0.3207 -0.2592
  934YOPE   C2B13364  12.966  18.284   6.936 -0.2744  0.1424 -0.1577
  934YOPE   D3B13365  12.943  18.026   7.296  0.1342 -0.0749 -0.1848
  934YOPE   C4B13366  13.071  17.731   7.540 -0.0883 -0.2626 -0.2867
  935YOPE   NH313367   5.780   8.820   5.898 -0.1889  0.1761 -0.1043
  935YOPE   PO413368   6.234   8.698   5.964  0.0455 -0.1097 -0.4018
  935YOPE   GL113369   6.355   8.493   6.335 -0.1320  0.0549  0.0133
  935YOPE   GL213370   6.448   8.207   6.282 -0.1295 -0.1295  0.1501
  935YOPE   C1A13371   6.277   8.487   6.803 -0.2646  0.2497 -0.0619
  935YOPE   D2A13372   6.160   8.528   7.312  0.1228 -0.1923 -0.0958
  935YOPE   C3A13373   6.248   8.336   7.695 -0.0887 -0.1095  0.4289
  935YOPE   C4A13374   6.115   8.145   8.118 -0.1477 -0.0161  0.0063
  935YOPE   C1B13375   6.108   8.020   6.478 -0.0378  0.1083 -0.0137
  935YOPE   C2B13376   5.901   8.170   6.854 -0.2044 -0.1415  0.2554
  935YOPE   D3B13377   5.783   8.173   7.339  0.0918  0.0186 -0.0795
  935YOPE   C4B13378   5.726   8.390   7.741 -0.0935  0.1593  0.0086
  936YOPE   NH313379  10.270   4.675   5.746  0.0060  0.0415  0.2508
  936YOPE   PO413380  10.488   4.972   5.572 -0.3198  0.2402  0.1121
  936YOPE   GL113381  10.583   4.992   5.996 -0.0433 -0.6224 -0.0524
  936YOPE   GL213382  10.867   4.976   6.048  0.0510 -0.0882 -0.1501
  936YOPE   C1A13383  10.473   5.128   6.480 -0.0017  0.1429 -0.0583
  936YOPE   D2A13384  10.516   5.192   6.953 -0.0737 -0.0687 -0.1055
  936YOPE   C3A13385  10.529   4.826   7.244 -0.2715  0.2060 -0.0731
  936YOPE   C4A13386  10.562   4.682   7.715 -0.0503 -0.0663  0.0129
  936YOPE   C1B13387  10.766   4.757   6.412  0.1909  0.0946  0.0219
  936YOPE   C2B13388  10.770   4.741   6.784  0.0253  0.0663  0.3193
  936YOPE   D3B13389  11.037   4.619   7.116 -0.2644  0.0746  0.2071
  936YOPE   C4B13390  10.986   4.360   7.446  0.2024 -0.2112 -0.3101
  937YOPE   NH313391   9.389  11.373   6.465 -0.3333 -0.0843 -0.3450
  937YOPE   PO413392   9.144  11.809   6.451 -0.1618 -0.0706  0.1239
  937YOPE   GL113393   9.153  11.705   6.804 -0.0006 -0.1697  0.3353
  937YOPE   GL213394   8.962  11.442   6.881 -0.3446 -0.0204 -0.1074
  937YOPE   C1A13395   9.277  11.669   7.173 -0.3748 -0.1065  0.2776
  937YOPE   D2A13396   9.197  11.496   7.549 -0.1853  0.1731  0.1038
  937YOPE   C3A13397   9.091  11.853   7.849 -0.2276  0.2226 -0.0683
  937YOPE   C4A13398   8.884  11.985   8.178 -0.0369 -0.0184  0.0019
  937YOPE   C1B13399   8.789  11.646   7.235  0.0978 -0.0348  0.4138
  937YOPE   C2B13400   8.704  11.630   7.594 -0.1231 -0.0964  0.1927
  937YOPE   D3B13401   8.523  11.893   7.772  0.0912  0.0277 -0.3268
  937YOPE   C4B13402   8.474  12.288   7.980  0.1377 -0.2612 -0.0899
  938YOPE   NH313403  15.941   8.938   5.347  0.0856 -0.0895  0.2703
  938YOPE   PO413404  16.216   8.944   5.732 -0.1482 -0.2398 -0.0624
  938YOPE   GL113405  16.279   8.793   6.177 -0.1745  0.0851  0.3723
  938YOPE   GL213406  16.200   9.023   6.271  0.0193  0.1425  0.0792
  938YOPE   C1A13407  16.325   8.602   6.624  0.1615 -0.1942  0.1374
  938YOPE   D2A13408  16.078   8.700   6.969  0.0141  0.0038 -0.1344
  938YOPE   C3A13409  16.005   8.647   7.329  0.3056 -0.0469  0.1070
  938YOPE   C4A13410  16.138   8.952   7.695  0.2775  0.0318  0.3322
  938YOPE   C1B13411  16.147   9.459   6.543 -0.1367  0.1324  0.0133
  938YOPE   C2B13412  16.119   9.699   6.948 -0.2473 -0.1609  0.0880
  938YOPE   D3B13413  15.904   9.871   7.361  0.1185 -0.1170 -0.2266
  938YOPE   C4B13414  16.018  10.138   7.581 -0.2266 -0.2154 -0.0353
  939YOPE   NH313415  11.466  17.661   5.286 -0.1583  0.0646 -0.1408
  939YOPE   PO413416  11.179  17.823   5.611  0.1344 -0.1299  0.2640
  939YOPE   GL113417  11.081  17.995   6.014  0.0742 -0.3981  0.2390
  939YOPE   GL213418  10.958  17.756   6.269 -0.1213 -0.0683  0.1910
  939YOPE   C1A13419  11.042  18.281   6.442  0.0181  0.2922  0.1027
  939YOPE   D2A13420  10.960  18.549   6.828  0.1292 -0.3768 -0.0444
  939YOPE   C3A13421  10.943  18.445   7.222 -0.1549 -0.0423 -0.0261
  939YOPE   C4A13422  10.835  18.102   7.513 -0.2955  0.2011  0.0955
  939YOPE   C1B13423  10.761  17.886   6.641  0.0316 -0.1373  0.1696
  939YOPE   C2B13424  10.722  18.015   7.039  0.1402  0.1930 -0.0126
  939YOPE   D3B13425  10.445  17.833   7.392 -0.3099  0.1029  0.0806
  939YOPE   C4B13426  10.529  17.760   7.836 -0.3707 -0.0524 -0.1628
  940YOPE   NH313427   7.046   7.709   6.033  0.0101  0.0378 -0.2678
  940YOPE   PO413428   6.569   7.614   5.905 -0.0037  0.0715  0.2119
  940YOPE   GL113429   6.604   7.684   6.281 -0.3409  0.3904  0.1820
  940YOPE   GL213430   6.743   7.443   6.446 -0.0676  0.0015 -0.1838
  940YOPE   C1A13431   6.610   7.930   6.703 -0.0259 -0.0836  0.1505
  940YOPE   D2A13432   6.439   8.133   7.145 -0.2368 -0.1109  0.0047
  940YOPE   C3A13433   6.622   8.029   7.511 -0.1975 -0.3267  0.2101
  940YOPE   C4A13434   6.551   8.000   7.937 -0.1119 -0.3358  0.0499
  940YOPE   C1B13435   6.883   7.484   6.927  0.2558 -0.2081 -0.2694
  940YOPE   C2B13436   6.758   7.654   7.280  0.0101  0.0610  0.3767
  940YOPE   D3B13437   6.590   7.516   7.693 -0.2977 -0.0654 -0.0156
  940YOPE   C4B13438   6.515   7.060   7.774 -0.3149  0.2757  0.0503
  941POPC   NC313439   4.757   1.291   6.140 -0.0338  0.1938  0.0508
  941POPC   PO413440   4.889   0.844   6.295 -0.1004  0.1481 -0.2148
  941POPC   GL113441   4.664   0.934   6.617 -0.1253  0.0672  0.1826
  941POPC   GL213442   4.600   1.225   6.668 -0.0818 -0.1038  0.2448
  941POPC   C1A13443   4.604   0.829   7.054 -0.1515 -0.2218  0.0267
  941POPC   D2A13444   4.664   0.938   7.449 -0.0342  0.1309 -0.1206
  941POPC   C3A13445   4.833   0.790   7.780 -0.2364 -0.2042 -0.2925
  941POPC   C4A13446   4.967   0.764   8.109  0.1351 -0.0766 -0.1037
  941POPC   C1B13447   4.910   1.205   7.105 -0.1121 -0.2268 -0.0320
  941POPC   C2B13448   5.093   1.168   7.481 -0.1887  0.1120 -0.1825
  941POPC   C3B13449   5.259   1.174   7.828  0.1212  0.4160 -0.0858
  941POPC   C4B13450   5.579   1.391   7.985 -0.3625 -0.2099 -0.0992
  942POPC   NC313451   9.247   3.260   5.438  0.0347  0.1287  0.4543
  942POPC   PO413452   9.191   2.969   5.741  0.2069 -0.0291  0.1824
  942POPC   GL113453   9.191   2.897   6.190 -0.1473  0.0368  0.3014
  942POPC   GL213454   9.311   2.661   6.267 -0.0390  0.2295  0.2098
  942POPC   C1A13455   9.119   3.054   6.564 -0.1004 -0.0336  0.2126
  942POPC   D2A13456   9.206   3.071   6.969 -0.1699  0.1115 -0.1226
  942POPC   C3A13457   9.010   3.042   7.282 -0.0383  0.1440 -0.3343
  942POPC   C4A13458   8.778   3.096   7.641  0.1112 -0.0564  0.1077
  942POPC   C1B13459   9.606   2.932   6.461  0.1089 -0.1048 -0.1465
  942POPC   C2B13460   9.680   3.168   6.807 -0.2988  0.5333 -0.1321
  942POPC   C3B13461   9.630   3.221   7.235 -0.1404  0.0670  0.2447
  942POPC   C4B13462   9.416   3.122   7.623  0.1253  0.0981 -0.0827
  943POPC   NC313463   0.436  12.430   5.619 -0.0078  0.2671  0.1626
  943POPC   PO413464   0.379  12.823   5.947  0.0904  0.1325 -0.1940
  943POPC   GL113465   0.712  12.751   6.328 -0.2583 -0.2129 -0.1612
  943POPC   GL213466   1.022  12.827   6.259  0.0445 -0.0100  0.2461
  943POPC   C1A13467   0.698  12.695   6.732 -0.0168 -0.2068  0.2749
  943POPC   D2A13468   0.640  12.763   7.129  0.0741  0.0162 -0.0252
  943POPC   C3A13469   0.909  12.729   7.524 -0.0721 -0.0387 -0.0834
  943POPC   C4A13470   1.086  13.025   7.910 -0.1632 -0.2788 -0.2626
  943POPC   C1B13471   1.265  12.677   6.640 -0.2045 -0.0006 -0.0693
  943POPC   C2B13472   1.184  12.609   7.051 -0.0505 -0.0657  0.2000
  943POPC   C3B13473   1.188  12.294   7.460 -0.0807 -0.0329 -0.1866
  943POPC   C4B13474   1.116  12.135   7.826 -0.0950  0.0174  0.2121
  944POPC   NC313475  14.124   6.166   5.605  0.3399  0.2577  0.1978
  944POPC   PO413476  14.033   5.669   5.538  0.0877 -0.0770  0.3592
  944POPC   GL113477  13.823   5.913   5.925 -0.0086  0.1329 -0.0991
  944POPC   GL213478  13.650   5.795   6.031 -0.1900  0.2548  0.0902
  944POPC   C1A13479  14.007   5.831   6.408 -0.0187  0.0297  0.0052
  944POPC   D2A13480  14.002   5.973   6.867  0.1927  0.0146 -0.0957
  944POPC   C3A13481  14.283   6.053   7.142 -0.2058  0.0593  0.3566
  944POPC   C4A13482  14.436   6.050   7.542  0.1899  0.2376 -0.2307
  944POPC   C1B13483  13.542   5.601   6.410 -0.0441  0.0737 -0.3331
  944POPC   C2B13484  13.769   5.532   6.783 -0.0939 -0.0019  0.1107
  944POPC   C3B13485  13.985   5.202   7.019 -0.3471  0.0217 -0.1385
  944POPC   C4B13486  14.087   5.099   7.430 -0.0510  0.3828  0.0055
  945POPC   NC313487  15.526   8.367   5.844 -0.0582 -0.0598  0.0702
  945POPC   PO413488  15.904   8.527   5.659  0.0224  0.0495 -0.0587
  945POPC   GL113489  15.891   8.459   6.153 -0.0481 -0.0361  0.2627
  945POPC   GL213490  15.534   8.311   6.303 -0.0602 -0.1603 -0.2019
  945POPC   C1A13491  15.780   8.765   6.524  0.2040  0.1065 -0.2307
  945POPC   D2A13492  15.633   8.883   7.036  0.1032 -0.1280 -0.0105
  945POPC   C3A13493  15.393   8.610   7.286 -0.1524 -0.1290 -0.0875
  945POPC   C4A13494  15.293   8.377   7.560  0.2600 -0.0300  0.0922
  945POPC   C1B13495  15.753   8.306   6.630 -0.0080 -0.1350 -0.1239
  945POPC   C2B13496  15.702   8.372   6.990 -0.0614 -0.0371 -0.0158
  945POPC   C3B13497  15.721   8.215   7.354 -0.0534  0.0537 -0.3984
  945POPC   C4B13498  15.703   8.176   7.803  0.3222  0.1072 -0.1571
  946POPC   NC313499  13.380   4.584   5.588  0.2045 -0.0140 -0.3604
  946POPC   PO413500  13.322   4.857   5.795  0.1449 -0.0129  0.0789
  946POPC   GL113501  13.213   4.934   6.145 -0.1514  0.1293 -0.1656
  946POPC   GL213502  13.341   5.175   6.219  0.0593  0.0967  0.0417
  946POPC   C1A13503  13.175   4.822   6.593  0.1542  0.0328  0.0267
  946POPC   D2A13504  12.985   4.830   6.971 -0.4317 -0.2068 -0.3408
  946POPC   C3A13505  13.161   4.893   7.354  0.0157 -0.0879 -0.4124
  946POPC   C4A13506  13.224   4.735   7.718  0.0610 -0.2285  0.4127
  946POPC   C1B13507  13.537   5.108   6.521 -0.0010 -0.1175 -0.0421
  946POPC   C2B13508  13.544   5.063   6.921 -0.2736 -0.0648  0.1830
  946POPC   C3B13509  13.557   5.315   7.355  0.0289  0.1914 -0.0376
  946POPC   C4B13510  13.385   5.232   7.628  0.0838  0.1187 -0.3272
  947POPC   NC313511   4.592   6.037   6.362  0.3708 -0.0942  0.2141
  947POPC   PO413512   4.830   6.389   6.120 -0.0739  0.0645 -0.0854
  947POPC   GL113513   4.970   6.483   6.484 -0.2059 -0.0974  0.2666
  947POPC   GL213514   4.748   6.699   6.728  0.2069  0.0387  0.2390
  947POPC   C1A13515   5.069   6.481   6.965 -0.0450 -0.0675  0.1675
  947POPC   D2A13516   5.081   6.245   7.290  0.0749  0.0314 -0.0995
  947POPC   C3A13517   5.260   6.283   7.747 -0.1662 -0.0752 -0.1478
  947POPC   C4A13518   5.361   6.171   8.052  0.2190  0.4846 -0.0419
  947POPC   C1B13519   4.737   6.854   7.081 -0.1664  0.0485 -0.0111
  947POPC   C2B13520   4.851   7.174   7.373  0.1867 -0.1421  0.0612
  947POPC   C3B13521   4.975   7.167   7.814 -0.0353  0.0367 -0.3642
  947POPC   C4B13522   4.994   7.066   8.196 -0.0119  0.1533 -0.2241
  948POPC   NC313523   4.044  17.117   6.392  0.0408  0.1290 -0.0936
  948POPC   PO413524   4.393  16.922   6.162  0.0454 -0.1620  0.1102
  948POPC   GL113525   4.467  16.963   6.610 -0.0687  0.1431 -0.3112
  948POPC   GL213526   4.160  16.652   6.682  0.3005  0.1010 -0.0731
  948POPC   C1A13527   4.721  17.286   6.835 -0.0124 -0.1314  0.0144
  948POPC   D2A13528   5.099  17.426   6.913 -0.0881  0.1935 -0.0726
  948POPC   C3A13529   5.421  17.177   6.859  0.1652  0.1065  0.0408
  948POPC   C4A13530   5.626  16.851   6.705 -0.1168 -0.2988 -0.2072
  948POPC   C1B13531   3.947  16.536   7.010 -0.1403  0.0499 -0.0817
  948POPC   C2B13532   4.073  16.519   7.406  0.2712  0.0119 -0.3800
  948POPC   C3B13533   4.365  16.660   7.702  0.3851 -0.0776 -0.1483
  948POPC   C4B13534   4.715  16.746   8.014 -0.0342  0.1479  0.1170
  949POPC   NC313535   7.672  12.721   5.516  0.0734  0.1294 -0.1837
  949POPC   PO413536   7.522  12.319   5.764  0.0334  0.2570  0.2765
  949POPC   GL113537   7.184  12.312   6.183 -0.0868 -0.0201  0.3122
  949POPC   GL213538   7.173  12.570   6.289  0.0508  0.1591 -0.0574
  949POPC   C1A13539   6.967  12.147   6.585  0.1054 -0.1972  0.1877
  949POPC   D2A13540   6.759  12.034   6.907 -0.2381  0.2158 -0.0244
  949POPC   C3A13541   6.761  12.192   7.214  0.2011  0.3402 -0.2378
  949POPC   C4A13542   6.650  12.200   7.651 -0.0061 -0.0660  0.0235
  949POPC   C1B13543   6.971  12.671   6.627 -0.1669 -0.1260 -0.0618
  949POPC   C2B13544   6.984  12.675   7.041  0.3108  0.1014  0.0964
  949POPC   C3B13545   6.912  12.623   7.392 -0.3757  0.2087 -0.1360
  949POPC   C4B13546   7.071  12.511   7.781 -0.2924  0.0160  0.0306
  950POPC   NC313547  15.544  17.171   5.718 -0.2131 -0.0622  0.2088
  950POPC   PO413548  15.196  17.057   5.959 -0.0181 -0.0783 -0.0371
  950POPC   GL113549  15.140  17.001   6.361 -0.2604  0.2973  0.0749
  950POPC   GL213550  14.871  16.881   6.471  0.2499  0.0088 -0.0631
  950POPC   C1A13551  15.263  17.221   6.651 -0.1095 -0.1249 -0.2894
  950POPC   D2A13552  15.453  17.216   7.019 -0.0500 -0.0913  0.0973
  950POPC   C3A13553  15.522  17.173   7.449  0.0471 -0.1496  0.1927
  950POPC   C4A13554  15.216  17.067   7.798 -0.2415  0.0583  0.0281
  950POPC   C1B13555  15.107  16.827   6.906  0.2618 -0.1281  0.1759
  950POPC   C2B13556  15.148  16.791   7.327  0.0475 -0.3268 -0.3843
  950POPC   C3B13557  14.883  16.727   7.664 -0.3441  0.2329 -0.3032
  950POPC   C4B13558  14.674  16.914   7.916 -0.0508 -0.0131 -0.2034
  951POPC   NC313559   4.350  15.724   6.196 -0.1290 -0.1086 -0.1197
  951POPC   PO413560   3.998  15.848   6.397 -0.1747  0.1698 -0.3074
  951POPC   GL113561   4.237  15.597   6.703 -0.0795 -0.0578  0.0230
  951POPC   GL213562   4.338  15.327   6.525 -0.1430  0.0337 -0.0394
  951POPC   C1A13563   4.235  15.566   7.017  0.0390 -0.2619  0.0896
  951POPC   D2A13564   4.123  15.433   7.362 -0.1441  0.0113  0.0830
  951POPC   C3A13565   4.088  15.205   7.718  0.0185  0.1826 -0.2982
  951POPC   C4A13566   4.173  14.808   7.981 -0.1501 -0.2210 -0.3215
  951POPC   C1B13567   4.195  15.024   6.828  0.3063  0.0467 -0.2171
  951POPC   C2B13568   4.143  14.934   7.247 -0.1796  0.1125 -0.0384
  951POPC   C3B13569   4.316  14.654   7.530  0.2545 -0.0864 -0.1307
  951POPC   C4B13570   4.650  14.623   7.933  0.0263  0.2663  0.0049
  952POPC   NC313571   5.529   2.363   5.836  0.0505  0.2556 -0.2558
  952POPC   PO413572   5.672   2.199   6.089 -0.2781  0.1501  0.1878
  952POPC   GL113573   5.656   2.453   6.456  0.0634 -0.0255 -0.0569
  952POPC   GL213574   5.874   2.701   6.530 -0.0451  0.2470 -0.0830
  952POPC   C1A13575   5.610   2.608   6.932 -0.0672 -0.1602  0.0106
  952POPC   D2A13576   5.553   2.603   7.368  0.1424 -0.2959  0.2963
  952POPC   C3A13577   5.889   2.727   7.634  0.0195  0.4346 -0.0638
  952POPC   C4A13578   6.297   2.832   7.695  0.0077 -0.3022  0.0044
  952POPC   C1B13579   6.069   2.558   6.986  0.0140  0.1511  0.0964
  952POPC   C2B13580   6.046   2.362   7.276  0.1722  0.0459  0.1222
  952POPC   C3B13581   6.109   2.311   7.700 -0.3825 -0.0285  0.1212
  952POPC   C4B13582   6.067   2.152   8.131  0.1812  0.0818 -0.0236
  953POPC   NC313583   2.861  10.006   6.252  0.1814  0.0421  0.1982
  953POPC   PO413584   2.426   9.762   6.133  0.2827  0.2864  0.1595
  953POPC   GL113585   2.249   9.911   6.419 -0.2007 -0.0578 -0.0476
  953POPC   GL213586   1.978   9.780   6.473 -0.2713  0.1738  0.0049
  953POPC   C1A13587   2.288  10.015   6.839  0.0496  0.0172 -0.5552
  953POPC   D2A13588   2.322  10.094   7.331 -0.3356 -0.0052  0.2367
  953POPC   C3A13589   2.233   9.906   7.667  0.0844  0.3247 -0.0706
  953POPC   C4A13590   2.406   9.802   7.955  0.1853  0.1041  0.0498
  953POPC   C1B13591   1.758  10.003   6.773 -0.0653 -0.1696  0.1923
  953POPC   C2B13592   1.442  10.297   7.036  0.2335  0.0476 -0.0317
  953POPC   C3B13593   1.293  10.265   7.431  0.0668  0.1167 -0.1126
  953POPC   C4B13594   1.212  10.272   7.839  0.2150 -0.2329  0.1428
  954POPC   NC313595   2.162   3.089   5.560  0.0306  0.1038  0.1004
  954POPC   PO413596   1.975   3.521   5.633  0.2910 -0.0309  0.1673
  954POPC   GL113597   1.895   3.580   6.076  0.1207  0.0615 -0.0584
  954POPC   GL213598   1.903   3.895   6.136  0.3056  0.0248  0.2381
  954POPC   C1A13599   1.657   3.394   6.445 -0.3529  0.0521 -0.0343
  954POPC   D2A13600   1.549   3.471   6.841  0.0681  0.2310  0.0261
  954POPC   C3A13601   1.760   3.708   7.125  0.2757  0.0850 -0.2686
  954POPC   C4A13602   1.860   3.555   7.587 -0.1985 -0.0703 -0.2239
  954POPC   C1B13603   1.871   3.860   6.539 -0.2125  0.2453 -0.0403
  954POPC   C2B13604   2.041   4.120   6.981  0.2303 -0.1085  0.0435
  954POPC   C3B13605   1.909   4.031   7.429 -0.3316 -0.0643 -0.1897
  954POPC   C4B13606   1.626   4.114   7.838  0.0295 -0.3864  0.3880
  955POPC   NC313607   2.645   9.062   5.414  0.1090  0.1926 -0.2718
  955POPC   PO413608   2.697   8.993   5.885 -0.2493 -0.0226  0.1265
  955POPC   GL113609   2.664   8.997   6.353 -0.0155 -0.1259  0.0720
  955POPC   GL213610   2.938   8.819   6.555  0.1910 -0.0094 -0.1124
  955POPC   C1A13611   2.480   8.781   6.712 -0.2145  0.1856  0.2462
  955POPC   D2A13612   2.443   8.939   7.111  0.1227  0.0600  0.1718
  955POPC   C3A13613   2.565   9.350   7.275 -0.3663  0.1682 -0.0170
  955POPC   C4A13614   2.605   9.574   7.520  0.0137 -0.0368  0.2267
  955POPC   C1B13615   2.943   8.865   6.959  0.0977 -0.0394  0.2785
  955POPC   C2B13616   2.891   8.903   7.415 -0.1060 -0.0875 -0.1154
  955POPC   C3B13617   3.117   8.793   7.647 -0.0282 -0.4339  0.3702
  955POPC   C4B13618   2.963   8.578   7.995 -0.0952  0.0622 -0.3228
  956POPC   NC313619   1.341  14.591   5.707 -0.0454  0.0954  0.0888
  956POPC   PO413620   1.474  14.379   6.018 -0.0770  0.1438  0.3089
  956POPC   GL113621   1.437  14.182   6.370  0.0170  0.0787 -0.1995
  956POPC   GL213622   1.743  14.084   6.350  0.2411  0.2163  0.0005
  956POPC   C1A13623   1.432  14.201   6.769  0.3249 -0.2192 -0.1271
  956POPC   D2A13624   1.353  14.156   7.170 -0.2406 -0.1814 -0.1404
  956POPC   C3A13625   1.352  13.908   7.502 -0.0605 -0.2019 -0.1328
  956POPC   C4A13626   1.233  13.704   7.879  0.0222  0.2328 -0.1843
  956POPC   C1B13627   1.877  13.908   6.560 -0.0496  0.1489 -0.5581
  956POPC   C2B13628   1.752  13.891   7.010 -0.1318 -0.0000  0.3210
  956POPC   C3B13629   1.823  13.969   7.399  0.1504  0.0216  0.3151
  956POPC   C4B13630   1.968  13.960   7.861  0.0588 -0.1109  0.0658
  957POPC   NC313631  14.695  10.801   6.022  0.3671 -0.1759 -0.0591
  957POPC   PO413632  14.266  11.044   5.932  0.0132  0.3376 -0.5052
  957POPC   GL113633  14.289  11.065   6.278  0.2476 -0.0650  0.0008
  957POPC   GL213634  14.347  10.698   6.306  0.1213  0.1961  0.0700
  957POPC   C1A13635  14.527  11.002   6.604  0.2256  0.1067 -0.1206
  957POPC   D2A13636  14.582  10.999   7.038 -0.0241  0.6084  0.0294
  957POPC   C3A13637  14.380  10.702   7.347 -0.0980 -0.0124 -0.0723
  957POPC   C4A13638  14.450  10.317   7.724 -0.0381 -0.0398  0.3967
  957POPC   C1B13639  14.218  10.579   6.671 -0.0311 -0.0032  0.1504
  957POPC   C2B13640  13.918  10.501   6.915  0.0944 -0.0601 -0.1891
  957POPC   C3B13641  13.891  10.648   7.294  0.1403 -0.0943  0.1749
  957POPC   C4B13642  14.002  10.628   7.704 -0.0255  0.1986 -0.0222
  958POPC   NC313643  16.482  10.534   5.813  0.1279 -0.1179 -0.1603
  958POPC   PO413644  16.604  10.230   6.141  0.0236 -0.1057 -0.4189
  958POPC   GL113645  16.744   9.928   6.455 -0.1092 -0.2788 -0.2065
  958POPC   GL213646  16.659   9.524   6.482  0.0146 -0.1223 -0.0047
  958POPC   C1A13647  16.899   9.875   6.831 -0.0502  0.0752 -0.0685
  958POPC   D2A13648  16.939   9.698   7.260  0.1548  0.0543 -0.1201
  958POPC   C3A13649  17.041   9.364   7.491  0.3819 -0.0613 -0.1270
  958POPC   C4A13650  17.187   9.168   7.870  0.1894  0.3245  0.2824
  958POPC   C1B13651  16.611   9.500   6.887  0.0387 -0.2009  0.1402
  958POPC   C2B13652  16.475   9.509   7.301 -0.1116  0.0585  0.2799
  958POPC   C3B13653  16.165   9.606   7.680 -0.0033 -0.0130  0.0698
  958POPC   C4B13654  15.906   9.565   7.945  0.2613  0.0188  0.1512
  959POPC   NC313655  14.865  17.630   5.870  0.0968 -0.0404 -0.0360
  959POPC   PO413656  14.830  18.039   5.872 -0.1028 -0.0232  0.1030
  959POPC   GL113657  14.516  18.114   6.190  0.0237 -0.0351 -0.0297
  959POPC   GL213658  14.238  18.105   6.238  0.0602  0.2272 -0.0712
  959POPC   C1A13659  14.646  18.051   6.648  0.0222 -0.2717  0.0610
  959POPC   D2A13660  14.963  18.171   7.034 -0.2969  0.0877  0.1106
  959POPC   C3A13661  15.047  18.295   7.405 -0.1049 -0.2093  0.0574
  959POPC   C4A13662  15.234  18.557   7.532 -0.1998 -0.0189  0.0320
  959POPC   C1B13663  14.211  18.103   6.754  0.3399 -0.0730 -0.0964
  959POPC   C2B13664  14.349  18.187   7.160 -0.0750  0.0303  0.1293
  959POPC   C3B13665  14.421  18.372   7.447  0.0926  0.0612  0.0151
  959POPC   C4B13666  14.655  18.350   7.715 -0.0303  0.0256  0.0995
  960POPC   NC313667  12.549  17.643   5.553 -0.2127  0.1144 -0.2831
  960POPC   PO413668  12.483  17.905   5.929 -0.1406  0.2251 -0.3656
  960POPC   GL113669  12.521  17.668   6.276 -0.3399 -0.2239 -0.0822
  960POPC   GL213670  12.423  17.765   6.619  0.0909  0.0040  0.0125
  960POPC   C1A13671  12.742  17.393   6.572 -0.1797 -0.1619  0.0592
  960POPC   D2A13672  13.032  17.183   6.797  0.1210 -0.0315  0.3121
  960POPC   C3A13673  13.377  16.927   6.672 -0.2736 -0.0318  0.2850
  960POPC   C4A13674  13.111  16.690   6.934  0.1106  0.0702 -0.0416
  960POPC   C1B13675  12.221  17.889   6.978  0.0917 -0.0109 -0.1002
  960POPC   C2B13676  11.958  17.849   7.393 -0.1859 -0.0235  0.2738
  960POPC   C3B13677  11.822  17.947   7.792 -0.3722 -0.3652  0.0085
  960POPC   C4B13678  11.549  17.903   8.242  0.1406  0.1903  0.1620
  961POPC   NC313679  13.508  14.911   5.837 -0.0482  0.0843  0.2779
  961POPC   PO413680  13.578  15.308   5.966 -0.0318 -0.2198 -0.3721
  961POPC   GL113681  13.384  15.176   6.270 -0.1677  0.0809  0.0389
  961POPC   GL213682  13.650  15.267   6.551  0.0087  0.0288  0.0247
  961POPC   C1A13683  13.330  14.961   6.713 -0.0699  0.0140  0.0963
  961POPC   D2A13684  13.424  14.802   7.167  0.1512  0.2027  0.3368
  961POPC   C3A13685  13.263  14.992   7.521  0.4137 -0.2040 -0.0798
  961POPC   C4A13686  13.092  15.115   7.924 -0.2093 -0.0207 -0.0920
  961POPC   C1B13687  13.865  14.867   6.716  0.0583 -0.0893  0.1123
  961POPC   C2B13688  13.920  14.774   7.138  0.2563  0.0626  0.2588
  961POPC   C3B13689  13.786  15.045   7.489 -0.0260 -0.0770  0.1630
  961POPC   C4B13690  13.640  15.218   7.823 -0.0750  0.0714 -0.0578
  962POPC   NC313691  16.665   8.690   5.802 -0.2336  0.2053  0.1999
  962POPC   PO413692  16.326   8.388   5.879 -0.1890 -0.0473  0.0789
  962POPC   GL113693  16.763   8.422   6.262  0.3585  0.0443 -0.1328
  962POPC   GL213694  16.819   8.712   6.316 -0.0804 -0.1937 -0.1007
  962POPC   C1A13695  16.748   8.348   6.709  0.0025  0.3330 -0.0601
  962POPC   D2A13696  16.631   8.506   7.102 -0.2985 -0.3471 -0.2220
  962POPC   C3A13697  16.596   8.985   7.233 -0.1920  0.1531 -0.4266
  962POPC   C4A13698  16.616   9.129   7.594 -0.2374  0.0642 -0.0067
  962POPC   C1B13699  16.616   8.994   6.570 -0.2186  0.0244 -0.3223
  962POPC   C2B13700  16.303   9.130   6.863  0.1227  0.1503  0.0858
  962POPC   C3B13701  16.112   9.177   7.212  0.2654  0.0398 -0.3240
  962POPC   C4B13702  15.768   9.307   7.436 -0.3158  0.0718  0.1563
  963POPC   NC313703   8.269  15.078   5.999 -0.2745  0.2564  0.0855
  963POPC   PO413704   8.311  14.615   5.993  0.0085  0.4132 -0.0447
  963POPC   GL113705   7.990  14.789   6.293  0.2361  0.0478 -0.2001
  963POPC   GL213706   7.772  15.037   6.260  0.0018  0.3492 -0.0040
  963POPC   C1A13707   7.914  14.778   6.752 -0.3851  0.1519 -0.1882
  963POPC   D2A13708   8.036  14.684   7.222  0.1504  0.1539  0.2053
  963POPC   C3A13709   8.397  14.756   7.472 -0.1940  0.7585 -0.0943
  963POPC   C4A13710   8.619  15.149   7.271 -0.1148  0.0381 -0.0539
  963POPC   C1B13711   7.602  15.079   6.559 -0.1271  0.1046  0.2159
  963POPC   C2B13712   7.599  15.103   6.995 -0.0908  0.2463  0.0272
  963POPC   C3B13713   7.687  15.014   7.376  0.4383 -0.1448 -0.4143
  963POPC   C4B13714   7.721  15.052   7.838 -0.0078  0.2406 -0.2681
  964POPC   NC313715   2.653  14.012   5.403 -0.2913  0.0928 -0.1754
  964POPC   PO413716   2.801  13.805   5.703  0.1583  0.0267 -0.0044
  964POPC   GL113717   2.562  14.073   6.070 -0.3371 -0.0356  0.2488
  964POPC   GL213718   2.396  13.836   6.220 -0.0695 -0.0974 -0.3356
  964POPC   C1A13719   2.336  14.233   6.519 -0.1094  0.0262  0.1123
  964POPC   D2A13720   2.195  14.113   6.871 -0.1156 -0.2087  0.1928
  964POPC   C3A13721   2.286  13.785   7.113 -0.2418  0.0022  0.0678
  964POPC   C4A13722   2.386  13.739   7.503  0.2011  0.2905 -0.1713
  964POPC   C1B13723   2.549  13.655   6.608 -0.0257 -0.2085 -0.0100
  964POPC   C2B13724   2.522  13.275   6.881 -0.0233  0.2301  0.0398
  964POPC   C3B13725   2.331  13.285   7.258  0.1094  0.0055 -0.0677
  964POPC   C4B13726   2.358  13.231   7.656 -0.1403 -0.1725  0.1899
  965POPC   NC313727  15.146   2.619   5.307 -0.1489 -0.0557  0.1973
  965POPC   PO413728  15.018   3.093   5.520  0.2845 -0.0451 -0.1597
  965POPC   GL113729  15.043   3.062   6.038  0.0784 -0.1493  0.0929
  965POPC   GL213730  15.140   3.349   6.229 -0.3374 -0.0908  0.0898
  965POPC   C1A13731  15.201   2.770   6.287  0.1581  0.0198  0.0528
  965POPC   D2A13732  14.979   2.668   6.860  0.0011  0.0828 -0.2298
  965POPC   C3A13733  14.666   2.889   7.070  0.2407 -0.2862  0.2771
  965POPC   C4A13734  14.566   3.315   7.100  0.2555 -0.1966  0.0073
  965POPC   C1B13735  15.140   3.691   6.540  0.0456  0.1666  0.2319
  965POPC   C2B13736  14.987   3.694   7.001  0.0214 -0.1307  0.0379
  965POPC   C3B13737  14.989   3.441   7.390 -0.0782  0.1507  0.2125
  965POPC   C4B13738  14.943   3.291   7.815  0.1574 -0.1068 -0.1507
  966POPC   NC313739  14.795   4.995   5.902 -0.0069 -0.2049  0.1067
  966POPC   PO413740  14.629   4.570   6.002 -0.1558 -0.1454  0.0552
  966POPC   GL113741  14.759   4.690   6.345  0.0514  0.0556  0.1595
  966POPC   GL213742  15.061   4.701   6.289 -0.0804  0.1153 -0.0159
  966POPC   C1A13743  14.944   4.832   6.745 -0.0800  0.0134  0.2810
  966POPC   D2A13744  15.120   4.877   7.132 -0.0442 -0.2678 -0.0304
  966POPC   C3A13745  15.026   4.879   7.581 -0.1428  0.0277  0.1591
  966POPC   C4A13746  15.250   4.894   7.907  0.0793  0.1519  0.0000
  966POPC   C1B13747  15.377   5.019   6.576 -0.0385 -0.0659  0.2045
  966POPC   C2B13748  15.422   5.276   6.903 -0.1373  0.2404  0.1235
  966POPC   C3B13749  15.634   5.520   7.194  0.2447 -0.0110  0.0607
  966POPC   C4B13750  15.497   5.842   7.539 -0.0844  0.0240  0.1126
  967POPC   NC313751   2.397   3.914   5.935 -0.0644  0.2338 -0.1633
  967POPC   PO413752   2.736   4.160   5.742 -0.1744  0.1278 -0.0428
  967POPC   GL113753   2.768   4.207   6.185 -0.2787 -0.1766  0.0289
  967POPC   GL213754   2.475   4.273   6.318 -0.0251  0.0563 -0.1009
  967POPC   C1A13755   2.858   3.869   6.511  0.2155 -0.1851  0.1144
  967POPC   D2A13756   3.231   3.905   6.768  0.0016  0.5008  0.1099
  967POPC   C3A13757   3.527   3.884   6.524  0.0313  0.4011 -0.2461
  967POPC   C4A13758   3.927   4.016   6.466 -0.2267 -0.2731 -0.1401
  967POPC   C1B13759   2.171   4.401   6.537  0.0717  0.1825 -0.0319
  967POPC   C2B13760   2.193   4.632   6.912  0.0574  0.0870 -0.1105
  967POPC   C3B13761   1.931   4.678   7.237 -0.0220 -0.3165 -0.2592
  967POPC   C4B13762   1.520   4.880   7.278  0.1323  0.0050  0.2299
  968POPC   NC313763  17.225  15.697   6.104  0.2803  0.0588  0.0968
  968POPC   PO413764  17.087  16.124   5.984  0.2788  0.0752 -0.4869
  968POPC   GL113765  16.916  16.381   6.257 -0.0979  0.1278  0.1793
  968POPC   GL213766  16.628  16.385   6.273 -0.1064  0.3785  0.1784
  968POPC   C1A13767  17.119  16.597   6.541 -0.1259 -0.0773  0.0441
  968POPC   D2A13768  17.199  16.962   6.674  0.2246  0.4413  0.2476
  968POPC   C3A13769  17.301  16.919   7.015 -0.1317  0.1706  0.0849
  968POPC   C4A13770  17.393  16.939   7.385  0.0903  0.0833  0.2268
  968POPC   C1B13771  16.520  16.322   6.718 -0.1673  0.2524  0.2450
  968POPC   C2B13772  16.623  16.289   7.121  0.0567 -0.0272 -0.1302
  968POPC   C3B13773  16.411  16.400   7.483 -0.3734 -0.0051  0.1213
  968POPC   C4B13774  16.065  16.475   7.566  0.0176 -0.0726  0.2238
  969POPC   NC313775   5.745   9.202   5.593  0.2075  0.2238  0.0641
  969POPC   PO413776   6.142   9.200   5.821  0.0958 -0.4122 -0.0076
  969POPC   GL113777   6.305   9.129   6.209 -0.1667  0.2981 -0.0230
  969POPC   GL213778   6.221   9.328   6.424  0.0418  0.0776 -0.1160
  969POPC   C1A13779   6.429   8.945   6.635 -0.2209  0.0863 -0.3671
  969POPC   D2A13780   6.337   9.079   6.983  0.0504 -0.0635  0.1523
  969POPC   C3A13781   6.359   8.974   7.387 -0.1904 -0.1894  0.0407
  969POPC   C4A13782   6.445   8.848   7.796  0.1224  0.2464  0.0999
  969POPC   C1B13783   5.977   9.392   6.829 -0.1509 -0.1466 -0.1283
  969POPC   C2B13784   6.015   9.341   7.203  0.1498 -0.0234 -0.0186
  969POPC   C3B13785   6.121   9.327   7.638  0.0240 -0.0321 -0.0248
  969POPC   C4B13786   6.516   9.446   7.781  0.2348 -0.0891  0.0634
  970POPC   NC313787   0.941   8.383   6.317 -0.2323 -0.1687 -0.1714
  970POPC   PO413788   0.859   7.878   6.314 -0.3092  0.2094  0.1416
  970POPC   GL113789   0.541   7.658   6.509  0.0192  0.0826  0.1818
  970POPC   GL213790   0.655   7.413   6.704  0.1360  0.0543 -0.1215
  970POPC   C1A13791   0.273   7.791   6.786  0.0342 -0.1078 -0.0826
  970POPC   D2A13792   0.018   7.827   7.147 -0.0652  0.3321  0.3066
  970POPC   C3A13793   0.052   7.722   7.487  0.0804 -0.1573 -0.0883
  970POPC   C4A13794  -0.032   7.725   7.859  0.0660  0.0161  0.1614
  970POPC   C1B13795   0.771   7.684   6.961  0.0623  0.1344  0.1668
  970POPC   C2B13796   0.767   7.624   7.443 -0.3559  0.2282 -0.1435
  970POPC   C3B13797   0.839   7.604   7.842 -0.0559 -0.2355  0.0364
  970POPC   C4B13798   0.668   7.426   8.315  0.1015  0.1327  0.0389
  971POPC   NC313799   0.422   7.566   5.570 -0.1443 -0.1856 -0.1787
  971POPC   PO413800   0.478   7.442   5.971  0.0908  0.1173 -0.0455
  971POPC   GL113801   0.343   7.224   6.325  0.0401 -0.3023 -0.0239
  971POPC   GL213802   0.561   6.945   6.213  0.1343 -0.1021 -0.2015
  971POPC   C1A13803   0.047   6.953   6.519  0.1951  0.0398 -0.3454
  971POPC   D2A13804   0.005   6.881   7.020 -0.5271  0.0768  0.1548
  971POPC   C3A13805  -0.086   7.140   7.237  0.0003 -0.0223  0.3194
  971POPC   C4A13806  -0.186   7.227   7.653  0.1490  0.0240  0.2261
  971POPC   C1B13807   0.547   6.952   6.737  0.1418  0.1042 -0.1046
  971POPC   C2B13808   0.529   6.982   7.174  0.0449  0.1323  0.2842
  971POPC   C3B13809   0.187   6.806   7.532 -0.1838 -0.1343 -0.0969
  971POPC   C4B13810   0.402   6.573   7.925 -0.0017 -0.3318  0.1567
  972POPC   NC313811   5.643  16.475   5.798  0.4289 -0.1810  0.1172
  972POPC   PO413812   5.415  16.159   6.102 -0.1353  0.1606 -0.0946
  972POPC   GL113813   5.465  16.018   6.472 -0.3537 -0.0346 -0.1722
  972POPC   GL213814   5.763  15.922   6.430  0.1955  0.2211 -0.0588
  972POPC   C1A13815   5.609  15.976   6.950 -0.0690  0.1566  0.1111
  972POPC   D2A13816   5.702  15.961   7.308  0.1202  0.0194  0.3624
  972POPC   C3A13817   5.877  16.076   7.756  0.2365 -0.1024 -0.3580
  972POPC   C4A13818   5.668  16.077   8.183 -0.0237 -0.4982  0.1205
  972POPC   C1B13819   5.897  15.720   6.612 -0.0607 -0.0736  0.0593
  972POPC   C2B13820   5.880  15.572   7.043 -0.3165 -0.1541  0.2957
  972POPC   C3B13821   5.848  15.584   7.514  0.0511 -0.0064 -0.0659
  972POPC   C4B13822   6.209  15.677   7.857 -0.0213  0.0940  0.5710
  973POPC   NC313823  13.287   6.996   5.271  0.0321  0.2074 -0.1394
  973POPC   PO413824  13.315   6.990   5.798 -0.0287 -0.1061 -0.0917
  973POPC   GL113825  13.259   6.740   6.120 -0.0019  0.2101 -0.2329
  973POPC   GL213826  13.097   6.834   6.304  0.1105 -0.1089  0.0750
  973POPC   C1A13827  13.455   6.731   6.603 -0.0088 -0.2450  0.1515
  973POPC   D2A13828  13.556   6.821   7.051  0.0337 -0.0195 -0.0457
  973POPC   C3A13829  13.365   6.668   7.401  0.2302  0.0491 -0.2562
  973POPC   C4A13830  13.058   6.600   7.635 -0.0353 -0.1825 -0.0537
  973POPC   C1B13831  13.011   6.966   6.802 -0.0124 -0.0494  0.2095
  973POPC   C2B13832  12.977   6.999   7.189 -0.0019 -0.1151 -0.0508
  973POPC   C3B13833  13.139   7.061   7.580 -0.0614  0.1592  0.0344
  973POPC   C4B13834  13.189   7.215   7.966 -0.1554 -0.0309  0.2786
  974POPC   NC313835   9.685   3.518   5.566 -0.1317 -0.0813 -0.1490
  974POPC   PO413836   9.950   3.420   5.929  0.1819 -0.0199 -0.2332
  974POPC   GL113837  10.173   3.428   6.270 -0.0030 -0.1216  0.1516
  974POPC   GL213838  10.000   3.321   6.496 -0.2022 -0.1959  0.1116
  974POPC   C1A13839  10.153   3.753   6.599 -0.1820 -0.0149  0.2140
  974POPC   D2A13840  10.111   3.958   6.986  0.0831 -0.1011  0.1015
  974POPC   C3A13841  10.400   3.732   7.340 -0.4012 -0.2174 -0.0452
  974POPC   C4A13842  10.408   3.544   7.695 -0.1471  0.1187  0.0073
  974POPC   C1B13843  10.181   3.402   6.863  0.0506 -0.3677 -0.2828
  974POPC   C2B13844  10.112   3.303   7.285 -0.2060  0.1512 -0.0126
  974POPC   C3B13845   9.870   3.323   7.640 -0.0131  0.1205 -0.1601
  974POPC   C4B13846   9.721   3.330   8.011  0.3576 -0.1528  0.0248
  975POPC   NC313847  11.797  14.703   6.061 -0.1611 -0.1930  0.5044
  975POPC   PO413848  11.904  14.372   6.321  0.1546  0.0469  0.0087
  975POPC   GL113849  11.771  14.094   6.586  0.1329 -0.0199 -0.3145
  975POPC   GL213850  11.423  14.104   6.526  0.1414 -0.0125  0.1000
  975POPC   C1A13851  11.787  13.930   7.037 -0.1603 -0.2206  0.1879
  975POPC   D2A13852  11.664  13.981   7.464 -0.0429 -0.0699  0.4060
  975POPC   C3A13853  11.871  13.726   7.731  0.1297 -0.1390 -0.3268
  975POPC   C4A13854  11.844  13.362   7.974 -0.2576  0.3131  0.3893
  975POPC   C1B13855  11.292  14.035   6.975 -0.0403  0.0280 -0.1865
  975POPC   C2B13856  11.068  13.877   7.301  0.2627  0.1593  0.0794
  975POPC   C3B13857  11.217  13.813   7.592  0.0255 -0.2712 -0.0592
  975POPC   C4B13858  11.391  14.058   7.904 -0.1808 -0.1989  0.0704
  976POPC   NC313859   1.659  13.103   5.645  0.1672  0.0736 -0.0487
  976POPC   PO413860   1.379  13.388   5.738 -0.3243  0.2269  0.2865
  976POPC   GL113861   1.300  13.332   6.125  0.1650 -0.0679  0.0576
  976POPC   GL213862   1.437  13.621   6.242 -0.1476 -0.1215  0.0860
  976POPC   C1A13863   1.369  13.235   6.508 -0.1083 -0.0271  0.1786
  976POPC   D2A13864   1.007  13.054   6.823 -0.2717 -0.1438 -0.1133
  976POPC   C3A13865   0.996  13.103   7.196 -0.1800 -0.4374  0.2368
  976POPC   C4A13866   0.956  13.347   7.602 -0.1339 -0.0895  0.1336
  976POPC   C1B13867   1.440  13.731   6.590  0.1121 -0.0487  0.0712
  976POPC   C2B13868   1.408  13.535   6.925  0.0935  0.1100 -0.0841
  976POPC   C3B13869   1.355  13.481   7.281 -0.0305  0.1863 -0.2238
  976POPC   C4B13870   1.447  13.318   7.669  0.1424 -0.1140 -0.1465
  977POPC   NC313871  14.860   9.118   5.949 -0.1430 -0.1379  0.0213
  977POPC   PO413872  14.769   8.867   5.642  0.1807 -0.2082 -0.1363
  977POPC   GL113873  14.830   8.622   5.984 -0.1392 -0.0686 -0.1440
  977POPC   GL213874  15.065   8.413   6.017 -0.3329  0.0576  0.2690
  977POPC   C1A13875  14.692   8.447   6.414  0.1521  0.2490  0.0940
  977POPC   D2A13876  14.743   8.117   6.719  0.0196  0.3235  0.1016
  977POPC   C3A13877  14.799   7.971   7.163  0.0504  0.0577 -0.0015
  977POPC   C4A13878  14.965   7.983   7.565  0.0668  0.1292  0.2485
  977POPC   C1B13879  14.885   8.084   6.164 -0.0151 -0.3229 -0.2743
  977POPC   C2B13880  14.627   7.923   6.302 -0.0442  0.2520 -0.0866
  977POPC   C3B13881  14.437   7.709   6.573 -0.1118  0.1057 -0.1294
  977POPC   C4B13882  14.196   7.765   7.012  0.1148 -0.2671 -0.1674
  978POPC   NC313883  15.825  11.881   5.961 -0.1114 -0.0616 -0.0572
  978POPC   PO413884  15.578  11.522   6.122  0.4449 -0.0674  0.1290
  978POPC   GL113885  15.571  11.631   6.460  0.2834 -0.3909  0.1093
  978POPC   GL213886  15.777  11.878   6.465  0.4250  0.3622  0.0524
  978POPC   C1A13887  15.482  11.549   6.857 -0.0397 -0.4909 -0.1316
  978POPC   D2A13888  15.486  11.496   7.382 -0.0412  0.0488 -0.1533
  978POPC   C3A13889  15.091  11.564   7.630 -0.0439  0.1118  0.1777
  978POPC   C4A13890  14.894  11.226   7.954 -0.1480  0.1444 -0.0215
  978POPC   C1B13891  15.896  11.864   6.871 -0.0718 -0.0084  0.1121
  978POPC   C2B13892  16.003  11.796   7.255 -0.0836 -0.1132  0.4637
  978POPC   C3B13893  15.831  12.092   7.607 -0.0498 -0.0274  0.2622
  978POPC   C4B13894  15.933  12.457   7.951 -0.2114  0.0739 -0.0318
  979POPC   NC313895  12.553   8.831   5.775  0.4246 -0.2474 -0.0764
  979POPC   PO413896  12.235   8.617   5.996  0.0709 -0.0387  0.1206
  979POPC   GL113897  12.278   8.870   6.230  0.0116  0.1547 -0.4580
  979POPC   GL213898  12.023   8.746   6.436  0.2507 -0.0343 -0.1510
  979POPC   C1A13899  12.498   9.015   6.549  0.2897 -0.1794 -0.1797
  979POPC   D2A13900  12.773   9.095   6.872  0.3553  0.0004 -0.0533
  979POPC   C3A13901  13.115   8.859   6.933  0.2326  0.1570  0.0262
  979POPC   C4A13902  13.356   8.507   7.089  0.2811 -0.0994  0.2635
  979POPC   C1B13903  12.148   8.771   6.804 -0.0832  0.0633  0.0828
  979POPC   C2B13904  12.465   8.780   7.205  0.0782 -0.2006 -0.2806
  979POPC   C3B13905  12.613   8.522   7.693 -0.0063 -0.2482  0.0253
  979POPC   C4B13906  12.734   8.322   8.115 -0.1070 -0.0469  0.1161
  980POPC   NC313907   5.207  10.930   6.169  0.2284 -0.2164 -0.0252
  980POPC   PO413908   5.567  11.071   6.332 -0.1998  0.2397 -0.0274
  980POPC   GL113909   5.172  11.248   6.622  0.0791 -0.1569  0.2772
  980POPC   GL213910   4.855  11.290   6.423 -0.0544  0.1048  0.1791
  980POPC   C1A13911   5.220  11.379   6.966  0.0499  0.4716  0.0355
  980POPC   D2A13912   5.145  11.533   7.361  0.3084 -0.0851  0.1079
  980POPC   C3A13913   5.444  11.338   7.728  0.1677  0.1935  0.2099
  980POPC   C4A13914   5.765  11.322   8.058  0.0134  0.0389  0.2352
  980POPC   C1B13915   4.682  11.246   6.792 -0.2305 -0.1181 -0.1472
  980POPC   C2B13916   4.726  11.330   7.171  0.1188  0.0057  0.0842
  980POPC   C3B13917   4.694  11.393   7.582 -0.1325  0.0878 -0.0338
  980POPC   C4B13918   4.424  11.305   7.938  0.0120  0.0423 -0.2772
  981YOPC   NC313919   4.427  13.133   5.897 -0.1082  0.0382 -0.1238
  981YOPC   PO413920   4.248  13.524   5.896 -0.2098 -0.1726 -0.2872
  981YOPC   GL113921   4.413  13.833   6.094  0.0738 -0.0468  0.1658
  981YOPC   GL213922   4.808  13.857   6.075 -0.0216 -0.0704 -0.0369
  981YOPC   C1A13923   4.643  13.700   6.505  0.0786 -0.0458  0.2383
  981YOPC   D2A13924   5.083  13.837   6.481 -0.1254 -0.3702 -0.2099
  981YOPC   C3A13925   5.440  13.846   6.655  0.0851 -0.0615 -0.0431
  981YOPC   C4A13926   5.644  14.022   6.927 -0.1467  0.0924  0.3237
  981YOPC   C1B13927   4.744  14.189   6.349  0.1256  0.1456  0.1147
  981YOPC   C2B13928   4.696  14.192   6.762 -0.0572 -0.0736  0.1725
  981YOPC   D3B13929   4.775  13.857   7.076 -0.1026 -0.3266  0.2246
  981YOPC   C4B13930   4.765  13.587   7.335  0.1733 -0.0062  0.0667
  982YOPC   NC313931  14.627   3.074   5.768 -0.2863 -0.0816  0.2422
  982YOPC   PO413932  14.896   2.674   5.694  0.1693 -0.1192 -0.1437
  982YOPC   GL113933  14.907   2.456   6.023 -0.3341 -0.2420  0.1632
  982YOPC   GL213934  14.635   2.250   5.855  0.3322  0.2079 -0.0144
  982YOPC   C1A13935  14.846   2.370   6.432  0.2456  0.1800 -0.1033
  982YOPC   D2A13936  14.509   2.492   6.719 -0.3377 -0.2483 -0.0171
  982YOPC   C3A13937  14.486   2.466   7.139  0.0157 -0.4145  0.1386
  982YOPC   C4A13938  14.504   2.691   7.532 -0.1041  0.0533  0.1367
  982YOPC   C1B13939  14.744   1.923   6.146  0.0217  0.1935 -0.1856
  982YOPC   C2B13940  14.889   1.887   6.584 -0.0129 -0.0319  0.1592
  982YOPC   D3B13941  15.286   2.085   6.833  0.1153  0.2621 -0.2031
  982YOPC   C4B13942  15.277   2.031   7.179 -0.0955  0.0652 -0.1192
  983YOPC   NC313943   6.822  16.774   5.814  0.3687 -0.0315  0.1601
  983YOPC   PO413944   6.752  16.247   5.756 -0.0376  0.0509 -0.1785
  983YOPC   GL113945   6.553  16.184   6.171  0.2237  0.0016  0.2827
  983YOPC   GL213946   6.766  16.013   6.272 -0.1090  0.0056  0.0339
  983YOPC   C1A13947   6.306  16.137   6.548 -0.4337  0.2546 -0.1617
  983YOPC   D2A13948   6.125  16.056   6.961 -0.1149  0.1494 -0.2801
  983YOPC   C3A13949   6.175  16.002   7.372  0.1145  0.1401 -0.0484
  983YOPC   C4A13950   6.542  15.995   7.619 -0.2597 -0.3279  0.0090
  983YOPC   C1B13951   6.811  16.317   6.634 -0.1605  0.0248 -0.2877
  983YOPC   C2B13952   7.030  16.305   7.037  0.1063 -0.0305  0.0870
  983YOPC   D3B13953   6.988  16.076   7.351  0.0197 -0.0812 -0.5367
  983YOPC   C4B13954   7.096  15.648   7.488 -0.1389 -0.1191  0.3533
  984YOPC   NC313955  16.879   7.205   5.622 -0.1897 -0.2866  0.1373
  984YOPC   PO413956  16.564   6.984   5.268 -0.0164 -0.1158  0.0424
  984YOPC   GL113957  16.538   6.902   5.732  0.0550  0.0859  0.1519
  984YOPC   GL213958  16.584   7.099   6.025 -0.1124  0.0947 -0.1534
  984YOPC   C1A13959  16.239   6.719   6.016 -0.1182 -0.1182 -0.0092
  984YOPC   D2A13960  16.091   6.304   5.992  0.0942  0.0175 -0.0891
  984YOPC   C3A13961  16.181   6.018   6.299 -0.1147  0.0277  0.0573
  984YOPC   C4A13962  16.133   5.771   6.803  0.0814  0.0936 -0.0965
  984YOPC   C1B13963  16.265   7.079   6.345 -0.1208 -0.0284 -0.0205
  984YOPC   C2B13964  16.066   6.603   6.490 -0.1314 -0.2325 -0.1786
  984YOPC   D3B13965  16.077   6.446   6.907 -0.2334 -0.0596  0.0621
  984YOPC   C4B13966  16.242   6.588   7.159  0.3269  0.1777  0.3303
  985YOPC   NC313967   2.502  17.875   5.795 -0.1346  0.0201  0.0056
  985YOPC   PO413968   2.259  18.012   6.056 -0.2385  0.2893  0.0040
  985YOPC   GL113969   2.507  17.912   6.393 -0.1094 -0.1800 -0.0327
  985YOPC   GL213970   2.823  17.965   6.392  0.0226 -0.0988  0.2207
  985YOPC   C1A13971   2.548  17.742   6.798  0.3194 -0.1126  0.2328
  985YOPC   D2A13972   2.578  17.651   7.215 -0.1996  0.4273  0.0839
  985YOPC   C3A13973   2.599  17.771   7.633  0.0985 -0.2163 -0.0366
  985YOPC   C4A13974   2.395  17.721   8.101  0.0758 -0.3317 -0.0293
  985YOPC   C1B13975   3.069  17.878   6.768 -0.0969 -0.0063 -0.2397
  985YOPC   C2B13976   3.024  17.659   6.991 -0.1078 -0.0304  0.2639
  985YOPC   D3B13977   3.088  17.778   7.336  0.0867 -0.0884  0.1417
  985YOPC   C4B13978   3.163  17.925   7.706  0.0616  0.1159 -0.2096
  986YOPC   NC313979   0.411   6.223   5.568 -0.0153 -0.1225  0.2316
  986YOPC   PO413980   0.141   6.086   5.882  0.0778  0.1462  0.1167
  986YOPC   GL113981   0.395   6.194   6.217  0.3773 -0.0160 -0.0033
  986YOPC   GL213982   0.252   6.504   6.330 -0.0676 -0.1009 -0.3640
  986YOPC   C1A13983   0.745   6.408   6.508  0.0207  0.0282  0.1617
  986YOPC   D2A13984   0.990   6.771   6.678  0.2232  0.1808  0.1739
  986YOPC   C3A13985   1.136   6.757   7.126  0.1973  0.0022 -0.1427
  986YOPC   C4A13986   1.255   6.719   7.652 -0.0079 -0.2294  0.1768
  986YOPC   C1B13987   0.293   6.413   6.758 -0.3714 -0.3850 -0.0624
  986YOPC   C2B13988   0.176   6.393   7.159  0.2096 -0.1931 -0.0151
  986YOPC   D3B13989   0.407   6.301   7.448  0.0984 -0.1728 -0.1653
  986YOPC   C4B13990   0.441   5.946   7.725 -0.0400  0.1085 -0.0159
  987YOPC   NC313991   2.425   1.238   6.078  0.1037 -0.2513 -0.4232
  987YOPC   PO413992   2.119   1.573   5.927 -0.0775 -0.0485 -0.0526
  987YOPC   GL113993   2.256   1.671   6.328 -0.0222  0.1021  0.1806
  987YOPC   GL213994   2.484   1.561   6.488  0.2186 -0.1745  0.2174
  987YOPC   C1A13995   2.316   2.034   6.541 -0.3442  0.0732 -0.2407
  987YOPC   D2A13996   2.164   2.473   6.721 -0.1145 -0.2344 -0.0215
  987YOPC   C3A13997   2.053   2.477   7.157  0.3357 -0.1369 -0.1401
  987YOPC   C4A13998   1.909   2.608   7.586 -0.1057 -0.2501  0.0057
  987YOPC   C1B13999   2.154   1.632   6.866  0.0290 -0.0062 -0.0340
  987YOPC   C2B14000   2.116   1.994   7.038 -0.0958  0.1765  0.0036
  987YOPC   D3B14001   2.426   2.084   7.388  0.0605  0.1786 -0.0842
  987YOPC   C4B14002   2.371   2.411   7.704  0.3838  0.0442 -0.2528
  988YOPC   NC314003   2.731   3.135   5.909 -0.0121  0.1512 -0.1283
  988YOPC   PO414004   2.353   3.391   6.010  0.3661 -0.0241 -0.1562
  988YOPC   GL114005   2.335   3.705   6.379  0.0176  0.3744 -0.2663
  988YOPC   GL214006   2.157   3.449   6.438 -0.3400 -0.2525 -0.1061
  988YOPC   C1A14007   2.441   3.945   6.720 -0.1746  0.0148 -0.1689
  988YOPC   D2A14008   2.708   3.861   7.123  0.1193  0.2021  0.2114
  988YOPC   C3A14009   2.988   4.205   7.247  0.0654 -0.3578 -0.0303
  988YOPC   C4A14010   2.858   4.444   7.646  0.0079 -0.2006  0.2190
  988YOPC   C1B14011   2.105   3.426   6.729  0.0818  0.1535  0.1502
  988YOPC   C2B14012   2.215   3.663   7.211 -0.1029 -0.0275  0.2194
  988YOPC   D3B14013   2.409   3.984   7.505  0.1966  0.1858 -0.1633
  988YOPC   C4B14014   2.499   4.236   7.917  0.0127 -0.2056 -0.0314
  989YOPC   NC314015  15.302   3.418   5.781 -0.3599  0.0089  0.2139
  989YOPC   PO414016  14.796   3.569   5.794  0.1469  0.0527  0.1648
  989YOPC   GL114017  14.732   3.731   6.203 -0.0023  0.1878 -0.1640
  989YOPC   GL214018  14.355   3.636   6.290 -0.1318  0.0216  0.0875
  989YOPC   C1A14019  14.657   3.850   6.597 -0.2569  0.1113 -0.0935
  989YOPC   D2A14020  14.622   4.018   7.069  0.1137 -0.0327  0.0012
  989YOPC   C3A14021  14.520   3.684   7.438 -0.1891  0.1897 -0.1202
  989YOPC   C4A14022  14.502   3.596   7.911 -0.1095  0.0873  0.2497
  989YOPC   C1B14023  14.409   3.307   6.399  0.2871  0.1765 -0.0496
  989YOPC   C2B14024  14.349   3.009   6.662  0.2092  0.1262  0.3338
  989YOPC   D3B14025  13.966   3.149   6.809 -0.0984 -0.1767  0.1779
  989YOPC   C4B14026  13.701   3.134   7.125  0.1438 -0.0457 -0.0898
  990YOPC   NC314027   7.377   2.895   5.550 -0.1198  0.2189  0.4089
  990YOPC   PO414028   7.185   3.341   5.582 -0.0153  0.0073  0.4506
  990YOPC   GL114029   6.901   3.486   5.898 -0.1515 -0.0115 -0.0069
  990YOPC   GL214030   7.020   3.857   6.004 -0.2709 -0.1082  0.3296
  990YOPC   C1A14031   6.708   3.719   6.307 -0.1391 -0.0457  0.0392
  990YOPC   D2A14032   6.746   3.726   6.759  0.2131 -0.0698 -0.0852
  990YOPC   C3A14033   6.983   3.893   7.034 -0.0750  0.1022  0.2539
  990YOPC   C4A14034   6.830   4.008   7.450  0.1679  0.0199 -0.1179
  990YOPC   C1B14035   7.342   4.107   6.146  0.0795  0.1112  0.0526
  990YOPC   C2B14036   7.604   4.311   6.433 -0.1619  0.2962 -0.0684
  990YOPC   D3B14037   7.844   4.148   6.784 -0.0726 -0.2668  0.1187
  990YOPC   C4B14038   7.882   4.122   7.217  0.0082 -0.3938 -0.1009
  991YOPC   NC314039  15.108  10.869   5.394  0.1321 -0.0066 -0.2673
  991YOPC   PO414040  15.123  10.616   5.800  0.0514 -0.0585  0.1173
  991YOPC   GL114041  15.062  10.509   6.181  0.3071  0.0050 -0.1599
  991YOPC   GL214042  14.796  10.466   6.434  0.0438  0.0399  0.3891
  991YOPC   C1A14043  15.259  10.434   6.640 -0.0932  0.0289  0.1170
  991YOPC   D2A14044  15.270  10.372   7.087  0.1230 -0.0768  0.0894
  991YOPC   C3A14045  15.459  10.167   7.321 -0.2088 -0.0685 -0.3552
  991YOPC   C4A14046  15.556   9.747   7.001  0.0913 -0.0798 -0.2017
  991YOPC   C1B14047  14.773  10.548   6.853  0.1249 -0.0346 -0.3981
  991YOPC   C2B14048  14.790  10.434   7.258 -0.1094 -0.1155 -0.4113
  991YOPC   D3B14049  15.163  10.507   7.562  0.0028  0.0195 -0.1306
  991YOPC   C4B14050  15.257  10.781   7.961  0.1201  0.2202  0.1921
  992YOPC   NC314051   1.707   1.419   5.792  0.0547  0.2570  0.0579
  992YOPC   PO414052   1.885   1.089   5.931 -0.0391 -0.1538 -0.0346
  992YOPC   GL114053   1.961   1.233   6.294  0.4018 -0.0301 -0.0216
  992YOPC   GL214054   2.168   1.168   6.508 -0.0239  0.0204  0.0754
  992YOPC   C1A14055   1.726   1.450   6.633  0.1832 -0.0101 -0.0637
  992YOPC   D2A14056   1.675   1.637   7.101 -0.1035  0.2077 -0.1282
  992YOPC   C3A14057   1.783   1.623   7.563 -0.2230  0.2560  0.1389
  992YOPC   C4A14058   1.988   1.455   7.877 -0.1197 -0.1323 -0.1738
  992YOPC   C1B14059   2.097   1.144   6.926 -0.2253 -0.2408  0.0863
  992YOPC   C2B14060   2.032   1.311   7.236  0.0774 -0.1634 -0.2848
  992YOPC   D3B14061   2.329   1.543   7.401  0.1527 -0.1831 -0.1768
  992YOPC   C4B14062   2.387   1.776   7.801  0.2372  0.0186  0.1398
  993YOPC   NC314063   8.479   2.035   5.594 -0.0624 -0.1811 -0.5409
  993YOPC   PO414064   8.052   2.194   5.507 -0.1452  0.1089 -0.1639
  993YOPC   GL114065   8.069   2.263   5.883  0.2293  0.1868 -0.0950
  993YOPC   GL214066   8.354   2.332   6.000  0.2413  0.0848  0.1164
  993YOPC   C1A14067   7.748   2.259   6.227  0.0418  0.1659  0.1089
  993YOPC   D2A14068   7.812   2.322   6.619  0.0967 -0.0431  0.1948
  993YOPC   C3A14069   8.073   2.197   6.959  0.1467 -0.1518 -0.1377
  993YOPC   C4A14070   8.111   2.008   7.402 -0.2105 -0.0223  0.0747
  993YOPC   C1B14071   8.378   2.255   6.394 -0.0580  0.2646  0.2502
  993YOPC   C2B14072   8.499   2.415   6.802 -0.2714 -0.1297  0.1113
  993YOPC   D3B14073   8.769   2.524   7.197 -0.1604  0.2215  0.1640
  993YOPC   C4B14074   8.693   2.686   7.495  0.0316 -0.0334  0.2590
  994YOPC   NC314075   4.967  10.751   5.779  0.0611  0.0034  0.0475
  994YOPC   PO414076   4.680  10.765   6.101 -0.1447 -0.1661 -0.4855
  994YOPC   GL114077   4.905  10.815   6.544 -0.0344 -0.1734 -0.0510
  994YOPC   GL214078   5.202  10.757   6.647  0.2079  0.1242 -0.1358
  994YOPC   C1A14079   4.948  10.880   7.020 -0.0700  0.4411 -0.0050
  994YOPC   D2A14080   5.076  11.002   7.373  0.3481 -0.3455  0.0736
  994YOPC   C3A14081   4.884  10.959   7.708  0.0312 -0.0119 -0.2531
  994YOPC   C4A14082   4.936  11.226   8.085  0.1838  0.1422 -0.2244
  994YOPC   C1B14083   5.509  10.876   6.896  0.1243  0.0166  0.1133
  994YOPC   C2B14084   5.542  11.056   7.221 -0.0614  0.1640 -0.2700
  994YOPC   D3B14085   5.517  10.787   7.585 -0.1213 -0.0788  0.0815
  994YOPC   C4B14086   5.352  10.890   7.956  0.0479 -0.1848 -0.0593
  995YOPC   NC314087  15.518   7.286   5.756  0.2248 -0.0263 -0.1046
  995YOPC   PO414088  15.095   7.006   5.657 -0.3045 -0.0791 -0.2153
  995YOPC   GL114089  15.222   6.820   6.053 -0.0460 -0.2381  0.0948
  995YOPC   GL214090  15.337   6.502   6.194  0.2031  0.0673  0.0350
  995YOPC   C1A14091  15.152   7.049   6.447 -0.2731 -0.1132 -0.0080
  995YOPC   D2A14092  15.339   6.903   6.858  0.0796 -0.0232  0.3059
  995YOPC   C3A14093  15.183   6.641   7.141 -0.0845  0.1095 -0.0426
  995YOPC   C4A14094  15.448   6.356   7.373 -0.3060  0.3035  0.1260
  995YOPC   C1B14095  15.608   6.590   6.490 -0.1597  0.0117  0.1682
  995YOPC   C2B14096  15.552   6.464   6.881  0.0863  0.3055  0.0248
  995YOPC   D3B14097  15.724   6.775   7.185  0.2464 -0.0254 -0.0526
  995YOPC   C4B14098  15.829   6.588   7.646  0.0012  0.4177  0.0210
  996YOPC   NC314099   9.819  13.350   6.008  0.0754 -0.4034 -0.4245
  996YOPC   PO414100   9.449  13.064   6.206  0.0105 -0.1063 -0.3405
  996YOPC   GL114101   9.526  12.960   6.615  0.0219  0.0316 -0.2776
  996YOPC   GL214102   9.338  12.737   6.847  0.1760 -0.1303  0.0147
  996YOPC   C1A14103   9.809  12.850   6.924 -0.0463  0.0342 -0.3087
  996YOPC   D2A14104   9.740  12.869   7.317 -0.3574  0.2479  0.2747
  996YOPC   C3A14105   9.440  12.633   7.530 -0.0270 -0.0626  0.2318
  996YOPC   C4A14106   9.301  12.613   8.018 -0.0230 -0.0188 -0.0229
  996YOPC   C1B14107   9.290  12.933   7.166 -0.2351 -0.0127 -0.1087
  996YOPC   C2B14108   8.977  13.325   7.140 -0.2769  0.5128 -0.1846
  996YOPC   D3B14109   8.866  13.393   7.515  0.0501  0.1712  0.2041
  996YOPC   C4B14110   8.941  13.462   7.948 -0.0809  0.1126 -0.3764
  997YOPC   NC314111   7.929   0.862   5.663 -0.0636  0.2402 -0.1300
  997YOPC   PO414112   8.217   0.590   5.415 -0.1159  0.0788  0.0871
  997YOPC   GL114113   8.136   0.281   5.777 -0.1007  0.0948  0.4736
  997YOPC   GL214114   8.427   0.159   5.895 -0.1854 -0.3157 -0.2363
  997YOPC   C1A14115   7.821   0.004   5.942 -0.5066 -0.1616  0.1316
  997YOPC   D2A14116   7.667  -0.383   6.210 -0.1629 -0.0019  0.0741
  997YOPC   C3A14117   7.884  -0.613   6.451 -0.0444 -0.0085 -0.2265
  997YOPC   C4A14118   8.080  -0.949   6.467  0.3459 -0.1610 -0.0459
  997YOPC   C1B14119   8.575   0.096   6.333 -0.2549 -0.0043 -0.1001
  997YOPC   C2B14120   8.477  -0.091   6.740 -0.2613  0.1436  0.4599
  997YOPC   D3B14121   8.100  -0.130   6.950  0.1202  0.0825  0.0048
  997YOPC   C4B14122   7.657  -0.097   6.766 -0.4475  0.3455  0.0055
  998YOPC   NC314123   2.440   7.944   6.398  0.1566 -0.0053  0.0577
  998YOPC   PO414124   2.234   8.251   6.358 -0.5578  0.0201  0.3925
  998YOPC   GL114125   2.444   8.233   6.780 -0.0196 -0.0849 -0.1899
  998YOPC   GL214126   2.264   7.839   6.924  0.0181 -0.4208  0.2810
  998YOPC   C1A14127   2.681   8.477   7.082  0.1235  0.0976 -0.1398
  998YOPC   D2A14128   2.518   8.607   7.525  0.2914  0.2148 -0.3808
  998YOPC   C3A14129   2.092   8.372   7.671  0.3256  0.1188 -0.0875
  998YOPC   C4A14130   2.114   8.062   8.048  0.1136  0.3181  0.1069
  998YOPC   C1B14131   2.440   7.402   6.982 -0.1355 -0.1290 -0.0163
  998YOPC   C2B14132   2.522   6.977   6.848  0.0773  0.1609 -0.2675
  998YOPC   D3B14133   2.832   6.751   7.175 -0.0595  0.2347  0.0867
  998YOPC   C4B14134   3.130   6.395   7.457 -0.3892 -0.1790 -0.1647
  999YOPC   NC314135   8.673  13.746   6.198  0.0163 -0.3225 -0.0640
  999YOPC   PO414136   8.971  13.961   6.077  0.2076 -0.1360 -0.2786
  999YOPC   GL114137   9.001  14.097   6.506  0.1859 -0.0254 -0.1219
  999YOPC   GL214138   9.223  14.269   6.584  0.0504  0.1208 -0.0650
  999YOPC   C1A14139   8.750  14.203   6.859 -0.0471  0.1401 -0.4118
  999YOPC   D2A14140   8.726  14.253   7.355 -0.1845  0.3124  0.0742
  999YOPC   C3A14141   8.635  14.280   7.796 -0.0136 -0.2228 -0.1608
  999YOPC   C4A14142   8.451  14.163   8.137  0.0987  0.0473  0.2278
  999YOPC   C1B14143   9.212  14.366   7.024 -0.2952  0.1263 -0.1833
  999YOPC   C2B14144   9.187  14.313   7.524 -0.0368 -0.2525  0.0792
  999YOPC   D3B14145   9.445  14.354   7.865 -0.0351  0.0667  0.0647
  999YOPC   C4B14146   9.503  14.178   8.262 -0.0262 -0.0328 -0.0601
 1000YOPC   NC314147   0.929  11.303   5.363  0.2423  0.1301 -0.0103
 1000YOPC   PO414148   1.398  11.234   5.585  0.0772 -0.1340  0.3713
 1000YOPC   GL114149   1.360  11.429   5.954  0.4068 -0.0250 -0.1933
 1000YOPC   GL214150   1.045  11.419   6.006 -0.1237 -0.1591 -0.1379
 1000YOPC   C1A14151   1.343  11.203   6.360 -0.0149  0.0118 -0.1968
 1000YOPC   D2A14152   1.199  10.785   6.323 -0.0658 -0.1107 -0.0325
 1000YOPC   C3A14153   0.854  10.655   6.246  0.2265  0.1037  0.0556
 1000YOPC   C4A14154   0.458  10.430   6.384 -0.2413  0.0176 -0.2506
 1000YOPC   C1B14155   1.006  11.599   6.433 -0.1198  0.3802 -0.0995
 1000YOPC   C2B14156   0.839  11.776   6.807  0.0021  0.2677 -0.2692
 1000YOPC   D3B14157   1.109  11.635   7.138  0.3388  0.0341  0.2915
 1000YOPC   C4B14158   1.025  11.674   7.532 -0.1303  0.1684 -0.1591
 1001YOPC   NC314159   0.969   5.488   5.459 -0.1640  0.1440 -0.0596
 1001YOPC   PO414160   0.715   5.782   5.597  0.2068  0.0211  0.2068
 1001YOPC   GL114161   0.570   5.834   5.944 -0.1869 -0.0224  0.0580
 1001YOPC   GL214162   0.574   5.592   6.192 -0.1033 -0.2630  0.3356
 1001YOPC   C1A14163   0.840   5.976   6.349 -0.0378 -0.0299  0.1156
 1001YOPC   D2A14164   0.757   5.831   6.692  0.0109  0.0047 -0.2912
 1001YOPC   C3A14165   0.626   6.061   6.939 -0.2259  0.2151 -0.0958
 1001YOPC   C4A14166   0.682   6.533   7.038  0.0491 -0.1354  0.2121
 1001YOPC   C1B14167   0.896   5.438   6.471 -0.3280  0.1305  0.3915
 1001YOPC   C2B14168   0.895   5.151   6.678  0.0867  0.0791 -0.0934
 1001YOPC   D3B14169   0.831   5.145   7.187  0.1336 -0.0848 -0.1037
 1001YOPC   C4B14170   0.800   5.088   7.592 -0.1031  0.2503 -0.2629
 1002YOPC   NC314171   8.950  15.627   5.924 -0.2507  0.0944  0.1673
 1002YOPC   PO414172   8.717  15.914   5.746  0.0123 -0.1225 -0.1860
 1002YOPC   GL114173   8.702  15.997   6.213  0.0155 -0.0590 -0.0069
 1002YOPC   GL214174   8.878  16.146   6.392  0.0411  0.2229 -0.2040
 1002YOPC   C1A14175   8.593  15.842   6.639 -0.2233  0.0102 -0.2370
 1002YOPC   D2A14176   8.370  15.846   6.942  0.0972 -0.2210 -0.0523
 1002YOPC   C3A14177   8.315  15.615   7.258  0.0526  0.0240 -0.0685
 1002YOPC   C4A14178   8.075  15.734   7.584  0.0525 -0.4874 -0.0555
 1002YOPC   C1B14179   8.913  16.195   6.879  0.3770  0.0177 -0.3085
 1002YOPC   C2B14180   8.740  15.989   7.254 -0.1998  0.2489  0.2585
 1002YOPC   D3B14181   8.756  15.684   7.431  0.1508  0.2157  0.3683
 1002YOPC   C4B14182   8.535  15.457   7.734 -0.0894  0.2003 -0.0932
 1003YOPC   NC314183  10.149  17.454   5.727 -0.1565  0.0899  0.0456
 1003YOPC   PO414184  10.140  17.135   6.029  0.0501  0.0598 -0.1306
 1003YOPC   GL114185   9.920  17.306   6.278  0.2870  0.0996 -0.1472
 1003YOPC   GL214186   9.887  17.626   6.259 -0.1708 -0.2796  0.2020
 1003YOPC   C1A14187   9.834  17.276   6.685 -0.1323 -0.1356 -0.1584
 1003YOPC   D2A14188   9.750  17.416   7.063  0.1147 -0.0787  0.1766
 1003YOPC   C3A14189   9.991  17.662   7.334  0.1450 -0.0625  0.0270
 1003YOPC   C4A14190  10.018  17.953   7.621 -0.0732  0.2079  0.0379
 1003YOPC   C1B14191   9.830  17.742   6.700 -0.1031 -0.1770  0.1266
 1003YOPC   C2B14192   9.563  17.929   7.147  0.0757 -0.0576 -0.0783
 1003YOPC   D3B14193   9.508  17.798   7.602  0.0089 -0.1404  0.1005
 1003YOPC   C4B14194   9.518  18.167   7.882  0.0543  0.1820 -0.4056
 1004YOPC   NC314195  15.971  12.915   6.185 -0.3549  0.0124  0.1212
 1004YOPC   PO414196  15.938  12.456   6.098 -0.2030 -0.1462 -0.1540
 1004YOPC   GL114197  16.062  12.265   6.466 -0.0918  0.1445 -0.2173
 1004YOPC   GL214198  16.208  12.611   6.539 -0.1361  0.0118  0.0030
 1004YOPC   C1A14199  16.345  12.081   6.887  0.3702 -0.1923  0.0053
 1004YOPC   D2A14200  16.465  12.042   7.340 -0.2593 -0.1998 -0.1175
 1004YOPC   C3A14201  16.343  12.001   7.661 -0.0609 -0.0905 -0.1200
 1004YOPC   C4A14202  16.313  12.143   8.164 -0.0620 -0.1740  0.0137
 1004YOPC   C1B14203  16.548  12.548   6.892 -0.1033 -0.2639 -0.2641
 1004YOPC   C2B14204  16.664  12.562   7.296  0.1879 -0.0071 -0.1113
 1004YOPC   D3B14205  16.822  12.288   7.647  0.0945  0.1612  0.4460
 1004YOPC   C4B14206  16.786  12.193   7.985 -0.0684 -0.2366 -0.0223
 1005YOPC   NC314207  12.102   5.160   5.765 -0.1090  0.3655 -0.0994
 1005YOPC   PO414208  12.527   4.952   5.777  0.1519 -0.0399  0.4678
 1005YOPC   GL114209  12.580   4.878   6.202 -0.1407 -0.0542 -0.2897
 1005YOPC   GL214210  12.611   4.488   6.310  0.4030 -0.1357 -0.1074
 1005YOPC   C1A14211  12.675   4.868   6.590 -0.0351  0.0724 -0.1207
 1005YOPC   D2A14212  12.531   5.153   6.899 -0.1779  0.0601  0.0170
 1005YOPC   C3A14213  12.702   5.141   7.290 -0.2704 -0.0746  0.0789
 1005YOPC   C4A14214  12.869   5.174   7.710  0.0372  0.1484 -0.0546
 1005YOPC   C1B14215  12.522   4.413   6.770 -0.1669  0.1568  0.0211
 1005YOPC   C2B14216  12.526   4.693   7.061 -0.0402  0.1324  0.1856
 1005YOPC   D3B14217  12.705   4.621   7.535  0.0222  0.0348 -0.2359
 1005YOPC   C4B14218  12.708   4.693   7.897  0.0123 -0.4173 -0.1302
 1006YOPC   NC314219   2.268   8.847   6.122  0.1010 -0.5263  0.0393
 1006YOPC   PO414220   1.921   8.722   6.237  0.1581  0.1687 -0.3075
 1006YOPC   GL114221   1.917   9.024   6.534  0.1387  0.2380  0.0015
 1006YOPC   GL214222   1.772   9.307   6.513  0.0932  0.2188 -0.1158
 1006YOPC   C1A14223   1.979   9.134   6.985  0.0258 -0.2127  0.0911
 1006YOPC   D2A14224   1.970   9.013   7.365  0.0274  0.2818  0.0266
 1006YOPC   C3A14225   2.262   9.000   7.765  0.0533 -0.0928 -0.1231
 1006YOPC   C4A14226   2.500   8.796   8.127  0.2159 -0.0694 -0.2312
 1006YOPC   C1B14227   1.616   9.537   6.885  0.1438 -0.2042 -0.1824
 1006YOPC   C2B14228   1.498   9.775   7.202 -0.1874  0.1903  0.0743
 1006YOPC   D3B14229   1.683   9.886   7.535 -0.2097 -0.2597  0.0643
 1006YOPC   C4B14230   1.662   9.922   7.934  0.2383  0.0976  0.1363
 1007YOPC   NC314231  11.985   1.629   5.457  0.0948  0.2050  0.1352
 1007YOPC   PO414232  12.393   1.738   5.693 -0.0867 -0.3127 -0.1087
 1007YOPC   GL114233  12.240   1.809   6.100 -0.0382  0.2176  0.1220
 1007YOPC   GL214234  11.866   1.670   6.171 -0.1005 -0.2233  0.2627
 1007YOPC   C1A14235  12.021   1.948   6.580 -0.0932 -0.1351 -0.1973
 1007YOPC   D2A14236  12.179   1.986   7.052 -0.2161 -0.1265  0.0757
 1007YOPC   C3A14237  11.894   1.827   7.344 -0.1571 -0.3112 -0.1701
 1007YOPC   C4A14238  11.478   1.687   7.451  0.1459  0.0216  0.0990
 1007YOPC   C1B14239  11.967   1.395   6.577 -0.1789 -0.3307 -0.1083
 1007YOPC   C2B14240  11.978   1.502   6.941  0.0827  0.0991  0.0704
 1007YOPC   D3B14241  11.914   1.304   7.304  0.1015  0.0203  0.2539
 1007YOPC   C4B14242  11.830   1.402   7.684  0.1477  0.2314  0.0397
 1008YOPC   NC314243   4.715  16.660   5.858  0.1129  0.0333 -0.0656
 1008YOPC   PO414244   4.489  16.243   6.097  0.1420  0.2319  0.1928
 1008YOPC   GL114245   4.442  16.256   6.549 -0.0378 -0.0536 -0.0802
 1008YOPC   GL214246   4.164  16.113   6.787 -0.0903  0.1534  0.0184
 1008YOPC   C1A14247   4.468  16.552   7.002  0.0905  0.1830  0.2098
 1008YOPC   D2A14248   4.536  16.912   7.253  0.1041  0.1545 -0.0756
 1008YOPC   C3A14249   4.804  16.906   7.548  0.0773  0.2654 -0.1472
 1008YOPC   C4A14250   5.164  16.902   7.839 -0.0994 -0.0747 -0.4275
 1008YOPC   C1B14251   4.330  16.069   7.159 -0.0670  0.0036 -0.0551
 1008YOPC   C2B14252   4.364  15.837   7.614 -0.0937 -0.1520 -0.0201
 1008YOPC   D3B14253   4.460  15.639   8.018 -0.1759 -0.0284  0.3245
 1008YOPC   C4B14254   4.792  15.603   8.300 -0.1020 -0.0802  0.2637
 1009YOPC   NC314255   7.647  17.263   5.333 -0.2172  0.2263  0.1257
 1009YOPC   PO414256   7.989  17.454   5.544  0.0264 -0.0643 -0.0470
 1009YOPC   GL114257   8.117  17.610   6.014 -0.3453  0.0381 -0.0721
 1009YOPC   GL214258   8.424  17.640   5.947 -0.0673  0.2296  0.0199
 1009YOPC   C1A14259   8.144  17.890   6.364 -0.1216  0.0536 -0.1672
 1009YOPC   D2A14260   7.968  18.153   6.413  0.1171 -0.1890 -0.2151
 1009YOPC   C3A14261   8.188  18.513   6.331 -0.1366  0.3483  0.0581
 1009YOPC   C4A14262   8.171  18.833   6.533  0.1436  0.0163  0.0382
 1009YOPC   C1B14263   8.435  17.492   6.355  0.1628 -0.1463  0.3040
 1009YOPC   C2B14264   8.340  17.529   6.754 -0.0440 -0.1230  0.3579
 1009YOPC   D3B14265   8.198  17.215   7.044  0.1470  0.1287  0.2630
 1009YOPC   C4B14266   8.050  17.207   7.415 -0.0301 -0.1341 -0.1825
 1010YOPC   NC314267  18.071  14.597   5.995  0.1076 -0.0044 -0.3172
 1010YOPC   PO414268  18.496  14.624   6.196  0.3062 -0.0835  0.0029
 1010YOPC   GL114269  18.774  14.622   6.511 -0.0738 -0.0280 -0.1357
 1010YOPC   GL214270  19.098  14.742   6.526  0.1043  0.2012 -0.0296
 1010YOPC   C1A14271  18.729  14.680   6.977  0.1213 -0.0232  0.1145
 1010YOPC   D2A14272  18.782  14.852   7.401 -0.0990  0.1667 -0.3804
 1010YOPC   C3A14273  18.309  14.833   7.691  0.2044  0.0020  0.0056
 1010YOPC   C4A14274  18.186  15.131   7.932  0.1140  0.1693 -0.1125
 1010YOPC   C1B14275  19.114  15.033   6.901 -0.2795 -0.0019  0.0963
 1010YOPC   C2B14276  19.163  15.236   7.255  0.3917  0.3208  0.0185
 1010YOPC   D3B14277  19.093  15.160   7.712 -0.1080 -0.0054  0.1107
 1010YOPC   C4B14278  18.977  14.734   7.880  0.0213 -0.2592 -0.0945
 1011YOPC   NC314279  12.890   1.857   5.616 -0.4173 -0.1548  0.1415
 1011YOPC   PO414280  13.190   1.703   5.912 -0.1793  0.2602  0.1282
 1011YOPC   GL114281  13.427   1.894   6.232 -0.1958 -0.0787  0.1380
 1011YOPC   GL214282  13.672   1.767   6.325 -0.1542 -0.0311 -0.1731
 1011YOPC   C1A14283  13.516   1.973   6.739  0.0924 -0.1620 -0.3167
 1011YOPC   D2A14284  13.415   2.081   7.051  0.0690  0.0150 -0.1381
 1011YOPC   C3A14285  13.245   1.892   7.430 -0.0993  0.0185  0.1564
 1011YOPC   C4A14286  13.028   1.838   7.744 -0.0833 -0.1484 -0.0308
 1011YOPC   C1B14287  13.921   1.669   6.746 -0.1949  0.2388 -0.3235
 1011YOPC   C2B14288  14.162   1.550   7.055  0.0321 -0.1195 -0.0157
 1011YOPC   D3B14289  14.359   1.769   7.435 -0.0068  0.0159 -0.1423
 1011YOPC   C4B14290  14.355   2.208   7.560 -0.2947 -0.0240 -0.0183
 1012YOPC   NC314291   5.061  12.451   6.062 -0.1474  0.0170  0.0086
 1012YOPC   PO414292   4.805  12.720   5.864  0.0823  0.0007  0.1299
 1012YOPC   GL114293   4.683  12.723   6.359  0.2533 -0.2061  0.0082
 1012YOPC   GL214294   4.571  12.402   6.492 -0.2065  0.4666  0.2016
 1012YOPC   C1A14295   4.351  12.977   6.577 -0.1540 -0.2568  0.0723
 1012YOPC   D2A14296   4.238  13.434   6.415 -0.0073  0.1185  0.2893
 1012YOPC   C3A14297   3.914  13.550   6.678 -0.0096 -0.2960  0.2034
 1012YOPC   C4A14298   3.576  13.371   6.768 -0.0580  0.0934 -0.0664
 1012YOPC   C1B14299   4.612  12.676   6.875  0.0335  0.3658  0.2210
 1012YOPC   C2B14300   4.537  12.740   7.302 -0.1716  0.0168  0.0443
 1012YOPC   D3B14301   4.357  12.688   7.771  0.1545  0.2561 -0.0762
 1012YOPC   C4B14302   4.432  12.879   8.133 -0.0377 -0.1474 -0.3023
 1013YOPC   NC314303   6.079   4.117   5.900  0.1957 -0.1995 -0.3751
 1013YOPC   PO414304   6.148   3.684   5.698  0.0002  0.0749  0.0106
 1013YOPC   GL114305   6.265   3.661   6.162  0.2011 -0.2982  0.2541
 1013YOPC   GL214306   6.060   3.812   6.376 -0.2501  0.0764 -0.1556
 1013YOPC   C1A14307   6.364   3.452   6.523  0.0064 -0.2173 -0.2062
 1013YOPC   D2A14308   6.439   3.338   6.944 -0.1059  0.2428 -0.0026
 1013YOPC   C3A14309   6.737   3.499   7.276  0.1701  0.1780 -0.0878
 1013YOPC   C4A14310   7.181   3.490   7.507  0.0054 -0.2590 -0.1605
 1013YOPC   C1B14311   6.105   3.773   6.832  0.1638  0.0780  0.2296
 1013YOPC   C2B14312   6.158   3.633   7.290 -0.2972 -0.0655 -0.1362
 1013YOPC   D3B14313   6.366   3.774   7.642 -0.1603  0.0324  0.2813
 1013YOPC   C4B14314   6.471   3.703   8.022  0.1696  0.0569  0.0220
 1014YOPC   NC314315  11.138  11.707   5.880 -0.0490  0.1593 -0.0841
 1014YOPC   PO414316  11.224  11.366   6.063 -0.2475 -0.2098  0.0187
 1014YOPC   GL114317  11.338  11.297   6.496 -0.2212  0.1315  0.1181
 1014YOPC   GL214318  11.340  11.093   6.561 -0.1311  0.2456  0.1376
 1014YOPC   C1A14319  11.440  11.512   6.847  0.0779 -0.0341 -0.1494
 1014YOPC   D2A14320  11.502  11.499   7.332 -0.2328 -0.2193  0.4692
 1014YOPC   C3A14321  11.539  11.048   7.538  0.2675  0.1601 -0.0548
 1014YOPC   C4A14322  11.864  11.001   7.824 -0.2585  0.2892 -0.2643
 1014YOPC   C1B14323  11.537  10.754   6.796  0.2101  0.1392 -0.1739
 1014YOPC   C2B14324  11.661  10.707   7.158 -0.0462  0.0606  0.0147
 1014YOPC   D3B14325  11.763  10.523   7.464 -0.3052 -0.1489 -0.2243
 1014YOPC   C4B14326  11.713  10.527   7.874  0.4897  0.0384  0.0143
 1015YOPC   NC314327  14.144   4.492   5.948  0.1874 -0.2648 -0.0082
 1015YOPC   PO414328  13.639   4.282   5.963  0.2933  0.0597 -0.2301
 1015YOPC   GL114329  13.570   4.080   6.308  0.1515  0.1266 -0.4612
 1015YOPC   GL214330  13.621   3.758   6.194 -0.1470  0.0423 -0.1185
 1015YOPC   C1A14331  13.434   4.052   6.763 -0.1885 -0.2064 -0.0302
 1015YOPC   D2A14332  13.433   4.059   7.173 -0.1426 -0.0331 -0.1073
 1015YOPC   C3A14333  13.278   3.870   7.540 -0.0980 -0.0329 -0.0651
 1015YOPC   C4A14334  13.336   3.918   7.935  0.0811 -0.0235 -0.0214
 1015YOPC   C1B14335  13.929   3.746   6.533 -0.2292  0.0409  0.0328
 1015YOPC   C2B14336  14.259   3.558   6.774 -0.1486 -0.4768 -0.3061
 1015YOPC   D3B14337  14.098   3.493   7.219 -0.2330 -0.1785  0.0704
 1015YOPC   C4B14338  14.012   3.589   7.634 -0.2548 -0.0530  0.0600
 1016YOPC   NC314339   1.173  11.736   5.572 -0.2004  0.0997  0.1438
 1016YOPC   PO414340   0.745  11.620   5.673 -0.2127  0.1337 -0.1234
 1016YOPC   GL114341   0.584  11.357   5.948 -0.1015  0.3328  0.3235
 1016YOPC   GL214342   0.283  11.457   6.094  0.2194 -0.1377 -0.3199
 1016YOPC   C1A14343   0.807  11.147   6.387 -0.1014 -0.3140 -0.0513
 1016YOPC   D2A14344   0.691  10.845   6.729  0.0972  0.0278 -0.0011
 1016YOPC   C3A14345   0.715  10.913   7.165 -0.1154 -0.1280  0.1472
 1016YOPC   C4A14346   0.689  10.968   7.634  0.0675  0.0088 -0.2067
 1016YOPC   C1B14347   0.462  11.524   6.512  0.3112 -0.1135 -0.2529
 1016YOPC   C2B14348   0.660  11.327   6.796 -0.0622  0.3600 -0.1933
 1016YOPC   D3B14349   1.024  11.237   6.871  0.1054 -0.1871 -0.1087
 1016YOPC   C4B14350   1.244  10.886   6.888 -0.0406  0.0564  0.0886
 1017YOPC   NC314351   4.327   7.672   5.892 -0.1885  0.2563  0.1037
 1017YOPC   PO414352   4.364   8.106   6.116  0.0134 -0.1720  0.0956
 1017YOPC   GL114353   4.261   7.916   6.382 -0.0569  0.0539  0.0872
 1017YOPC   GL214354   4.277   8.121   6.622  0.0429  0.1695  0.2092
 1017YOPC   C1A14355   4.236   7.700   6.844  0.3361  0.1135 -0.0479
 1017YOPC   D2A14356   3.953   7.760   7.093 -0.2602 -0.0434  0.0063
 1017YOPC   C3A14357   3.719   7.702   7.442  0.3803  0.0521 -0.2303
 1017YOPC   C4A14358   3.520   7.782   7.842 -0.0959 -0.0569 -0.1765
 1017YOPC   C1B14359   4.104   8.429   6.855 -0.3066 -0.0010  0.3060
 1017YOPC   C2B14360   3.895   8.612   7.201  0.0116  0.1707  0.3968
 1017YOPC   D3B14361   3.922   8.598   7.613 -0.0096 -0.2821  0.0279
 1017YOPC   C4B14362   3.886   8.296   7.918  0.3302  0.2017  0.0872
 1018YOPC   NC314363  13.637  16.345   6.016 -0.0002  0.3314 -0.0747
 1018YOPC   PO414364  13.307  16.166   6.197 -0.0244 -0.3763 -0.0855
 1018YOPC   GL114365  13.351  16.193   6.585 -0.3038  0.2074 -0.1388
 1018YOPC   GL214366  13.451  16.457   6.642  0.0450 -0.2197  0.2631
 1018YOPC   C1A14367  13.288  16.199   6.985  0.0259  0.0657 -0.0829
 1018YOPC   D2A14368  13.314  16.478   7.421 -0.2754 -0.0263  0.0012
 1018YOPC   C3A14369  13.206  16.333   7.836 -0.1514 -0.2553  0.2629
 1018YOPC   C4A14370  12.777  16.404   7.997 -0.0312  0.1320  0.0375
 1018YOPC   C1B14371  13.771  16.517   6.926  0.2456 -0.2326 -0.2829
 1018YOPC   C2B14372  14.028  16.758   7.134  0.0452  0.1232  0.1563
 1018YOPC   D3B14373  13.838  16.989   7.522 -0.0009  0.1480  0.1127
 1018YOPC   C4B14374  13.728  17.194   7.934 -0.0437 -0.0560  0.5193
 1019YOPC   NC314375  15.951   9.654   5.509  0.0766 -0.0791 -0.0415
 1019YOPC   PO414376  15.491   9.717   5.592  0.1164 -0.2188 -0.0188
 1019YOPC   GL114377  15.313   9.623   6.018  0.0158 -0.1186  0.2300
 1019YOPC   GL214378  15.314   9.233   6.098 -0.0959  0.2747 -0.1894
 1019YOPC   C1A14379  15.419   9.666   6.398  0.1423 -0.0517  0.3469
 1019YOPC   D2A14380  15.769   9.918   6.491  0.2470 -0.0974 -0.4377
 1019YOPC   C3A14381  15.857  10.094   6.858  0.0386 -0.0203 -0.0003
 1019YOPC   C4A14382  15.892  10.340   7.158  0.1085 -0.1585  0.1601
 1019YOPC   C1B14383  15.310   9.166   6.560  0.0134  0.2337 -0.0411
 1019YOPC   C2B14384  15.009   9.011   6.877 -0.1907  0.0122  0.0813
 1019YOPC   D3B14385  14.991   8.949   7.358  0.4225 -0.4468  0.1774
 1019YOPC   C4B14386  14.959   9.194   7.719  0.1049 -0.0874 -0.2729
 1020YOPC   NC314387   4.417   6.632   5.895  0.2298 -0.1375  0.1591
 1020YOPC   PO414388   4.196   7.020   6.127  0.0254 -0.1861  0.1237
 1020YOPC   GL114389   4.086   6.913   6.490  0.0433 -0.0140  0.0238
 1020YOPC   GL214390   4.363   7.137   6.622 -0.1733 -0.2082  0.0827
 1020YOPC   C1A14391   4.032   6.966   6.959  0.1100 -0.2689  0.2481
 1020YOPC   D2A14392   3.936   6.894   7.324 -0.0848  0.2174  0.0971
 1020YOPC   C3A14393   4.053   7.025   7.749 -0.0556 -0.0267 -0.0372
 1020YOPC   C4A14394   4.028   6.648   8.042  0.0441  0.1736 -0.4279
 1020YOPC   C1B14395   4.474   7.302   7.043 -0.0774  0.1630 -0.2312
 1020YOPC   C2B14396   4.076   7.390   7.311  0.0204  0.0614 -0.1974
 1020YOPC   D3B14397   4.083   7.580   7.755  0.2910 -0.3285 -0.1481
 1020YOPC   C4B14398   4.334   7.704   8.107 -0.1329 -0.1748  0.0626
 1021YOPC   NC314399   6.252   0.940   6.186 -0.1570  0.3540 -0.5758
 1021YOPC   PO414400   6.279   1.329   6.432  0.1762 -0.1905  0.0562
 1021YOPC   GL114401   6.535   1.346   6.727  0.1454  0.2175  0.1833
 1021YOPC   GL214402   6.503   0.927   6.654  0.1648 -0.1036  0.0899
 1021YOPC   C1A14403   6.698   1.215   7.098 -0.0817  0.2634 -0.0851
 1021YOPC   D2A14404   6.755   1.223   7.579  0.0480 -0.0147 -0.2432
 1021YOPC   C3A14405   7.191   1.167   7.818 -0.1217  0.1598 -0.0525
 1021YOPC   C4A14406   7.403   1.085   8.140 -0.1058  0.2018 -0.0718
 1021YOPC   C1B14407   6.433   0.752   7.106 -0.0316 -0.2220 -0.3555
 1021YOPC   C2B14408   6.358   0.709   7.509 -0.0380  0.0653  0.2138
 1021YOPC   D3B14409   6.404   0.926   7.892 -0.1064  0.0024 -0.0231
 1021YOPC   C4B14410   6.164   1.110   8.138  0.0855  0.3186 -0.1442
 1022YOPC   NC314411  16.845   3.348   5.615 -0.0415  0.1805  0.2797
 1022YOPC   PO414412  16.914   2.971   5.761  0.2611 -0.0414 -0.0654
 1022YOPC   GL114413  16.983   2.952   6.284 -0.0109 -0.0676  0.0132
 1022YOPC   GL214414  16.750   2.749   6.353 -0.0223  0.1355 -0.1314
 1022YOPC   C1A14415  16.982   3.328   6.673  0.0202  0.1710 -0.1444
 1022YOPC   D2A14416  16.935   3.299   7.207 -0.0733 -0.0367 -0.0331
 1022YOPC   C3A14417  16.973   3.646   7.398  0.0005 -0.4948  0.0058
 1022YOPC   C4A14418  16.932   3.962   7.834  0.1198  0.0090 -0.0418
 1022YOPC   C1B14419  17.030   2.837   6.767  0.0350  0.0323  0.1975
 1022YOPC   C2B14420  17.008   2.809   7.189 -0.2361 -0.1765  0.3448
 1022YOPC   D3B14421  17.314   2.746   7.419 -0.0730 -0.0706 -0.6104
 1022YOPC   C4B14422  17.587   2.797   7.729 -0.2010 -0.0115 -0.0206
 1023YOPC   NC314423   5.953   5.250   5.875 -0.1506  0.3005  0.3082
 1023YOPC   PO414424   5.973   4.787   6.060  0.3088  0.0035  0.0177
 1023YOPC   GL114425   5.604   4.757   6.381 -0.0175 -0.0490  0.0231
 1023YOPC   GL214426   5.358   4.621   6.313  0.2115  0.3552 -0.0878
 1023YOPC   C1A14427   5.739   4.849   6.735  0.1181  0.2079 -0.0070
 1023YOPC   D2A14428   5.704   5.081   7.096 -0.1582  0.1825  0.0979
 1023YOPC   C3A14429   5.774   4.956   7.461  0.1792  0.1783 -0.1897
 1023YOPC   C4A14430   5.931   4.885   7.857 -0.2491 -0.2752  0.0680
 1023YOPC   C1B14431   5.095   4.552   6.678  0.0354 -0.1462  0.0002
 1023YOPC   C2B14432   5.044   4.494   7.093 -0.0110 -0.2796 -0.0809
 1023YOPC   D3B14433   5.273   4.524   7.455  0.2091  0.2053  0.2504
 1023YOPC   C4B14434   5.227   4.401   7.879 -0.2411  0.0417  0.0119
 1024YOPC   NC314435   7.576   8.546   5.805 -0.5229  0.0692 -0.2776
 1024YOPC   PO414436   7.322   8.364   6.043  0.0812 -0.2347  0.0344
 1024YOPC   GL114437   7.729   8.446   6.273 -0.0718  0.3869  0.2192
 1024YOPC   GL214438   7.914   8.146   6.288  0.2185 -0.1867 -0.0365
 1024YOPC   C1A14439   7.917   8.413   6.702  0.0611  0.0418 -0.1715
 1024YOPC   D2A14440   7.863   8.485   7.161  0.1193 -0.2865 -0.2259
 1024YOPC   C3A14441   7.732   8.254   7.584 -0.0794 -0.1565  0.1405
 1024YOPC   C4A14442   7.524   8.129   8.000 -0.2416  0.1930 -0.0994
 1024YOPC   C1B14443   7.523   8.066   6.627 -0.0666 -0.1978 -0.3292
 1024YOPC   C2B14444   7.532   8.120   7.042 -0.3172  0.2837  0.0957
 1024YOPC   D3B14445   7.539   7.856   7.350  0.1183 -0.2550  0.1220
 1024YOPC   C4B14446   7.566   7.639   7.770 -0.1398  0.0632 -0.1075
 1025YOPC   NC314447   9.272   8.066   6.034  0.0693  0.5508  0.1033
 1025YOPC   PO414448   9.659   7.970   5.974  0.0567  0.2281  0.0592
 1025YOPC   GL114449   9.612   7.679   6.273  0.1665  0.0633  0.0557
 1025YOPC   GL214450   9.572   7.436   6.348 -0.0014  0.0703 -0.0385
 1025YOPC   C1A14451   9.947   7.455   6.665  0.2673  0.1189  0.1822
 1025YOPC   D2A14452  10.076   7.216   6.933  0.0550 -0.0416  0.1424
 1025YOPC   C3A14453  10.224   7.394   7.295  0.2166  0.0687  0.0923
 1025YOPC   C4A14454  10.251   7.319   7.736 -0.0516  0.1573 -0.2909
 1025YOPC   C1B14455   9.370   7.554   6.698  0.0638  0.2512  0.1850
 1025YOPC   C2B14456   9.565   7.594   7.102  0.4264  0.2437 -0.2313
 1025YOPC   D3B14457   9.408   7.850   7.476  0.0526  0.2460  0.0614
 1025YOPC   C4B14458   9.138   7.947   7.839  0.3827 -0.1151  0.1471
 1026YOPC   NC314459   6.888   7.234   5.985 -0.1475 -0.2371  0.2249
 1026YOPC   PO414460   7.310   7.250   6.044 -0.3625 -0.0616 -0.0480
 1026YOPC   GL114461   7.377   7.497   6.456 -0.1280  0.0741  0.2512
 1026YOPC   GL214462   7.155   7.638   6.541 -0.0043 -0.1529  0.1480
 1026YOPC   C1A14463   7.339   7.261   6.810  0.0653 -0.0348  0.2268
 1026YOPC   D2A14464   7.360   7.233   7.206  0.0766  0.2939 -0.0546
 1026YOPC   C3A14465   7.222   7.534   7.290 -0.2129  0.1652 -0.1510
 1026YOPC   C4A14466   7.059   7.745   7.661  0.1129 -0.3302  0.0582
 1026YOPC   C1B14467   7.065   8.033   6.820  0.4005  0.0653 -0.3143
 1026YOPC   C2B14468   7.079   8.072   7.233  0.1701  0.1792 -0.3376
 1026YOPC   D3B14469   7.239   8.226   7.559  0.3367 -0.3894  0.0023
 1026YOPC   C4B14470   7.006   8.185   7.976 -0.1077 -0.1402 -0.0280
 1027YOPC   NC314471  11.036  13.990   6.161 -0.2685 -0.3987  0.0127
 1027YOPC   PO414472  11.041  14.448   6.262  0.2142  0.0493 -0.1113
 1027YOPC   GL114473  11.001  14.493   6.763 -0.0857 -0.1183 -0.4002
 1027YOPC   GL214474  10.875  14.741   6.730 -0.0408  0.1185 -0.0880
 1027YOPC   C1A14475  10.845  14.291   7.170  0.1377 -0.1165 -0.2106
 1027YOPC   D2A14476  10.703  14.141   7.579 -0.1820  0.0424  0.0116
 1027YOPC   C3A14477  10.882  13.929   7.937 -0.1054  0.2052  0.2064
 1027YOPC   C4A14478  10.715  13.758   8.358  0.2531 -0.1830 -0.2223
 1027YOPC   C1B14479  11.290  14.915   6.818 -0.1551 -0.0259 -0.0698
 1027YOPC   C2B14480  11.468  14.995   7.123  0.0604 -0.4892 -0.0796
 1027YOPC   D3B14481  11.367  14.898   7.586 -0.1936 -0.0669 -0.0619
 1027YOPC   C4B14482  11.422  15.260   7.836 -0.1593  0.3830  0.2723
 1028YOPC   NC314483   6.246  10.522   5.582 -0.0331 -0.0123 -0.4165
 1028YOPC   PO414484   6.436  10.095   5.753 -0.0662 -0.1926 -0.0521
 1028YOPC   GL114485   6.594   9.985   6.128 -0.2480 -0.1142  0.1492
 1028YOPC   GL214486   6.859   9.857   6.154 -0.1805  0.1025  0.3062
 1028YOPC   C1A14487   6.443   9.880   6.551  0.4241  0.0451 -0.0868
 1028YOPC   D2A14488   6.357   9.830   6.873  0.0229  0.0220 -0.1489
 1028YOPC   C3A14489   6.329  10.087   7.109  0.3258  0.0465  0.2044
 1028YOPC   C4A14490   6.634  10.329   7.435  0.1503 -0.0855 -0.2686
 1028YOPC   C1B14491   6.768  10.306   6.503  0.0044  0.1350 -0.0993
 1028YOPC   C2B14492   6.834  10.758   6.625  0.0841  0.1611  0.2331
 1028YOPC   D3B14493   7.091  10.870   7.030  0.1205  0.2839 -0.2098
 1028YOPC   C4B14494   7.013  11.016   7.498  0.2136 -0.4635  0.0390
 1029YOPC   NC314495  13.042   5.565   5.451  0.1757 -0.1302  0.1785
 1029YOPC   PO414496  13.116   5.752   5.818 -0.0679  0.0688  0.1397
 1029YOPC   GL114497  13.089   5.840   6.181  0.1193  0.3296  0.3033
 1029YOPC   GL214498  12.719   5.844   6.286 -0.0905 -0.1638  0.1786
 1029YOPC   C1A14499  13.121   5.823   6.581  0.0128  0.1151  0.1074
 1029YOPC   D2A14500  12.969   5.963   7.005 -0.0263  0.1620 -0.0024
 1029YOPC   C3A14501  13.290   6.112   7.325 -0.0135  0.5205  0.0515
 1029YOPC   C4A14502  13.418   6.240   7.755  0.0514 -0.1409 -0.1663
 1029YOPC   C1B14503  12.679   5.700   6.716 -0.0262  0.0406 -0.2855
 1029YOPC   C2B14504  12.574   5.580   7.135  0.2312 -0.1668 -0.1111
 1029YOPC   D3B14505  12.602   5.859   7.441 -0.1050  0.1499 -0.0248
 1029YOPC   C4B14506  12.885   6.138   7.500  0.0429 -0.0153 -0.1407
 1030YOPC   NC314507  11.841   8.382   5.706  0.0236  0.2523  0.1004
 1030YOPC   PO414508  11.461   8.317   5.925  0.0213  0.0187  0.0824
 1030YOPC   GL114509  11.301   8.528   6.231 -0.1339  0.0792 -0.0338
 1030YOPC   GL214510  11.075   8.464   6.442 -0.3059 -0.2224 -0.1506
 1030YOPC   C1A14511  11.497   8.655   6.672  0.0695 -0.1129  0.0778
 1030YOPC   D2A14512  11.723   8.531   6.994  0.0753  0.1742 -0.2569
 1030YOPC   C3A14513  11.967   8.828   7.245 -0.2114 -0.0526 -0.2298
 1030YOPC   C4A14514  12.103   8.945   7.581  0.1989  0.0996 -0.1283
 1030YOPC   C1B14515  11.256   8.224   6.812  0.3278 -0.0149  0.1873
 1030YOPC   C2B14516  11.494   8.169   7.240 -0.0827 -0.2510  0.1204
 1030YOPC   D3B14517  11.304   8.192   7.674 -0.0385 -0.1671 -0.2570
 1030YOPC   C4B14518  11.062   8.118   8.092  0.0204  0.0247  0.1736
 1031YOPC   NC314519  12.385  15.618   5.400  0.0023 -0.1022  0.0159
 1031YOPC   PO414520  12.491  15.359   5.769 -0.2079  0.2390  0.0496
 1031YOPC   GL114521  12.216  15.496   6.196  0.0779 -0.0294 -0.1022
 1031YOPC   GL214522  12.056  15.795   6.126  0.0851  0.1005  0.3081
 1031YOPC   C1A14523  12.106  15.480   6.621  0.0354  0.0205  0.2158
 1031YOPC   D2A14524  12.007  15.739   6.953  0.0354 -0.1809 -0.5034
 1031YOPC   C3A14525  12.066  15.666   7.385 -0.1705 -0.1816  0.1159
 1031YOPC   C4A14526  11.857  15.623   7.746 -0.1424 -0.1499  0.0806
 1031YOPC   C1B14527  12.125  16.047   6.540  0.4597 -0.0968  0.0590
 1031YOPC   C2B14528  12.076  16.243   6.985 -0.1812 -0.2799 -0.0705
 1031YOPC   D3B14529  12.143  16.143   7.335  0.0904  0.1923  0.0571
 1031YOPC   C4B14530  12.335  16.294   7.666  0.1624  0.1568  0.0509
 1032YOPC   NC314531   4.249  14.552   5.629 -0.3585 -0.0231  0.1580
 1032YOPC   PO414532   3.839  14.656   5.934 -0.0271  0.1927  0.0542
 1032YOPC   GL114533   4.114  14.390   6.125 -0.0723 -0.0391 -0.1836
 1032YOPC   GL214534   3.807  14.399   6.373  0.0452 -0.0134 -0.0105
 1032YOPC   C1A14535   4.260  14.096   6.474 -0.1548 -0.0152 -0.3684
 1032YOPC   D2A14536   4.267  13.954   6.865  0.0279  0.1893  0.0827
 1032YOPC   C3A14537   4.376  13.474   6.907  0.1303 -0.1083 -0.1666
 1032YOPC   C4A14538   4.665  13.161   7.040  0.2355  0.0474 -0.0805
 1032YOPC   C1B14539   3.870  14.279   6.797  0.2275 -0.0553 -0.0427
 1032YOPC   C2B14540   3.907  14.097   7.214  0.2044 -0.1429 -0.1861
 1032YOPC   D3B14541   4.131  14.144   7.608 -0.0935  0.1535 -0.2727
 1032YOPC   C4B14542   4.305  14.266   7.971  0.1629 -0.0832 -0.1801
 1033YOPC   NC314543  16.093   0.370   5.542 -0.0201 -0.0002 -0.0799
 1033YOPC   PO414544  16.029  -0.072   5.774  0.3004  0.1295  0.1207
 1033YOPC   GL114545  16.190  -0.125   6.211 -0.2525 -0.0819  0.2069
 1033YOPC   GL214546  16.494   0.028   6.308  0.0931  0.0341 -0.3152
 1033YOPC   C1A14547  16.125  -0.251   6.619 -0.0500  0.0331  0.1570
 1033YOPC   D2A14548  16.312  -0.264   6.990 -0.0965  0.3204  0.0329
 1033YOPC   C3A14549  16.130  -0.372   7.385  0.0460 -0.1196 -0.0874
 1033YOPC   C4A14550  16.233  -0.705   7.595  0.0695  0.1030 -0.3841
 1033YOPC   C1B14551  16.371   0.201   6.769 -0.3652  0.1587  0.0208
 1033YOPC   C2B14552  15.987   0.092   7.030  0.0015 -0.1089  0.0593
 1033YOPC   D3B14553  15.863   0.381   7.320  0.0565 -0.1083  0.3840
 1033YOPC   C4B14554  15.750   0.501   7.730 -0.1618 -0.0502 -0.1566
 1034YOPC   NC314555  14.041   7.754   5.389 -0.2424  0.0596 -0.0382
 1034YOPC   PO414556  14.269   7.993   5.542  0.1121  0.1440  0.0527
 1034YOPC   GL114557  14.087   7.900   5.894  0.0438 -0.1030 -0.1084
 1034YOPC   GL214558  13.861   7.937   5.810  0.1765 -0.0431  0.2314
 1034YOPC   C1A14559  14.060   7.853   6.319  0.1202 -0.2469 -0.0605
 1034YOPC   D2A14560  13.690   7.805   6.590  0.0021 -0.3661  0.5317
 1034YOPC   C3A14561  13.691   7.783   6.996 -0.0255 -0.1160 -0.1918
 1034YOPC   C4A14562  13.844   7.744   7.381  0.0826 -0.0363 -0.2700
 1034YOPC   C1B14563  13.538   7.735   6.091  0.1858 -0.1841 -0.1281
 1034YOPC   C2B14564  13.158   7.722   6.302 -0.1316  0.1610 -0.1242
 1034YOPC   D3B14565  12.919   7.833   6.657 -0.1109  0.0978  0.1530
 1034YOPC   C4B14566  12.968   7.968   7.067 -0.0113 -0.0566  0.2608
 1035YOPC   NC314567  12.446   6.342   5.511 -0.1911 -0.0096 -0.2160
 1035YOPC   PO414568  12.079   6.408   5.749  0.4443 -0.3932  0.0939
 1035YOPC   GL114569  12.012   6.533   6.153  0.1668 -0.2074  0.0010
 1035YOPC   GL214570  11.658   6.555   6.247  0.0856  0.0369 -0.2603
 1035YOPC   C1A14571  12.185   6.573   6.578 -0.0965  0.2218  0.1860
 1035YOPC   D2A14572  12.234   6.451   6.982 -0.5442 -0.2141 -0.1443
 1035YOPC   C3A14573  12.252   6.246   7.462 -0.2790 -0.1247  0.1608
 1035YOPC   C4A14574  12.171   6.005   7.785  0.0085 -0.0819  0.1459
 1035YOPC   C1B14575  11.785   6.859   6.493  0.1701 -0.1146 -0.0810
 1035YOPC   C2B14576  11.956   6.856   6.957  0.1190  0.0097 -0.1123
 1035YOPC   D3B14577  12.049   6.668   7.359 -0.1747 -0.0331  0.0189
 1035YOPC   C4B14578  12.084   6.570   7.915  0.1462  0.0374  0.1684
 1036YOPC   NC314579   3.671  16.439   5.799  0.0596  0.1603 -0.0576
 1036YOPC   PO414580   3.684  16.716   6.249  0.0170 -0.0085  0.1298
 1036YOPC   GL114581   3.625  16.681   6.598  0.0854 -0.0540 -0.2287
 1036YOPC   GL214582   3.379  17.013   6.585  0.0711  0.0820  0.1380
 1036YOPC   C1A14583   3.400  16.492   6.955 -0.1669 -0.0262 -0.3544
 1036YOPC   D2A14584   3.605  16.366   7.322 -0.0968  0.0456 -0.0399
 1036YOPC   C3A14585   3.595  16.489   7.744  0.0613  0.2084  0.4181
 1036YOPC   C4A14586   3.418  16.556   8.127 -0.0839  0.0103  0.0869
 1036YOPC   C1B14587   3.453  17.034   7.011 -0.0771 -0.0186  0.0415
 1036YOPC   C2B14588   3.701  16.866   7.288 -0.0568  0.0046 -0.2730
 1036YOPC   D3B14589   4.026  17.003   7.599  0.0052  0.2076  0.0358
 1036YOPC   C4B14590   4.402  17.165   7.737 -0.3405  0.0645 -0.0679
 1037YOPC   NC314591  10.916  10.142   6.127  0.0994  0.0384  0.0928
 1037YOPC   PO414592  10.756  10.517   6.421  0.1496  0.0866  0.3376
 1037YOPC   GL114593  10.621  10.124   6.585  0.1085 -0.2446 -0.1282
 1037YOPC   GL214594  10.397  10.143   6.769  0.0892  0.1162 -0.2103
 1037YOPC   C1A14595  10.745   9.783   6.938 -0.1508 -0.1212  0.0468
 1037YOPC   D2A14596  10.709   9.624   7.421  0.3297 -0.1379 -0.2538
 1037YOPC   C3A14597  10.524   9.271   7.524  0.0021  0.1699 -0.0179
 1037YOPC   C4A14598  10.589   8.988   7.848 -0.2141 -0.7049 -0.0590
 1037YOPC   C1B14599  10.432  10.105   7.189  0.0423  0.0176 -0.2581
 1037YOPC   C2B14600  10.441  10.028   7.544 -0.1688 -0.1736  0.0049
 1037YOPC   D3B14601  10.537  10.198   7.904  0.1490  0.1897  0.0245
 1037YOPC   C4B14602  10.706  10.440   8.303  0.0983 -0.1926  0.1268
 1038YOPC   NC314603   1.583   7.195   6.223 -0.1841  0.0732  0.0194
 1038YOPC   PO414604   1.241   6.985   6.344  0.2290  0.2315  0.2855
 1038YOPC   GL114605   1.135   7.253   6.679 -0.0768  0.1976 -0.1883
 1038YOPC   GL214606   1.393   7.177   6.796  0.1922 -0.1459  0.1186
 1038YOPC   C1A14607   0.951   7.254   7.093 -0.1660 -0.1413  0.1264
 1038YOPC   D2A14608   0.984   7.142   7.513 -0.3163 -0.0298  0.1955
 1038YOPC   C3A14609   0.929   7.121   7.973  0.1158 -0.1374 -0.2113
 1038YOPC   C4A14610   0.988   6.970   8.386  0.1213 -0.1983 -0.1441
 1038YOPC   C1B14611   1.446   7.222   7.215  0.1968  0.1942  0.1128
 1038YOPC   C2B14612   1.663   7.076   7.570 -0.0685  0.5105  0.1215
 1038YOPC   D3B14613   1.963   7.164   7.830 -0.0506  0.2093  0.1194
 1038YOPC   C4B14614   2.420   6.978   7.834 -0.0407 -0.0064  0.0485
 1039YOPC   NC314615  14.805   6.623   5.843 -0.0755 -0.1304  0.0265
 1039YOPC   PO414616  14.491   6.466   5.688  0.1081  0.0210 -0.1701
 1039YOPC   GL114617  14.661   6.163   5.944 -0.2910 -0.1412  0.1208
 1039YOPC   GL214618  14.829   6.325   6.232  0.0884 -0.1807  0.1203
 1039YOPC   C1A14619  14.498   5.799   6.346  0.2610  0.0594 -0.1188
 1039YOPC   D2A14620  14.369   5.578   6.611 -0.0657 -0.0261  0.4098
 1039YOPC   C3A14621  14.281   5.577   6.949  0.0524 -0.1398  0.0710
 1039YOPC   C4A14622  14.439   5.479   7.211 -0.2487  0.2900 -0.0201
 1039YOPC   C1B14623  14.903   5.974   6.568 -0.2804  0.0139 -0.0557
 1039YOPC   C2B14624  14.681   5.966   6.881  0.1324  0.2779  0.0194
 1039YOPC   D3B14625  14.824   5.811   7.215  0.4464  0.2096 -0.2737
 1039YOPC   C4B14626  15.020   5.813   7.627 -0.0437  0.2834  0.0309
 1040YOPC   NC314627   3.362  17.478   5.826  0.1841 -0.1731  0.3380
 1040YOPC   PO414628   3.010  17.223   5.832 -0.1313 -0.2746  0.1589
 1040YOPC   GL114629   3.085  17.421   6.340  0.0767  0.3066  0.2298
 1040YOPC   GL214630   2.844  17.469   6.433 -0.0343  0.0021 -0.0056
 1040YOPC   C1A14631   3.383  17.496   6.738  0.2195 -0.0039  0.2360
 1040YOPC   D2A14632   3.718  17.528   7.030 -0.2076 -0.1001 -0.0879
 1040YOPC   C3A14633   3.737  17.404   7.520 -0.1113  0.1140  0.0234
 1040YOPC   C4A14634   3.453  17.504   7.867  0.1178  0.0869  0.0464
 1040YOPC   C1B14635   2.838  17.257   6.840 -0.0547 -0.2491  0.1671
 1040YOPC   C2B14636   2.896  17.287   7.317  0.2042  0.2112 -0.1872
 1040YOPC   D3B14637   3.283  17.349   7.315 -0.1324 -0.2338 -0.2295
 1040YOPC   C4B14638   3.483  17.026   7.674 -0.0928 -0.1855 -0.1433
 1041YOPC   NC314639  16.085  16.150   5.742 -0.0797  0.0575 -0.1066
 1041YOPC   PO414640  15.732  15.815   6.012 -0.2645 -0.1288 -0.0766
 1041YOPC   GL114641  15.509  16.004   6.366  0.0930  0.1315  0.1648
 1041YOPC   GL214642  15.619  16.320   6.452 -0.0637  0.1312 -0.0453
 1041YOPC   C1A14643  15.156  15.935   6.624  0.2123 -0.2318  0.0778
 1041YOPC   D2A14644  14.896  15.708   6.872 -0.0466  0.0660 -0.0227
 1041YOPC   C3A14645  15.062  15.881   7.331 -0.1889  0.0930 -0.2659
 1041YOPC   C4A14646  14.901  15.905   7.722  0.0887 -0.0618  0.2143
 1041YOPC   C1B14647  15.500  16.231   6.889 -0.4161 -0.1612 -0.2556
 1041YOPC   C2B14648  15.280  16.309   7.332 -0.2240 -0.1737  0.1070
 1041YOPC   D3B14649  15.202  16.353   7.760 -0.2799  0.0161  0.0127
 1041YOPC   C4B14650  15.443  16.281   8.136 -0.0803 -0.1763 -0.0369
 1042YOPC   NC314651  12.431  12.781   5.916 -0.2060 -0.1390 -0.1333
 1042YOPC   PO414652  12.760  13.067   5.908 -0.0031 -0.2065  0.2622
 1042YOPC   GL114653  12.662  12.996   6.358 -0.1514  0.2370  0.1467
 1042YOPC   GL214654  12.321  12.959   6.384 -0.1360  0.2268 -0.2155
 1042YOPC   C1A14655  12.690  13.038   6.866  0.0970  0.0519  0.2151
 1042YOPC   D2A14656  12.854  13.041   7.330  0.0684 -0.1732  0.0302
 1042YOPC   C3A14657  12.761  12.962   7.721  0.0014 -0.2115 -0.0788
 1042YOPC   C4A14658  12.867  12.848   8.190  0.1161  0.0382 -0.4751
 1042YOPC   C1B14659  12.199  12.639   6.747  0.0346  0.0167  0.2850
 1042YOPC   C2B14660  12.379  12.644   7.144 -0.2088  0.1486 -0.0692
 1042YOPC   D3B14661  12.213  12.534   7.481 -0.0812  0.3008  0.2263
 1042YOPC   C4B14662  12.312  12.162   7.796 -0.1326 -0.3113  0.0026
 1043YOPC   NC314663  12.146   7.739   5.954 -0.0900  0.1147  0.0119
 1043YOPC   PO414664  11.720   7.784   5.983 -0.1138 -0.0662  0.0055
 1043YOPC   GL114665  11.389   7.704   6.304  0.3059 -0.2212 -0.2251
 1043YOPC   GL214666  11.428   8.062   6.341  0.1042  0.2630 -0.0403
 1043YOPC   C1A14667  11.439   7.745   6.852 -0.2895  0.0052 -0.2302
 1043YOPC   D2A14668  11.833   7.842   7.016 -0.2583  0.2900  0.0474
 1043YOPC   C3A14669  12.004   7.921   7.353  0.0267 -0.0289 -0.4555
 1043YOPC   C4A14670  12.159   8.010   7.803 -0.0316 -0.0630 -0.0170
 1043YOPC   C1B14671  11.704   8.166   6.664 -0.1945 -0.1111 -0.1073
 1043YOPC   C2B14672  12.095   8.243   6.692  0.0574  0.2340 -0.0126
 1043YOPC   D3B14673  12.268   8.348   7.099  0.2988  0.0732 -0.0802
 1043YOPC   C4B14674  12.199   8.398   7.420 -0.1088 -0.0105 -0.0890
 1044YOPC   NC314675  17.192  14.231   6.394 -0.1536 -0.0648 -0.0753
 1044YOPC   PO414676  17.381  13.878   6.217 -0.3623 -0.0579  0.0343
 1044YOPC   GL114677  17.664  13.929   6.523 -0.1759  0.0713 -0.1926
 1044YOPC   GL214678  17.617  14.131   6.740  0.0495  0.0518 -0.3540
 1044YOPC   C1A14679  17.816  13.678   6.831  0.0559  0.0711  0.0509
 1044YOPC   D2A14680  17.761  13.309   7.152  0.1264  0.0016 -0.0148
 1044YOPC   C3A14681  17.894  13.236   7.650  0.0098  0.0373  0.1085
 1044YOPC   C4A14682  17.902  13.285   8.137  0.1549 -0.1105  0.1314
 1044YOPC   C1B14683  17.564  14.200   7.175 -0.2363  0.3108 -0.1062
 1044YOPC   C2B14684  17.468  14.203   7.599 -0.0182 -0.1797 -0.1105
 1044YOPC   D3B14685  17.694  14.003   7.949 -0.0257  0.1961 -0.2652
 1044YOPC   C4B14686  17.770  14.063   8.413  0.0788 -0.1349  0.4323
 1045YOPC   NC314687  10.783   6.348   6.159  0.1511 -0.1401  0.2703
 1045YOPC   PO414688  11.200   6.219   6.002 -0.1231  0.2600 -0.1639
 1045YOPC   GL114689  11.251   6.296   6.350 -0.0578  0.2680  0.1346
 1045YOPC   GL214690  11.375   5.945   6.484  0.1518 -0.1354  0.1318
 1045YOPC   C1A14691  11.219   6.318   6.826 -0.2069 -0.1091 -0.0534
 1045YOPC   D2A14692  11.245   6.370   7.304 -0.2263  0.3329 -0.2138
 1045YOPC   C3A14693  11.128   6.115   7.608  0.2109  0.1329  0.0687
 1045YOPC   C4A14694  11.188   5.868   8.049  0.0541 -0.0359  0.1251
 1045YOPC   C1B14695  11.184   5.724   6.900  0.0636 -0.0311  0.3713
 1045YOPC   C2B14696  11.174   5.670   7.340  0.2323  0.1446  0.1758
 1045YOPC   D3B14697  11.474   5.802   7.459 -0.1073  0.1945 -0.0584
 1045YOPC   C4B14698  11.722   5.652   7.744 -0.2895  0.1182 -0.1696
 1046YOPC   NC314699  12.722   6.037   5.811 -0.1052 -0.0446 -0.1524
 1046YOPC   PO414700  12.923   6.382   5.878  0.2291  0.0091  0.4867
 1046YOPC   GL114701  12.608   6.544   6.183 -0.1524  0.0035 -0.0636
 1046YOPC   GL214702  12.355   6.849   6.156  0.0078 -0.0425  0.3042
 1046YOPC   C1A14703  12.638   6.747   6.515  0.1956  0.2663 -0.1243
 1046YOPC   D2A14704  12.451   6.858   6.924 -0.5371 -0.1535  0.2305
 1046YOPC   C3A14705  12.376   7.076   7.309  0.1837  0.0756  0.2138
 1046YOPC   C4A14706  12.145   7.075   7.735 -0.2267 -0.1631  0.1446
 1046YOPC   C1B14707  12.206   7.088   6.572 -0.0007  0.0508 -0.0446
 1046YOPC   C2B14708  12.171   7.442   6.848  0.2341  0.1377  0.0484
 1046YOPC   D3B14709  12.158   7.513   7.210 -0.2469 -0.4060  0.2189
 1046YOPC   C4B14710  12.330   7.546   7.598 -0.0638 -0.2532  0.0808
 1047YOPC   NC314711   1.044   2.567   5.986  0.1519 -0.1659 -0.1077
 1047YOPC   PO414712   0.692   2.512   5.927  0.0515  0.0717  0.0521
 1047YOPC   GL114713   0.425   2.762   6.174 -0.1365 -0.1479 -0.1043
 1047YOPC   GL214714   0.108   2.544   6.342  0.5073  0.1285 -0.1196
 1047YOPC   C1A14715   0.355   2.841   6.627 -0.0503 -0.2175  0.3530
 1047YOPC   D2A14716   0.526   3.036   7.019  0.2861 -0.0968  0.2146
 1047YOPC   C3A14717   0.847   2.910   7.283  0.1039 -0.0116  0.1500
 1047YOPC   C4A14718   1.127   2.817   7.583  0.3012 -0.0692  0.0687
 1047YOPC   C1B14719  -0.013   2.464   6.652  0.0399 -0.0982  0.2233
 1047YOPC   C2B14720   0.113   2.468   6.976  0.0156 -0.1740 -0.1868
 1047YOPC   D3B14721   0.249   2.702   7.290 -0.0038  0.3840  0.1482
 1047YOPC   C4B14722   0.330   2.576   7.656  0.2730 -0.0233 -0.0111
 1048YOPC   NC314723   6.792  14.905   5.639  0.2067  0.4016  0.2332
 1048YOPC   PO414724   7.018  15.262   5.643 -0.0178 -0.2286 -0.0565
 1048YOPC   GL114725   6.932  15.119   6.085  0.0445 -0.0404 -0.3231
 1048YOPC   GL214726   6.892  15.469   6.215  0.0474  0.0268 -0.0848
 1048YOPC   C1A14727   7.122  15.120   6.459  0.0019  0.1813  0.0441
 1048YOPC   D2A14728   7.020  15.011   6.893 -0.0478 -0.1494 -0.1226
 1048YOPC   C3A14729   7.189  15.187   7.221 -0.2606  0.1210 -0.3462
 1048YOPC   C4A14730   7.168  15.183   7.686 -0.3351 -0.1125  0.2484
 1048YOPC   C1B14731   6.835  15.551   6.587 -0.1138  0.0255  0.2732
 1048YOPC   C2B14732   6.947  15.509   6.990  0.1006  0.0868 -0.1094
 1048YOPC   D3B14733   6.727  15.304   7.403 -0.0629  0.0669 -0.0048
 1048YOPC   C4B14734   6.436  15.102   7.630  0.1042  0.1810 -0.0867
 1049YOPC   NC314735   3.029  13.354   5.709  0.0198  0.1910  0.0311
 1049YOPC   PO414736   3.417  13.417   6.075  0.4721  0.0841  0.1056
 1049YOPC   GL114737   3.354  13.770   6.435 -0.1355  0.4621  0.1103
 1049YOPC   GL214738   3.610  13.882   6.563 -0.2390  0.1066 -0.1202
 1049YOPC   C1A14739   3.161  13.766   6.779  0.2443  0.2352  0.1183
 1049YOPC   D2A14740   2.837  13.597   7.105  0.1713 -0.1152  0.0734
 1049YOPC   C3A14741   2.841  13.552   7.575 -0.0188 -0.0566  0.0855
 1049YOPC   C4A14742   3.140  13.472   7.889 -0.2202 -0.0176  0.0431
 1049YOPC   C1B14743   3.630  13.807   6.986  0.2641 -0.2394 -0.0538
 1049YOPC   C2B14744   3.947  13.595   7.175  0.1036 -0.0956 -0.1206
 1049YOPC   D3B14745   4.300  13.757   7.358 -0.2147 -0.1827 -0.1879
 1049YOPC   C4B14746   4.383  13.638   7.805 -0.1133 -0.0799 -0.1937
 1050YOPC   NC314747   1.571  15.349   6.066 -0.0869  0.2299  0.0415
 1050YOPC   PO414748   2.021  15.184   6.106  0.2136  0.0212 -0.0708
 1050YOPC   GL114749   1.829  15.137   6.537  0.2284 -0.3090 -0.0795
 1050YOPC   GL214750   2.179  15.066   6.562  0.0616 -0.0653 -0.1748
 1050YOPC   C1A14751   1.794  15.031   6.994  0.0916  0.0245 -0.0050
 1050YOPC   D2A14752   1.714  15.131   7.283  0.0109  0.1587  0.0250
 1050YOPC   C3A14753   1.756  14.924   7.645  0.4793  0.0699 -0.2645
 1050YOPC   C4A14754   1.876  14.810   8.079  0.2656 -0.0998  0.1868
 1050YOPC   C1B14755   2.284  14.985   6.937 -0.0428 -0.1803  0.1415
 1050YOPC   C2B14756   2.162  14.950   7.366 -0.0487  0.0608  0.3080
 1050YOPC   D3B14757   2.211  15.066   7.804  0.0531 -0.1656 -0.0301
 1050YOPC   C4B14758   2.188  15.183   8.169  0.0242 -0.0259 -0.4746
 1051YOPC   NC314759   7.237   1.506   6.004  0.1897  0.0791  0.0070
 1051YOPC   PO414760   7.098   1.894   5.948 -0.1086 -0.1085 -0.0164
 1051YOPC   GL114761   6.976   1.951   6.478 -0.1059  0.0411 -0.0862
 1051YOPC   GL214762   6.860   2.199   6.608 -0.1681  0.1453 -0.0568
 1051YOPC   C1A14763   7.086   1.976   7.006 -0.0389  0.1243  0.0213
 1051YOPC   D2A14764   7.235   2.019   7.360  0.2360 -0.0644 -0.0040
 1051YOPC   C3A14765   7.588   2.126   7.619 -0.0681  0.1157 -0.2604
 1051YOPC   C4A14766   7.799   2.494   7.563  0.2766 -0.0059 -0.1990
 1051YOPC   C1B14767   6.982   2.709   6.536 -0.1038  0.1043 -0.1393
 1051YOPC   C2B14768   7.260   2.970   6.719  0.0840  0.0368  0.0812
 1051YOPC   D3B14769   7.460   2.799   7.004 -0.0825 -0.1268  0.0755
 1051YOPC   C4B14770   7.573   2.285   7.108  0.0388 -0.0911 -0.3453
 1052YOPC   NC314771  14.219   6.918   5.006  0.0509  0.0798 -0.0810
 1052YOPC   PO414772  14.134   6.698   5.363  0.1232 -0.4396 -0.2145
 1052YOPC   GL114773  14.160   6.861   5.895 -0.0211  0.0932  0.8630
 1052YOPC   GL214774  13.857   6.872   6.036  0.0831 -0.1010 -0.1482
 1052YOPC   C1A14775  14.341   6.897   6.222  0.0575 -0.1076 -0.1456
 1052YOPC   D2A14776  14.690   6.851   6.456 -0.0074 -0.0909  0.1178
 1052YOPC   C3A14777  14.793   6.935   6.904 -0.0798  0.0448  0.1120
 1052YOPC   C4A14778  14.735   6.929   7.283 -0.0423  0.0175 -0.2263
 1052YOPC   C1B14779  13.902   6.826   6.451  0.0988  0.1123 -0.1068
 1052YOPC   C2B14780  14.062   6.847   6.891 -0.1761 -0.2216  0.3002
 1052YOPC   D3B14781  14.170   6.636   7.233 -0.0694  0.0741  0.3005
 1052YOPC   C4B14782  13.952   6.658   7.614  0.1578  0.0811 -0.2583
 1053YOPC   NC314783  16.391  14.263   5.998 -0.0059  0.0418  0.2117
 1053YOPC   PO414784  16.712  14.187   6.311 -0.0561 -0.0748  0.0163
 1053YOPC   GL114785  16.825  14.080   6.698 -0.0799 -0.1612 -0.0006
 1053YOPC   GL214786  16.772  13.816   6.788 -0.0417 -0.1077  0.1521
 1053YOPC   C1A14787  17.094  14.205   6.994 -0.0820 -0.0396 -0.0360
 1053YOPC   D2A14788  17.199  14.582   7.002 -0.0668  0.1134  0.3601
 1053YOPC   C3A14789  17.333  14.655   7.407 -0.0322  0.2805 -0.0412
 1053YOPC   C4A14790  17.367  14.940   7.776 -0.0707 -0.2657 -0.0826
 1053YOPC   C1B14791  16.791  13.875   7.196 -0.0185  0.0260 -0.0854
 1053YOPC   C2B14792  16.823  13.945   7.635 -0.0139  0.3316 -0.0773
 1053YOPC   D3B14793  17.107  13.992   7.890  0.0434  0.0462  0.1174
 1053YOPC   C4B14794  17.211  13.889   8.299 -0.0146 -0.3319 -0.2241
 1054YOPC   NC314795   1.467   3.363   5.588 -0.2668 -0.0793 -0.1344
 1054YOPC   PO414796   1.263   2.972   5.680  0.1718 -0.2556 -0.0945
 1054YOPC   GL114797   1.263   3.103   6.109  0.0978 -0.0118 -0.0073
 1054YOPC   GL214798   1.251   3.493   6.136 -0.0712 -0.2308 -0.2045
 1054YOPC   C1A14799   1.438   2.941   6.456 -0.1176 -0.0662  0.1652
 1054YOPC   D2A14800   1.359   2.992   6.888  0.1098  0.1295 -0.1858
 1054YOPC   C3A14801   1.468   3.343   7.308 -0.2438 -0.1703  0.0968
 1054YOPC   C4A14802   1.116   3.405   7.492  0.1447  0.0609 -0.0771
 1054YOPC   C1B14803   1.118   3.364   6.596 -0.1926 -0.0188 -0.1554
 1054YOPC   C2B14804   0.954   3.308   6.980 -0.2205  0.1261 -0.0813
 1054YOPC   D3B14805   0.621   3.443   7.270  0.0726 -0.0465  0.0173
 1054YOPC   C4B14806   0.273   3.538   7.699 -0.0735 -0.0752  0.0364
 1055YOPC   NC314807  17.421  17.360   5.323 -0.3143  0.2416 -0.1178
 1055YOPC   PO414808  17.493  17.360   5.759  0.1315  0.0979 -0.1632
 1055YOPC   GL114809  17.728  17.057   5.999  0.0279  0.1020 -0.0363
 1055YOPC   GL214810  17.541  16.888   6.272  0.0298 -0.0195 -0.0657
 1055YOPC   C1A14811  17.972  17.215   6.372  0.1980 -0.0468 -0.1598
 1055YOPC   D2A14812  18.187  17.430   6.686 -0.3350  0.0419  0.1683
 1055YOPC   C3A14813  18.205  17.395   7.152  0.2864  0.3732 -0.0025
 1055YOPC   C4A14814  18.309  17.416   7.624  0.1142 -0.0143  0.0014
 1055YOPC   C1B14815  17.780  16.856   6.676  0.0481  0.2870 -0.0826
 1055YOPC   C2B14816  17.944  16.971   7.145 -0.2089 -0.1851 -0.0556
 1055YOPC   D3B14817  17.824  17.060   7.559 -0.0628  0.1133  0.0249
 1055YOPC   C4B14818  18.002  17.175   7.960 -0.0197  0.0727 -0.2424
 1056YOPC   NC314819  10.777  11.375   6.242 -0.0791 -0.2108 -0.0031
 1056YOPC   PO414820  10.517  10.948   6.204  0.1405  0.1490  0.0825
 1056YOPC   GL114821  10.729  10.990   6.661  0.1214 -0.2613  0.3845
 1056YOPC   GL214822  11.025  10.751   6.724  0.1541 -0.2410 -0.0884
 1056YOPC   C1A14823  10.559  11.206   7.024 -0.0663 -0.1370 -0.0767
 1056YOPC   D2A14824  10.676  11.637   7.249 -0.0565 -0.0551 -0.0585
 1056YOPC   C3A14825  10.629  11.632   7.649  0.0069  0.2875  0.2454
 1056YOPC   C4A14826  10.708  11.509   7.998  0.1477  0.0213 -0.0146
 1056YOPC   C1B14827  11.184  10.589   7.128 -0.1557  0.0645  0.0904
 1056YOPC   C2B14828  11.183  10.580   7.536  0.1354 -0.3102  0.0834
 1056YOPC   D3B14829  11.074  10.301   7.962 -0.1354 -0.2400  0.2821
 1056YOPC   C4B14830  11.008  10.058   8.380  0.1590 -0.1918 -0.3816
 1057YOPC   NC314831  10.358   3.692   5.870 -0.1318  0.0288  0.2953
 1057YOPC   PO414832  10.353   4.134   5.789  0.2585 -0.1444 -0.3635
 1057YOPC   GL114833  10.363   4.402   6.172  0.2106  0.0390  0.0148
 1057YOPC   GL214834  10.228   4.711   6.304 -0.1406  0.2608  0.1550
 1057YOPC   C1A14835  10.137   4.279   6.507  0.0091 -0.2199 -0.2442
 1057YOPC   D2A14836   9.839   4.474   6.705  0.5190 -0.0818  0.1052
 1057YOPC   C3A14837   9.652   4.199   7.028  0.3765 -0.2159 -0.1567
 1057YOPC   C4A14838   9.781   4.240   7.523 -0.2512 -0.0370 -0.2598
 1057YOPC   C1B14839  10.309   4.714   6.773 -0.0319  0.0694 -0.0776
 1057YOPC   C2B14840  10.098   4.508   7.148  0.0225 -0.1782 -0.2819
 1057YOPC   D3B14841  10.129   4.679   7.541 -0.1014  0.2049 -0.1833
 1057YOPC   C4B14842  10.140   4.741   7.962 -0.0532 -0.2004  0.0405
 1058YOPC   NC314843  15.403  14.486   6.079 -0.0059 -0.1462 -0.3316
 1058YOPC   PO414844  15.070  14.744   6.209 -0.0281  0.1293 -0.1775
 1058YOPC   GL114845  15.050  14.799   6.619 -0.3163  0.0869  0.0712
 1058YOPC   GL214846  15.035  15.184   6.663 -0.1209  0.1201 -0.0925
 1058YOPC   C1A14847  14.885  14.843   6.960 -0.1644 -0.0510  0.0986
 1058YOPC   D2A14848  14.809  15.006   7.291  0.1319 -0.0392  0.2137
 1058YOPC   C3A14849  14.740  15.327   7.228 -0.0685  0.2697  0.1282
 1058YOPC   C4A14850  14.596  15.815   7.261  0.1616 -0.1446  0.0275
 1058YOPC   C1B14851  15.255  15.340   7.093  0.1402 -0.0664  0.0421
 1058YOPC   C2B14852  15.368  15.061   7.474  0.2839  0.2372  0.1740
 1058YOPC   D3B14853  15.501  15.096   7.859 -0.0595 -0.0981  0.3704
 1058YOPC   C4B14854  15.591  15.413   8.219  0.3957 -0.0995 -0.1998
 1059YOPC   NC314855  15.149  13.675   6.113 -0.0346 -0.1036  0.0227
 1059YOPC   PO414856  15.538  13.980   6.260  0.0343 -0.1429 -0.0551
 1059YOPC   GL114857  15.276  13.822   6.578 -0.0099 -0.1103 -0.0108
 1059YOPC   GL214858  15.424  13.589   6.661  0.0396 -0.2528 -0.2368
 1059YOPC   C1A14859  15.200  13.877   7.035  0.2007  0.3519  0.1255
 1059YOPC   D2A14860  14.984  14.023   7.364  0.0183 -0.1178  0.2277
 1059YOPC   C3A14861  14.997  14.150   7.737  0.1561 -0.0341 -0.0480
 1059YOPC   C4A14862  14.981  14.389   8.034 -0.2037 -0.0042  0.1356
 1059YOPC   C1B14863  15.510  13.532   7.173  0.1257  0.0201  0.2609
 1059YOPC   C2B14864  15.281  13.643   7.512  0.0285  0.1642 -0.0159
 1059YOPC   D3B14865  15.393  13.894   7.861 -0.0352 -0.0508  0.4215
 1059YOPC   C4B14866  15.449  14.249   8.121 -0.2844  0.1366  0.0201
 1060YOPC   NC314867   1.599   1.975   5.564 -0.0689  0.1041  0.0551
 1060YOPC   PO414868   1.457   2.209   5.917  0.0838  0.0575 -0.2341
 1060YOPC   GL114869   1.675   2.339   6.303 -0.2026 -0.2205  0.1571
 1060YOPC   GL214870   1.515   2.443   6.501  0.0199 -0.0131  0.0503
 1060YOPC   C1A14871   1.797   2.082   6.584 -0.0915  0.1100 -0.1462
 1060YOPC   D2A14872   1.535   1.984   6.815 -0.0562  0.0260  0.1594
 1060YOPC   C3A14873   1.592   2.159   7.250 -0.2568  0.0174 -0.1493
 1060YOPC   C4A14874   1.949   2.091   7.544 -0.0733 -0.1770 -0.2311
 1060YOPC   C1B14875   1.648   2.565   6.894 -0.2552 -0.1804  0.0426
 1060YOPC   C2B14876   1.546   2.698   7.259 -0.1247 -0.0894  0.0007
 1060YOPC   D3B14877   1.430   2.400   7.658 -0.0347 -0.0906 -0.1557
 1060YOPC   C4B14878   1.380   2.299   8.076  0.2543 -0.2421  0.0435
 1061YOPC   NC314879   9.831  12.725   6.306  0.0363  0.0156  0.0495
 1061YOPC   PO414880  10.294  12.633   6.351  0.1389 -0.2713  0.1753
 1061YOPC   GL114881  10.237  12.389   6.682  0.0262  0.2093 -0.0789
 1061YOPC   GL214882  10.041  12.150   6.733 -0.3733 -0.0216  0.1190
 1061YOPC   C1A14883  10.489  11.866   6.825  0.1286 -0.1894 -0.0048
 1061YOPC   D2A14884  10.840  11.643   6.731 -0.2094  0.0179  0.1895
 1061YOPC   C3A14885  10.994  11.425   7.004  0.1005  0.1929  0.3023
 1061YOPC   C4A14886  11.313  11.076   7.062  0.2545  0.0218 -0.3291
 1061YOPC   C1B14887  10.245  12.148   7.176 -0.2692  0.0967  0.0599
 1061YOPC   C2B14888  10.190  11.968   7.601 -0.3802  0.0361  0.1590
 1061YOPC   D3B14889   9.995  11.931   7.975  0.4674 -0.1158 -0.0403
 1061YOPC   C4B14890   9.859  11.769   8.324  0.0171 -0.0254  0.3477
 1062YOPC   NC314891   1.339   1.078   5.761  0.1902 -0.0515 -0.3266
 1062YOPC   PO414892   1.007   0.687   5.895 -0.0537 -0.0596 -0.1894
 1062YOPC   GL114893   1.100   0.840   6.236 -0.0926  0.2153 -0.0524
 1062YOPC   GL214894   1.288   0.590   6.448  0.0339  0.0287 -0.0974
 1062YOPC   C1A14895   1.051   1.098   6.561  0.0096  0.1180 -0.1151
 1062YOPC   D2A14896   1.239   1.507   6.812  0.1436 -0.3380 -0.1163
 1062YOPC   C3A14897   1.173   1.551   7.283 -0.0910  0.2013 -0.2184
 1062YOPC   C4A14898   1.328   1.874   7.587 -0.0288  0.4339 -0.2596
 1062YOPC   C1B14899   1.152   0.611   6.798  0.4497 -0.0713  0.0361
 1062YOPC   C2B14900   1.027   0.726   7.127 -0.4135 -0.0634 -0.2213
 1062YOPC   D3B14901   1.129   0.600   7.508 -0.0495  0.0522  0.0630
 1062YOPC   C4B14902   1.491   0.621   7.793 -0.0116 -0.1323 -0.0474
 1063YOPC   NC314903  14.337   1.721   5.231  0.0098  0.2594  0.3129
 1063YOPC   PO414904  14.189   2.029   5.574  0.2037 -0.0030  0.1240
 1063YOPC   GL114905  14.198   2.044   6.058 -0.0238  0.0603  0.4720
 1063YOPC   GL214906  14.136   1.786   6.157 -0.6322 -0.1185 -0.1995
 1063YOPC   C1A14907  14.322   2.341   6.289 -0.2679 -0.0537  0.1372
 1063YOPC   D2A14908  14.560   2.820   6.216  0.0370  0.0917  0.0916
 1063YOPC   C3A14909  14.811   2.962   6.512  0.2188 -0.3888  0.0733
 1063YOPC   C4A14910  14.857   3.343   6.677  0.1703  0.0990 -0.2486
 1063YOPC   C1B14911  14.356   1.954   6.523  0.0511  0.0616 -0.0749
 1063YOPC   C2B14912  14.464   1.982   6.851 -0.0426  0.0870 -0.0465
 1063YOPC   D3B14913  14.820   2.163   6.994 -0.1048  0.2916 -0.0433
 1063YOPC   C4B14914  15.008   2.460   7.350  0.1337  0.0381 -0.0804
 1064YOPC   NC314915   5.306   0.544   6.119 -0.0880  0.2470  0.1493
 1064YOPC   PO414916   5.255   0.124   5.921 -0.0734 -0.1430 -0.0028
 1064YOPC   GL114917   5.092   0.054   6.346 -0.2691 -0.0786 -0.0573
 1064YOPC   GL214918   4.980   0.371   6.479 -0.1241 -0.1804 -0.0978
 1064YOPC   C1A14919   5.164   0.070   6.802 -0.0211 -0.1372  0.0589
 1064YOPC   D2A14920   5.095   0.145   7.186  0.3367 -0.0290  0.0780
 1064YOPC   C3A14921   5.265  -0.056   7.491 -0.1553 -0.1058  0.0110
 1064YOPC   C4A14922   5.316  -0.201   7.969  0.0645 -0.0276 -0.1924
 1064YOPC   C1B14923   4.746   0.389   6.867  0.0462  0.0480  0.2660
 1064YOPC   C2B14924   4.734   0.484   7.330  0.1293 -0.0177  0.0300
 1064YOPC   D3B14925   4.949   0.332   7.678  0.0102  0.1626  0.3490
 1064YOPC   C4B14926   5.135   0.243   8.047  0.1994  0.0832  0.2894
 1065YOPC   NC314927   8.283  13.345   5.998 -0.1144 -0.2179  0.0840
 1065YOPC   PO414928   8.187  13.708   6.055  0.1284 -0.1249  0.2193
 1065YOPC   GL114929   8.263  13.967   6.437 -0.0068  0.0386 -0.2490
 1065YOPC   GL214930   8.512  14.273   6.358  0.0262  0.2164  0.0722
 1065YOPC   C1A14931   8.285  13.998   6.850  0.0504 -0.0084 -0.2404
 1065YOPC   D2A14932   8.284  14.296   7.084 -0.2073 -0.0183 -0.3351
 1065YOPC   C3A14933   8.188  14.341   7.526  0.0156  0.1700  0.0047
 1065YOPC   C4A14934   8.057  14.646   7.792 -0.1964  0.2245  0.1250
 1065YOPC   C1B14935   8.368  14.517   6.617 -0.1564  0.2765  0.1314
 1065YOPC   C2B14936   8.451  14.784   6.898  0.0301  0.1816  0.0687
 1065YOPC   D3B14937   8.645  15.186   6.773 -0.0573 -0.1089 -0.1228
 1065YOPC   C4B14938   8.850  15.526   6.883 -0.0216  0.0763  0.0830
 1066YOPC   NC314939   8.728  10.659   6.450  0.2088  0.1888 -0.0995
 1066YOPC   PO414940   9.116  10.909   6.538  0.1621  0.1885  0.1459
 1066YOPC   GL114941   9.212  11.048   6.919  0.3643  0.2432 -0.2356
 1066YOPC   GL214942   9.119  10.740   7.130  0.0170 -0.0567 -0.1015
 1066YOPC   C1A14943   8.961  11.170   7.245  0.1452  0.0340 -0.6008
 1066YOPC   D2A14944   8.903  11.112   7.719  0.1826  0.0678  0.0888
 1066YOPC   C3A14945   8.769  11.007   8.143 -0.0410 -0.2661  0.3737
 1066YOPC   C4A14946   8.499  11.059   8.538 -0.0454 -0.1863  0.1948
 1066YOPC   C1B14947   9.087  10.684   7.511 -0.0541 -0.0991 -0.0304
 1066YOPC   C2B14948   8.947  10.599   7.925  0.0248 -0.2544 -0.0318
 1066YOPC   D3B14949   9.235  10.435   8.222  0.0752 -0.0616  0.0355
 1066YOPC   C4B14950   9.474  10.583   8.468  0.0702  0.0890 -0.4812
 1067YOPC   NC314951  15.770   7.562   5.218  0.2861 -0.0256  0.0624
 1067YOPC   PO414952  15.975   7.604   5.650 -0.1651 -0.1081  0.0291
 1067YOPC   GL114953  15.868   7.501   6.084  0.4477  0.1875  0.0022
 1067YOPC   GL214954  15.750   7.819   6.248 -0.1320 -0.0440  0.0520
 1067YOPC   C1A14955  15.722   7.168   6.365  0.1132  0.0086  0.1215
 1067YOPC   D2A14956  15.829   6.998   6.710  0.0497  0.0032 -0.0038
 1067YOPC   C3A14957  16.179   6.967   6.820 -0.2928  0.0132 -0.1458
 1067YOPC   C4A14958  16.527   7.028   7.109 -0.2281 -0.1845 -0.0655
 1067YOPC   C1B14959  15.683   7.811   6.637  0.0527 -0.4629 -0.2917
 1067YOPC   C2B14960  15.648   7.785   7.042 -0.0683 -0.1192  0.0602
 1067YOPC   D3B14961  15.950   7.725   7.445  0.0320 -0.1275 -0.0638
 1067YOPC   C4B14962  16.114   7.554   7.768 -0.1987 -0.3420 -0.1864
 1068YOPC   NC314963   0.150  15.299   5.620 -0.1104  0.2344 -0.0844
 1068YOPC   PO414964   0.345  14.971   5.844  0.2949 -0.3116 -0.2159
 1068YOPC   GL114965   0.336  15.174   6.224 -0.0101 -0.1038 -0.2425
 1068YOPC   GL214966   0.556  15.427   6.400  0.4304  0.1497  0.0384
 1068YOPC   C1A14967   0.462  15.020   6.673 -0.0592  0.2296 -0.1651
 1068YOPC   D2A14968   0.563  15.183   7.010 -0.0030 -0.0056  0.3114
 1068YOPC   C3A14969   0.604  15.365   7.457  0.0413  0.0826 -0.3306
 1068YOPC   C4A14970   0.504  15.410   7.873 -0.2875 -0.0286  0.0427
 1068YOPC   C1B14971   0.210  15.438   6.641 -0.0422 -0.4190  0.0499
 1068YOPC   C2B14972  -0.095  15.607   6.662  0.1333  0.2739 -0.0449
 1068YOPC   D3B14973  -0.488  15.512   6.961  0.0268 -0.0567  0.3154
 1068YOPC   C4B14974  -0.580  15.570   7.408  0.2923 -0.1187 -0.1303
 1069YOPC   NC314975   9.887  15.823   6.099  0.0323 -0.1115 -0.2753
 1069YOPC   PO414976   9.941  15.411   6.031  0.1941  0.1735 -0.1465
 1069YOPC   GL114977  10.016  15.609   6.520 -0.3529  0.0309  0.1419
 1069YOPC   GL214978  10.215  15.473   6.618 -0.0274  0.1432  0.2481
 1069YOPC   C1A14979   9.773  15.482   6.874  0.1402  0.1360 -0.1405
 1069YOPC   D2A14980   9.628  15.395   7.370 -0.4088 -0.1775 -0.1032
 1069YOPC   C3A14981   9.458  15.048   7.368 -0.0512  0.0632  0.0874
 1069YOPC   C4A14982   9.625  14.811   7.786  0.2697  0.2441 -0.0389
 1069YOPC   C1B14983  10.365  15.433   6.968  0.0473  0.1887 -0.0387
 1069YOPC   C2B14984  10.691  15.606   7.294 -0.0261  0.0355 -0.0387
 1069YOPC   D3B14985  10.814  15.967   7.572 -0.1802 -0.1699  0.0750
 1069YOPC   C4B14986  10.876  16.292   7.906  0.1150 -0.0502 -0.0084
 1070YOPC   NC314987  10.343   8.941   6.016  0.0031  0.0516  0.5516
 1070YOPC   PO414988   9.990   8.720   6.003 -0.1732  0.2585 -0.0018
 1070YOPC   GL114989   9.735   8.586   6.437 -0.3909 -0.1641 -0.1674
 1070YOPC   GL214990   9.738   8.236   6.378  0.0263  0.1074  0.2911
 1070YOPC   C1A14991   9.648   8.787   6.801 -0.2593  0.2195  0.2413
 1070YOPC   D2A14992   9.744   8.872   7.208  0.0774 -0.1442 -0.0410
 1070YOPC   C3A14993   9.939   8.642   7.431 -0.0287  0.0626 -0.0522
 1070YOPC   C4A14994  10.215   8.668   7.698 -0.0836 -0.1039 -0.2423
 1070YOPC   C1B14995   9.743   7.949   6.676 -0.0558  0.1630 -0.1107
 1070YOPC   C2B14996  10.053   7.795   7.032 -0.0205 -0.0838  0.1103
 1070YOPC   D3B14997   9.991   7.801   7.497 -0.0033  0.1833  0.0973
 1070YOPC   C4B14998   9.916   8.140   7.752  0.2721  0.0162 -0.2104
 1071YOPC   NC314999  16.022  10.359   6.194  0.0239 -0.1592 -0.1904
 1071YOPC   PO415000  16.100  10.756   6.003 -0.1413  0.0344 -0.2035
 1071YOPC   GL115001  15.732  10.822   6.318 -0.1034 -0.1119 -0.1697
 1071YOPC   GL215002  15.770  10.564   6.584  0.1450 -0.1692  0.0716
 1071YOPC   C1A15003  15.550  11.071   6.611 -0.0350 -0.1037 -0.1711
 1071YOPC   D2A15004  15.172  10.891   6.789  0.3547 -0.3077 -0.2511
 1071YOPC   C3A15005  15.152  10.874   7.198  0.0596 -0.0085  0.0698
 1071YOPC   C4A15006  15.203  11.073   7.553  0.2202  0.1913  0.1490
 1071YOPC   C1B15007  15.610  10.763   7.007  0.0059 -0.0016  0.0759
 1071YOPC   C2B15008  15.603  10.638   7.396  0.0517 -0.1400  0.1824
 1071YOPC   D3B15009  15.708  10.449   7.777  0.0381 -0.2333 -0.0419
 1071YOPC   C4B15010  15.732  10.535   8.194 -0.0524 -0.0129 -0.0950
 1072YOPC   NC315011   2.370  15.470   6.309  0.1526 -0.0789  0.1853
 1072YOPC   PO415012   2.624  15.748   6.102  0.3428 -0.0991  0.5994
 1072YOPC   GL115013   2.800  15.714   6.580  0.2054 -0.1551  0.2652
 1072YOPC   GL215014   2.561  15.653   6.785  0.0345 -0.0462 -0.1212
 1072YOPC   C1A15015   2.949  15.575   7.043 -0.2119 -0.1070  0.0703
 1072YOPC   D2A15016   3.270  15.503   7.367 -0.0800 -0.2740  0.1237
 1072YOPC   C3A15017   3.524  15.804   7.670  0.4083 -0.0057  0.0351
 1072YOPC   C4A15018   3.921  15.653   7.839  0.0576  0.2187  0.2824
 1072YOPC   C1B15019   2.611  15.927   7.183 -0.2125  0.3088  0.1634
 1072YOPC   C2B15020   2.415  15.862   7.536  0.0018  0.0697  0.2978
 1072YOPC   D3B15021   2.450  15.538   7.885  0.1760 -0.0215 -0.2449
 1072YOPC   C4B15022   2.698  15.197   8.309 -0.1892 -0.0160  0.0276
 1073YOPC   NC315023  15.268  11.864   5.841 -0.0036  0.0210 -0.0361
 1073YOPC   PO415024  15.368  12.039   6.215  0.0530  0.2049  0.0676
 1073YOPC   GL115025  15.353  12.325   6.622 -0.2171  0.0488 -0.0768
 1073YOPC   GL215026  15.503  12.124   6.783 -0.0150  0.2646 -0.3753
 1073YOPC   C1A15027  15.313  12.498   7.047  0.0227 -0.1799  0.2392
 1073YOPC   D2A15028  15.542  12.643   7.456 -0.0211  0.1857  0.2781
 1073YOPC   C3A15029  15.499  12.584   7.783  0.3750 -0.3682 -0.3565
 1073YOPC   C4A15030  15.402  12.382   8.104 -0.2379 -0.0925  0.5466
 1073YOPC   C1B15031  15.509  12.100   7.181 -0.1498  0.1223 -0.2384
 1073YOPC   C2B15032  15.347  12.094   7.661  0.0890  0.0359  0.0673
 1073YOPC   D3B15033  15.402  11.791   7.939  0.0585  0.0838 -0.2109
 1073YOPC   C4B15034  15.367  11.317   7.929  0.0580  0.3494  0.4098
 1074YOPC   NC315035  17.569  10.373   5.646 -0.3836  0.1838 -0.2306
 1074YOPC   PO415036  17.943  10.621   5.932  0.1954  0.1003 -0.0201
 1074YOPC   GL115037  18.195  10.759   6.258  0.2509 -0.0268  0.1056
 1074YOPC   GL215038  18.483  10.916   6.179  0.1976 -0.0370 -0.1797
 1074YOPC   C1A15039  18.191  10.529   6.693  0.0980 -0.1600  0.1537
 1074YOPC   D2A15040  18.470  10.543   7.088  0.2510 -0.0852  0.1773
 1074YOPC   C3A15041  18.387  10.624   7.596  0.1947  0.1832 -0.0223
 1074YOPC   C4A15042  18.095  10.917   7.803  0.1782  0.1124 -0.1859
 1074YOPC   C1B15043  18.312  11.128   6.529  0.0216  0.1600  0.0048
 1074YOPC   C2B15044  18.283  11.008   6.961  0.1611  0.2253 -0.1268
 1074YOPC   D3B15045  18.308  11.083   7.399 -0.2583 -0.0559 -0.0597
 1074YOPC   C4B15046  18.401  11.295   7.802  0.1043  0.0537  0.0576
 1075YOPC   NC315047  10.302   7.035   5.761 -0.0164 -0.0602 -0.1006
 1075YOPC   PO415048  10.655   7.393   5.775  0.3735  0.3086  0.2982
 1075YOPC   GL115049  10.817   7.736   6.188  0.0784  0.0178 -0.2294
 1075YOPC   GL215050  10.565   7.634   6.368  0.0742  0.3308  0.0705
 1075YOPC   C1A15051  11.018   7.893   6.561 -0.1186  0.0674  0.3221
 1075YOPC   D2A15052  10.910   7.851   6.962  0.0651  0.0220 -0.1239
 1075YOPC   C3A15053  11.104   7.714   7.274 -0.0501 -0.0281  0.0889
 1075YOPC   C4A15054  11.183   7.669   7.756  0.0218 -0.1928  0.0496
 1075YOPC   C1B15055  10.498   7.451   6.782 -0.2158 -0.1344  0.1899
 1075YOPC   C2B15056  10.704   7.336   7.134 -0.1195 -0.1070 -0.1920
 1075YOPC   D3B15057  10.766   7.465   7.589 -0.0218  0.0192 -0.1194
 1075YOPC   C4B15058  10.814   7.490   8.082  0.3048 -0.0191  0.2682
 1076YOPC   NC315059   1.340  10.243   5.563  0.0952 -0.0281 -0.0942
 1076YOPC   PO415060   1.476   9.956   5.819 -0.2643 -0.1603 -0.1066
 1076YOPC   GL115061   1.527  10.026   6.234 -0.1409  0.0338  0.0542
 1076YOPC   GL215062   1.429   9.760   6.473  0.2034 -0.2011  0.2364
 1076YOPC   C1A15063   1.382  10.356   6.473  0.2154 -0.2572 -0.1372
 1076YOPC   D2A15064   1.054  10.410   6.670  0.0317 -0.0102 -0.1032
 1076YOPC   C3A15065   0.990  10.512   7.085  0.2262  0.1254  0.0215
 1076YOPC   C4A15066   0.898  10.559   7.523 -0.1112 -0.1810 -0.0751
 1076YOPC   C1B15067   1.238   9.916   6.818  0.1553 -0.2399  0.1601
 1076YOPC   C2B15068   0.966   9.895   7.223  0.1505 -0.2139  0.2521
 1076YOPC   D3B15069   1.127   9.771   7.598 -0.0453 -0.1771 -0.0954
 1076YOPC   C4B15070   1.206   9.664   8.037 -0.0668  0.1510  0.0116
 1077YOPC   NC315071   9.427   7.074   5.542  0.3323  0.3869 -0.0647
 1077YOPC   PO415072   9.842   7.135   5.717  0.2406  0.2026  0.2604
 1077YOPC   GL115073   9.894   7.083   6.082  0.0304  0.1164  0.1298
 1077YOPC   GL215074  10.185   7.266   6.242 -0.0032  0.0730  0.1068
 1077YOPC   C1A15075   9.807   7.012   6.558 -0.0152  0.0046 -0.2311
 1077YOPC   D2A15076   9.586   7.066   6.929  0.1882  0.2584 -0.2307
 1077YOPC   C3A15077   9.800   7.136   7.399 -0.0610  0.0614 -0.0989
 1077YOPC   C4A15078   9.612   7.452   7.627 -0.1761 -0.1266  0.0228
 1077YOPC   C1B15079  10.318   7.059   6.515  0.1784  0.2706  0.2135
 1077YOPC   C2B15080  10.490   6.937   6.900 -0.0088  0.0445  0.0800
 1077YOPC   D3B15081  10.330   6.937   7.338 -0.2480  0.2138  0.1174
 1077YOPC   C4B15082  10.121   6.677   7.542  0.1539 -0.1792 -0.5049
 1078YOPC   NC315083  16.214   2.046   5.365 -0.0007  0.0976 -0.2321
 1078YOPC   PO415084  15.906   2.398   5.516 -0.0732  0.1051 -0.0500
 1078YOPC   GL115085  15.890   2.629   5.811  0.0274 -0.1003 -0.2365
 1078YOPC   GL215086  16.087   2.817   6.042  0.1621 -0.1405 -0.4853
 1078YOPC   C1A15087  15.610   2.533   6.161 -0.0117  0.4044  0.0344
 1078YOPC   D2A15088  15.329   2.309   6.318  0.1318  0.0746 -0.2201
 1078YOPC   C3A15089  15.395   2.545   6.663 -0.0651  0.2124  0.1860
 1078YOPC   C4A15090  15.438   2.519   7.050 -0.1636  0.0665 -0.1764
 1078YOPC   C1B15091  15.939   2.745   6.492  0.2819  0.2348 -0.0114
 1078YOPC   C2B15092  15.898   2.750   6.965  0.1069  0.0304  0.3129
 1078YOPC   D3B15093  15.764   2.905   7.310  0.1043  0.3433 -0.1019
 1078YOPC   C4B15094  15.408   3.122   7.690  0.2370 -0.0416 -0.0745
 1079YOPC   NC315095  17.137  12.385   5.710  0.1716 -0.0386  0.1849
 1079YOPC   PO415096  16.907  12.224   6.025 -0.3347 -0.3200  0.0307
 1079YOPC   GL115097  17.040  12.470   6.349  0.0664  0.0250 -0.1341
 1079YOPC   GL215098  16.951  12.418   6.611  0.2370 -0.0284  0.0704
 1079YOPC   C1A15099  17.198  12.857   6.465  0.1395  0.2162  0.0253
 1079YOPC   D2A15100  17.263  13.128   6.753 -0.0262 -0.0293 -0.1171
 1079YOPC   C3A15101  17.342  13.074   7.132 -0.0838 -0.0468 -0.1945
 1079YOPC   C4A15102  17.394  13.194   7.510 -0.3192 -0.0760 -0.0445
 1079YOPC   C1B15103  16.834  12.168   7.026 -0.2286 -0.0406 -0.2241
 1079YOPC   C2B15104  16.899  11.796   7.251 -0.1128  0.0680 -0.1990
 1079YOPC   D3B15105  16.847  11.799   7.708 -0.0508 -0.1850  0.0479
 1079YOPC   C4B15106  16.525  11.658   8.082  0.1613  0.1325  0.0953
 1080YOPC   NC315107   1.645   4.895   5.596 -0.2593 -0.2755 -0.1121
 1080YOPC   PO415108   1.721   4.439   5.621  0.1098  0.0432  0.2108
 1080YOPC   GL115109   1.535   4.370   5.950 -0.3098  0.0510  0.1992
 1080YOPC   GL215110   1.427   4.598   6.095  0.1759  0.1036 -0.3187
 1080YOPC   C1A15111   1.394   3.978   6.223 -0.0453 -0.0713 -0.3991
 1080YOPC   D2A15112   1.332   3.890   6.675  0.1072  0.0012  0.2353
 1080YOPC   C3A15113   1.544   4.149   7.026 -0.2052 -0.1508 -0.1204
 1080YOPC   C4A15114   1.503   4.410   7.442  0.1598  0.0062  0.0270
 1080YOPC   C1B15115   1.212   4.771   6.467  0.0647 -0.1315  0.0803
 1080YOPC   C2B15116   1.262   4.751   6.902  0.4306  0.2156  0.0244
 1080YOPC   D3B15117   1.037   4.651   7.368 -0.1791 -0.0872  0.1809
 1080YOPC   C4B15118   1.172   4.329   7.795 -0.0780 -0.2402  0.1781
 1081YOPC   NC315119   2.952  16.762   5.558  0.0155  0.2571  0.0657
 1081YOPC   PO415120   2.763  16.626   5.911 -0.0765  0.0257 -0.2026
 1081YOPC   GL115121   2.455  16.429   6.247  0.1921 -0.0315 -0.0610
 1081YOPC   GL215122   2.729  16.229   6.344  0.3505 -0.1092  0.0266
 1081YOPC   C1A15123   2.186  16.471   6.648  0.0572 -0.0777 -0.2998
 1081YOPC   D2A15124   1.833  16.489   7.034  0.2274  0.3052  0.0975
 1081YOPC   C3A15125   1.776  16.398   7.445 -0.0150 -0.1951  0.0401
 1081YOPC   C4A15126   1.550  16.369   7.858  0.1526  0.1264 -0.0940
 1081YOPC   C1B15127   2.669  16.205   6.784 -0.1598  0.1054  0.0207
 1081YOPC   C2B15128   2.858  16.456   7.112 -0.0136  0.1587 -0.0100
 1081YOPC   D3B15129   2.751  16.329   7.507  0.0961  0.1346 -0.0800
 1081YOPC   C4B15130   2.590  16.141   7.918  0.0490 -0.3383  0.0800
 1082YOPC   NC315131  12.844   8.981   5.343 -0.0155  0.2467 -0.1452
 1082YOPC   PO415132  13.035   8.839   5.701  0.0885  0.2028 -0.0668
 1082YOPC   GL115133  13.345   8.548   5.965  0.1685  0.1311 -0.1204
 1082YOPC   GL215134  13.343   8.234   5.793  0.0049  0.1432  0.3559
 1082YOPC   C1A15135  13.135   8.271   6.336 -0.0547  0.0071  0.2140
 1082YOPC   D2A15136  13.315   8.103   6.728 -0.1986  0.0003  0.1240
 1082YOPC   C3A15137  13.409   8.084   7.310  0.0279  0.0242  0.0802
 1082YOPC   C4A15138  13.627   7.993   7.751  0.1126  0.1998 -0.0716
 1082YOPC   C1B15139  13.636   8.217   6.177  0.2414 -0.2292 -0.4647
 1082YOPC   C2B15140  13.811   8.311   6.578  0.1944 -0.0077  0.0907
 1082YOPC   D3B15141  13.814   8.267   7.063 -0.3302  0.0028  0.0319
 1082YOPC   C4B15142  13.972   8.271   7.467  0.2332 -0.1755  0.1119
 1083YOPC   NC315143   6.850   3.008   5.718 -0.1141  0.2761 -0.1684
 1083YOPC   PO415144   6.563   2.742   5.855  0.3470  0.1886 -0.4129
 1083YOPC   GL115145   6.579   2.821   6.235  0.1789 -0.1869 -0.1855
 1083YOPC   GL215146   6.650   3.115   6.327 -0.1527  0.0784 -0.1832
 1083YOPC   C1A15147   6.527   2.749   6.719 -0.0960 -0.1678 -0.0743
 1083YOPC   D2A15148   6.483   2.775   7.138  0.0522 -0.2898  0.1615
 1083YOPC   C3A15149   6.402   3.188   7.388  0.1252  0.2269  0.0829
 1083YOPC   C4A15150   6.658   3.364   7.739 -0.0219  0.0393  0.0195
 1083YOPC   C1B15151   6.856   3.224   6.660  0.1257  0.0544  0.0947
 1083YOPC   C2B15152   7.096   3.360   6.954  0.1742  0.1102 -0.3905
 1083YOPC   D3B15153   7.000   3.036   7.135 -0.1563 -0.0922  0.1701
 1083YOPC   C4B15154   6.779   2.884   7.545  0.0017 -0.1287  0.0532
 1084YOPC   NC315155   5.094  14.983   5.973  0.2214 -0.3013  0.1627
 1084YOPC   PO415156   4.731  14.822   6.087 -0.0477  0.1699  0.2300
 1084YOPC   GL115157   4.623  14.877   6.400  0.1854  0.0088  0.1626
 1084YOPC   GL215158   4.489  14.566   6.419  0.0550  0.0933 -0.0380
 1084YOPC   C1A15159   4.721  14.789   6.829 -0.1659 -0.0304  0.1622
 1084YOPC   D2A15160   4.644  14.700   7.196  0.0653 -0.1862  0.2435
 1084YOPC   C3A15161   4.801  14.511   7.449  0.1712  0.0441 -0.0324
 1084YOPC   C4A15162   5.027  14.336   7.831  0.2673  0.0154  0.0611
 1084YOPC   C1B15163   4.238  14.555   6.688 -0.3061  0.0169 -0.2661
 1084YOPC   C2B15164   4.201  14.515   7.040  0.0459  0.1160  0.0346
 1084YOPC   D3B15165   4.409  14.246   7.234 -0.1586  0.2078  0.0215
 1084YOPC   C4B15166   4.663  14.033   7.573 -0.2075 -0.0911  0.1492
 1085YOPC   NC315167   9.646  14.498   6.068 -0.0926  0.0247  0.1063
 1085YOPC   PO415168   9.399  14.171   6.148 -0.3307 -0.1272  0.0687
 1085YOPC   GL115169   9.523  13.873   6.404 -0.0751 -0.0195 -0.2973
 1085YOPC   GL215170   9.788  14.035   6.481 -0.0190  0.2715  0.0126
 1085YOPC   C1A15171   9.557  13.900   6.946  0.2891 -0.0526  0.1889
 1085YOPC   D2A15172   9.592  14.026   7.380 -0.1526  0.1984  0.2097
 1085YOPC   C3A15173   9.760  13.954   7.807 -0.0650 -0.0903  0.0941
 1085YOPC   C4A15174   9.896  13.875   8.247 -0.0603 -0.0144 -0.1035
 1085YOPC   C1B15175  10.276  14.089   6.682 -0.1020 -0.0093  0.2644
 1085YOPC   C2B15176  10.720  14.044   6.669  0.2127 -0.3814  0.0653
 1085YOPC   D3B15177  10.934  13.686   6.748 -0.2558 -0.0516 -0.2434
 1085YOPC   C4B15178  11.164  13.409   6.979  0.1243 -0.2905  0.1988
 1086YOPC   NC315179   1.502   9.013   6.186 -0.1806 -0.1542 -0.1616
 1086YOPC   PO415180   1.284   9.296   6.341 -0.0822 -0.2076 -0.1582
 1086YOPC   GL115181   1.135   9.361   6.726  0.1540 -0.0630 -0.0614
 1086YOPC   GL215182   0.816   9.081   6.731  0.4728  0.4436  0.1767
 1086YOPC   C1A15183   1.093   9.434   7.232  0.1100 -0.0779 -0.1246
 1086YOPC   D2A15184   1.107   9.288   7.698 -0.4912  0.0740  0.0239
 1086YOPC   C3A15185   0.731   9.517   7.890  0.0694  0.0215 -0.0012
 1086YOPC   C4A15186   0.388   9.630   8.173 -0.0507 -0.1345  0.0341
 1086YOPC   C1B15187   0.798   9.029   7.167  0.0088 -0.0701  0.0881
 1086YOPC   C2B15188   0.626   9.139   7.522 -0.1314  0.3092 -0.2007
 1086YOPC   D3B15189   0.653   8.898   7.986 -0.1586  0.0975  0.0979
 1086YOPC   C4B15190   0.877   8.793   8.454 -0.1594 -0.1710  0.1200
 1087YOPC   NC315191  11.272   2.759   5.515 -0.2110  0.2408 -0.1415
 1087YOPC   PO415192  10.895   2.955   5.715 -0.1359 -0.1657  0.2273
 1087YOPC   GL115193  10.695   2.940   6.155  0.3615 -0.1251 -0.0739
 1087YOPC   GL215194  10.595   2.552   6.146  0.0450 -0.1076  0.0527
 1087YOPC   C1A15195  10.750   2.668   6.609  0.2007 -0.2902 -0.0400
 1087YOPC   D2A15196  10.885   2.654   7.062  0.0816 -0.1689 -0.0196
 1087YOPC   C3A15197  10.768   2.815   7.487 -0.0504  0.1702  0.0333
 1087YOPC   C4A15198  10.693   2.623   7.935  0.2274  0.0456 -0.1844
 1087YOPC   C1B15199  10.677   2.202   6.423  0.0922  0.1863  0.1637
 1087YOPC   C2B15200  10.546   1.884   6.726  0.1915  0.1145 -0.2043
 1087YOPC   D3B15201  10.153   1.788   6.874  0.0266  0.1894 -0.0357
 1087YOPC   C4B15202   9.932   1.650   7.131  0.2124  0.0514  0.0705
 1088YOPC   NC315203   4.524   4.409   5.796 -0.0993  0.2177 -0.0693
 1088YOPC   PO415204   4.432   4.054   5.977  0.0532  0.1435  0.1134
 1088YOPC   GL115205   4.413   4.037   6.389 -0.2530 -0.1011 -0.1245
 1088YOPC   GL215206   4.731   4.111   6.458  0.2791  0.0956 -0.1012
 1088YOPC   C1A15207   4.152   4.352   6.729 -0.1642 -0.0377  0.2168
 1088YOPC   D2A15208   4.058   4.369   7.128  0.1930  0.0737  0.2977
 1088YOPC   C3A15209   4.275   3.962   7.406  0.0994 -0.0238 -0.2032
 1088YOPC   C4A15210   4.006   3.802   7.689  0.0411  0.2120  0.1619
 1088YOPC   C1B15211   4.631   4.291   6.795 -0.0256  0.0211 -0.2957
 1088YOPC   C2B15212   4.546   4.331   7.184 -0.2852  0.1540 -0.1935
 1088YOPC   D3B15213   4.796   4.653   7.468  0.2137 -0.0283  0.0647
 1088YOPC   C4B15214   4.880   4.790   7.950 -0.1379 -0.2909 -0.1712
 1089YOPC   NC315215   3.925   5.881   5.816  0.0407 -0.1965  0.1949
 1089YOPC   PO415216   3.512   5.924   5.715  0.4889 -0.1550 -0.0636
 1089YOPC   GL115217   3.490   5.942   6.121  0.0252  0.1682 -0.1953
 1089YOPC   GL215218   3.393   6.209   6.242 -0.0973 -0.1189  0.0744
 1089YOPC   C1A15219   3.283   5.829   6.515  0.0119 -0.0095  0.1362
 1089YOPC   D2A15220   3.145   5.733   7.017  0.1308 -0.0604 -0.1288
 1089YOPC   C3A15221   3.263   5.494   7.343  0.3326  0.0956 -0.1405
 1089YOPC   C4A15222   3.120   5.499   7.744  0.1229  0.3600 -0.1073
 1089YOPC   C1B15223   3.655   6.448   6.585 -0.4592  0.3415  0.2058
 1089YOPC   C2B15224   3.795   6.532   6.943 -0.0261  0.1747 -0.1496
 1089YOPC   D3B15225   3.618   6.415   7.311  0.0002 -0.0545  0.0031
 1089YOPC   C4B15226   3.443   6.725   7.719 -0.0621 -0.0992 -0.2141
 1090YOPC   NC315227   8.040  10.509   6.075  0.0352  0.0097 -0.1813
 1090YOPC   PO415228   8.280  10.460   6.447  0.1299 -0.0810  0.4639
 1090YOPC   GL115229   7.953  10.413   6.630 -0.0530  0.1423  0.0333
 1090YOPC   GL215230   7.632  10.399   6.554  0.0995  0.0672 -0.0012
 1090YOPC   C1A15231   7.898  10.256   7.039 -0.1279 -0.1099 -0.0482
 1090YOPC   D2A15232   7.905  10.260   7.412 -0.3365 -0.0578 -0.0442
 1090YOPC   C3A15233   7.655  10.415   7.547 -0.0644  0.0440 -0.2433
 1090YOPC   C4A15234   7.417  10.755   7.688 -0.2898 -0.0660 -0.2440
 1090YOPC   C1B15235   7.250  10.326   6.759  0.0046  0.0839 -0.1502
 1090YOPC   C2B15236   6.976  10.400   7.047 -0.1783  0.0044  0.0652
 1090YOPC   D3B15237   7.109  10.525   7.419 -0.0026  0.0600 -0.0029
 1090YOPC   C4B15238   6.861  10.611   7.782  0.0348 -0.0846 -0.1793
 1091YOPC   NC315239  13.506   0.721   5.890  0.1686 -0.0405  0.3818
 1091YOPC   PO415240  13.062   0.761   5.827  0.2216  0.0622 -0.0695
 1091YOPC   GL115241  13.179   0.876   6.272 -0.0690 -0.1526 -0.1136
 1091YOPC   GL215242  12.953   1.109   6.244  0.1682 -0.2801 -0.2358
 1091YOPC   C1A15243  13.235   1.033   6.702 -0.1498  0.0223 -0.0338
 1091YOPC   D2A15244  13.226   1.023   7.045  0.3645 -0.0693  0.0832
 1091YOPC   C3A15245  13.174   1.316   7.358  0.0638 -0.2811 -0.2018
 1091YOPC   C4A15246  13.299   1.382   7.814 -0.0900 -0.0880  0.1294
 1091YOPC   C1B15247  12.783   1.174   6.591  0.1193 -0.0249 -0.0948
 1091YOPC   C2B15248  12.795   1.311   6.988  0.1886 -0.2934 -0.0763
 1091YOPC   D3B15249  12.391   1.541   7.165  0.0529 -0.2920 -0.1703
 1091YOPC   C4B15250  12.237   1.617   7.590  0.0772 -0.0893 -0.2057
 1092YOPC   NC315251  16.433   2.606   5.715  0.3208  0.1547 -0.1048
 1092YOPC   PO415252  16.393   3.017   5.723 -0.0023  0.2504 -0.0230
 1092YOPC   GL115253  16.427   3.145   6.182  0.1484 -0.1056  0.1079
 1092YOPC   GL215254  16.402   3.428   6.155  0.0213 -0.2292  0.2635
 1092YOPC   C1A15255  16.384   3.156   6.670  0.2136 -0.1748  0.2389
 1092YOPC   D2A15256  16.569   3.026   7.068  0.4959 -0.1232 -0.0502
 1092YOPC   C3A15257  16.242   2.859   7.367 -0.2390 -0.0330 -0.0402
 1092YOPC   C4A15258  16.399   2.874   7.773 -0.2472 -0.2511 -0.0403
 1092YOPC   C1B15259  16.632   3.665   6.503  0.1628  0.3265 -0.2982
 1092YOPC   C2B15260  16.959   3.996   6.669  0.3394  0.0927 -0.0710
 1092YOPC   D3B15261  17.031   4.098   7.148  0.0182 -0.0350 -0.1286
 1092YOPC   C4B15262  17.281   4.119   7.439 -0.1080 -0.2445 -0.0115
 1093YOPC   NC315263  16.502   4.159   5.795 -0.0430  0.1846  0.0519
 1093YOPC   PO415264  16.212   3.853   5.919  0.2172 -0.2700 -0.0413
 1093YOPC   GL115265  16.075   3.831   6.385 -0.1656 -0.0458 -0.2414
 1093YOPC   GL215266  15.937   4.097   6.562 -0.1205 -0.0711  0.0630
 1093YOPC   C1A15267  16.174   3.648   6.774 -0.3249  0.0797 -0.2722
 1093YOPC   D2A15268  16.537   3.610   6.965  0.0314  0.0103  0.0950
 1093YOPC   C3A15269  16.543   3.452   7.425  0.2496  0.0199 -0.3443
 1093YOPC   C4A15270  16.688   3.531   7.803  0.0824  0.0568  0.0952
 1093YOPC   C1B15271  16.048   4.075   6.935  0.2729 -0.0681 -0.0228
 1093YOPC   C2B15272  16.204   3.789   7.305 -0.2158  0.1718  0.1341
 1093YOPC   D3B15273  16.523   3.968   7.537 -0.2220 -0.1799  0.0800
 1093YOPC   C4B15274  16.464   4.144   7.898  0.2903  0.1333 -0.1459
 1094YOPC   NC315275  13.961  14.627   5.789  0.0407  0.2382 -0.0825
 1094YOPC   PO415276  14.267  14.689   6.137  0.1418 -0.0178  0.1055
 1094YOPC   GL115277  14.237  14.637   6.472  0.0427 -0.0140  0.1379
 1094YOPC   GL215278  14.502  14.758   6.713 -0.0444 -0.0905 -0.1235
 1094YOPC   C1A15279  14.152  14.407   6.805  0.0066  0.0134  0.0669
 1094YOPC   D2A15280  14.068  14.130   7.111 -0.0929  0.0965 -0.2424
 1094YOPC   C3A15281  13.801  13.865   7.073 -0.0016 -0.1311  0.2679
 1094YOPC   C4A15282  13.658  13.525   7.096 -0.1308  0.0794 -0.0517
 1094YOPC   C1B15283  14.303  14.980   7.006  0.0305  0.1165 -0.1245
 1094YOPC   C2B15284  14.279  15.251   7.334 -0.0438 -0.0381  0.0947
 1094YOPC   D3B15285  14.526  15.284   7.698 -0.0428 -0.0486  0.4005
 1094YOPC   C4B15286  14.569  15.124   8.051  0.0218  0.0138  0.1486
 1095YOPC   NC315287  12.082   2.557   5.692  0.0965 -0.0151  0.0964
 1095YOPC   PO415288  12.527   2.793   5.682  0.0067  0.0857  0.1551
 1095YOPC   GL115289  12.676   2.702   6.082 -0.1684  0.1030 -0.0950
 1095YOPC   GL215290  12.602   2.922   6.279  0.1407  0.2404  0.0695
 1095YOPC   C1A15291  12.676   2.319   6.335 -0.2386  0.0654  0.1511
 1095YOPC   D2A15292  12.526   2.038   6.720  0.2256 -0.2886 -0.1789
 1095YOPC   C3A15293  12.477   1.597   6.694  0.0624  0.1043 -0.0048
 1095YOPC   C4A15294  12.435   1.418   6.348  0.1837 -0.1198  0.2066
 1095YOPC   C1B15295  12.561   2.659   6.697  0.0299  0.3150 -0.0974
 1095YOPC   C2B15296  12.574   2.441   7.064  0.0337 -0.2799 -0.3090
 1095YOPC   D3B15297  12.276   2.426   7.388 -0.0262  0.0186 -0.1723
 1095YOPC   C4B15298  12.118   2.245   7.747 -0.0092 -0.2113  0.0770
 1096YOPC   NC315299   6.061  13.451   5.449  0.0324  0.2949 -0.1113
 1096YOPC   PO415300   6.140  13.530   5.867 -0.0718 -0.0464 -0.1859
 1096YOPC   GL115301   5.988  13.404   6.195 -0.2026  0.1461  0.0369
 1096YOPC   GL215302   6.214  13.423   6.427 -0.2428 -0.0583 -0.4415
 1096YOPC   C1A15303   5.816  13.553   6.711  0.3951  0.3669  0.0154
 1096YOPC   D2A15304   5.774  13.495   7.137  0.3526 -0.1222  0.2129
 1096YOPC   C3A15305   5.523  13.266   7.354 -0.0014  0.1078  0.1844
 1096YOPC   C4A15306   5.359  13.424   7.597  0.0567 -0.2663 -0.0266
 1096YOPC   C1B15307   6.196  13.309   6.916  0.1926 -0.0868  0.1334
 1096YOPC   C2B15308   6.215  13.375   7.396  0.1059  0.1653 -0.0113
 1096YOPC   D3B15309   5.968  13.559   7.787  0.0174 -0.0320 -0.2772
 1096YOPC   C4B15310   5.691  13.457   8.004  0.3068 -0.1794  0.0744
 1097YOPC   NC315311   0.460  10.133   5.495  0.2033 -0.2116 -0.4003
 1097YOPC   PO415312   0.580   9.900   5.921 -0.1465 -0.1281 -0.0129
 1097YOPC   GL115313   0.905  10.021   6.342  0.0780  0.0190 -0.4492
 1097YOPC   GL215314   0.925   9.723   6.478 -0.1288  0.1000  0.1995
 1097YOPC   C1A15315   0.702  10.089   6.796  0.1474 -0.0643 -0.1853
 1097YOPC   D2A15316   0.524  10.063   7.225  0.2604 -0.0003  0.1395
 1097YOPC   C3A15317   0.708  10.149   7.702 -0.0910 -0.0863 -0.0017
 1097YOPC   C4A15318   0.764  10.469   7.955 -0.0238 -0.0584  0.0565
 1097YOPC   C1B15319   0.583   9.583   6.915  0.1846 -0.0779 -0.0433
 1097YOPC   C2B15320   0.610   9.548   7.354  0.1995  0.2129 -0.1028
 1097YOPC   D3B15321   0.405   9.754   7.596  0.0846 -0.1307  0.2112
 1097YOPC   C4B15322   0.099  10.095   7.682 -0.0889 -0.2529 -0.2023
 1098YOPC   NC315323  17.655  13.523   5.982  0.0813  0.0771  0.0497
 1098YOPC   PO415324  17.575  13.064   5.769 -0.0488  0.0745 -0.4285
 1098YOPC   GL115325  17.642  13.049   6.281 -0.1840  0.0615  0.0832
 1098YOPC   GL215326  17.827  13.400   6.424  0.2395  0.1358  0.0248
 1098YOPC   C1A15327  17.759  12.925   6.636 -0.1484 -0.0974 -0.2145
 1098YOPC   D2A15328  17.873  12.731   6.994  0.1255  0.0306  0.0803
 1098YOPC   C3A15329  17.756  12.836   7.389  0.0777 -0.2114  0.1852
 1098YOPC   C4A15330  17.597  12.850   7.792 -0.0496  0.0931 -0.3642
 1098YOPC   C1B15331  18.119  13.248   6.787  0.0183 -0.2895 -0.1153
 1098YOPC   C2B15332  18.194  13.113   7.290  0.2828  0.1174  0.0750
 1098YOPC   D3B15333  18.522  12.912   7.552 -0.0579 -0.3009 -0.1406
 1098YOPC   C4B15334  18.742  12.753   7.907  0.0105  0.2099  0.0095
 1099YOPC   NC315335   4.521   1.676   6.380  0.1860 -0.0070 -0.0440
 1099YOPC   PO415336   4.959   1.723   6.331 -0.3145 -0.1478 -0.1671
 1099YOPC   GL115337   5.070   1.685   6.771  0.0768  0.1794  0.0351
 1099YOPC   GL215338   5.164   1.977   6.909 -0.0997  0.0266 -0.1240
 1099YOPC   C1A15339   5.186   1.621   7.247 -0.0843  0.2116  0.0118
 1099YOPC   D2A15340   5.169   1.676   7.741  0.0679  0.0340 -0.0416
 1099YOPC   C3A15341   5.162   1.550   8.195 -0.1030 -0.1056  0.1018
 1099YOPC   C4A15342   5.323   1.440   8.590 -0.0288  0.1142  0.2852
 1099YOPC   C1B15343   4.931   2.064   7.248  0.0523  0.2758  0.2488
 1099YOPC   C2B15344   4.599   2.230   7.507  0.0962  0.1050 -0.1479
 1099YOPC   D3B15345   4.591   2.632   7.707 -0.0859 -0.3826 -0.2149
 1099YOPC   C4B15346   4.528   3.050   7.790  0.1934 -0.0791 -0.2102
 1100YOPC   NC315347  16.145   1.247   5.804 -0.2711  0.0953 -0.0886
 1100YOPC   PO415348  16.512   1.338   6.000  0.3939 -0.0277  0.1139
 1100YOPC   GL115349  16.468   1.424   6.430  0.1017  0.1944  0.1311
 1100YOPC   GL215350  16.811   1.569   6.567  0.1156  0.0929 -0.2288
 1100YOPC   C1A15351  16.406   1.342   6.840 -0.1507  0.2196  0.0192
 1100YOPC   D2A15352  16.294   1.058   7.083 -0.3067 -0.2517 -0.1079
 1100YOPC   C3A15353  16.068   0.926   7.416 -0.1855  0.0825  0.0031
 1100YOPC   C4A15354  15.702   1.014   7.634 -0.0567  0.2419  0.1739
 1100YOPC   C1B15355  16.751   1.800   7.001  0.1099  0.1329 -0.0924
 1100YOPC   C2B15356  16.650   1.880   7.425 -0.1959 -0.2093  0.0298
 1100YOPC   D3B15357  16.273   1.805   7.748 -0.0666 -0.3610  0.1365
 1100YOPC   C4B15358  16.165   1.658   8.129 -0.4392 -0.1163 -0.1171
 1101YOPC   NC315359   5.223  17.279   5.892 -0.0784 -0.2158  0.0053
 1101YOPC   PO415360   5.579  17.461   5.780 -0.0771  0.3650 -0.2494
 1101YOPC   GL115361   5.701  17.358   6.178  0.0550 -0.2118 -0.0926
 1101YOPC   GL215362   6.086  17.557   6.239 -0.0859 -0.1501  0.1488
 1101YOPC   C1A15363   5.799  17.333   6.544 -0.2727  0.1386  0.1510
 1101YOPC   D2A15364   6.017  17.587   6.750  0.0709  0.1275 -0.0409
 1101YOPC   C3A15365   6.058  17.886   7.053 -0.0477  0.2669 -0.2685
 1101YOPC   C4A15366   6.382  17.708   7.419 -0.2389  0.0480 -0.1124
 1101YOPC   C1B15367   6.129  17.996   6.453  0.0340  0.2139 -0.0952
 1101YOPC   C2B15368   6.065  18.379   6.752 -0.1205  0.2232 -0.0011
 1101YOPC   D3B15369   6.202  18.394   7.170  0.1015 -0.1380 -0.1479
 1101YOPC   C4B15370   6.403  18.223   7.440  0.1979  0.1867  0.0648
 1102YOPC   NC315371  13.208  15.685   6.028  0.0552 -0.2604 -0.3116
 1102YOPC   PO415372  12.828  15.567   6.060  0.0430 -0.1606  0.1304
 1102YOPC   GL115373  12.573  15.806   6.419  0.3156 -0.2727  0.1287
 1102YOPC   GL215374  12.926  15.910   6.565  0.2851 -0.0586 -0.1632
 1102YOPC   C1A15375  12.505  15.820   6.846 -0.3098 -0.0508  0.1897
 1102YOPC   D2A15376  12.534  15.870   7.212 -0.0367  0.0613 -0.0851
 1102YOPC   C3A15377  12.490  15.685   7.566 -0.2305 -0.1683 -0.0017
 1102YOPC   C4A15378  12.361  15.518   7.841  0.2226 -0.1476 -0.0091
 1102YOPC   C1B15379  12.981  15.827   7.020 -0.2149 -0.1418 -0.0644
 1102YOPC   C2B15380  12.979  15.523   7.374 -0.1722 -0.1454 -0.0111
 1102YOPC   D3B15381  12.822  15.293   7.577 -0.2096  0.1828 -0.0670
 1102YOPC   C4B15382  12.637  15.138   7.914 -0.1327  0.1577  0.0907
 1103YOPC   NC315383   9.359   5.300   5.446  0.4009  0.2293  0.4474
 1103YOPC   PO415384   9.115   5.204   5.721  0.2734  0.2222  0.2271
 1103YOPC   GL115385   9.096   5.406   6.093 -0.0606  0.0707 -0.3140
 1103YOPC   GL215386   9.204   5.146   6.326  0.0094  0.1002  0.2811
 1103YOPC   C1A15387   8.946   5.572   6.438  0.0901 -0.0072  0.1375
 1103YOPC   D2A15388   8.848   5.638   6.886 -0.2074 -0.2234 -0.4463
 1103YOPC   C3A15389   9.190   5.570   7.148  0.2832  0.0516  0.0517
 1103YOPC   C4A15390   9.354   5.806   7.449 -0.0410  0.4003  0.0753
 1103YOPC   C1B15391   9.085   5.138   6.809 -0.2274 -0.0377 -0.0693
 1103YOPC   C2B15392   9.212   5.023   7.213 -0.2893  0.1806  0.0560
 1103YOPC   D3B15393   9.272   5.320   7.559  0.1370  0.0796  0.0990
 1103YOPC   C4B15394   9.345   5.492   7.964  0.3380  0.1298  0.0756
 1104YOPC   NC315395  16.546   5.443   5.343 -0.2225 -0.1317  0.1786
 1104YOPC   PO415396  16.173   5.176   5.308  0.0646 -0.1796  0.0467
 1104YOPC   GL115397  16.078   5.044   5.734 -0.2021  0.1099 -0.0514
 1104YOPC   GL215398  15.878   5.159   6.005 -0.0764 -0.0069 -0.0891
 1104YOPC   C1A15399  16.331   4.910   6.144  0.2695  0.4667  0.0243
 1104YOPC   D2A15400  16.625   4.772   6.491  0.1872 -0.0751  0.0956
 1104YOPC   C3A15401  16.467   4.823   6.875 -0.0972  0.3072  0.1492
 1104YOPC   C4A15402  16.353   4.876   7.288  0.1186 -0.0322  0.0570
 1104YOPC   C1B15403  15.813   4.869   6.378 -0.1832 -0.0877 -0.0430
 1104YOPC   C2B15404  16.103   4.616   6.636 -0.0802  0.1569 -0.2045
 1104YOPC   D3B15405  16.059   4.581   7.041  0.0352  0.2076 -0.1097
 1104YOPC   C4B15406  16.177   4.286   7.383  0.1514  0.1293  0.0569
 1105YOPC   NC315407  11.351   8.798   5.784 -0.1523 -0.0467  0.2796
 1105YOPC   PO415408  11.602   9.172   5.795  0.0401 -0.1007 -0.0863
 1105YOPC   GL115409  11.841   9.277   6.189  0.3944  0.1355 -0.2438
 1105YOPC   GL215410  12.205   9.419   6.201 -0.0091 -0.0215  0.0955
 1105YOPC   C1A15411  11.999   9.225   6.594  0.0690  0.3624  0.1275
 1105YOPC   D2A15412  12.186   9.256   6.979  0.1634  0.1559  0.1910
 1105YOPC   C3A15413  11.985   9.383   7.390  0.0896  0.0237  0.1504
 1105YOPC   C4A15414  11.836   9.329   7.744 -0.1486  0.3134 -0.1664
 1105YOPC   C1B15415  12.399   9.590   6.566 -0.0330 -0.2612  0.1091
 1105YOPC   C2B15416  12.669   9.620   6.906 -0.1654 -0.2153 -0.0364
 1105YOPC   D3B15417  12.634   9.234   7.278 -0.1524 -0.1057  0.0908
 1105YOPC   C4B15418  12.566   9.080   7.681 -0.2401 -0.0301  0.1509
 1106YOPC   NC315419   7.323   0.548   5.212  0.0882  0.1239 -0.1702
 1106YOPC   PO415420   7.454   0.751   5.555  0.0487  0.1046 -0.0644
 1106YOPC   GL115421   7.460   0.483   6.022  0.0192 -0.2270 -0.0784
 1106YOPC   GL215422   7.753   0.534   6.076 -0.0117 -0.0751 -0.2588
 1106YOPC   C1A15423   7.357   0.093   6.309 -0.1766  0.4771  0.0624
 1106YOPC   D2A15424   7.182  -0.228   6.468 -0.0604 -0.0443  0.2375
 1106YOPC   C3A15425   6.925  -0.202   6.808  0.1437  0.2480  0.3251
 1106YOPC   C4A15426   6.580  -0.070   7.017 -0.0365  0.2285 -0.1334
 1106YOPC   C1B15427   7.721   0.415   6.619  0.0647  0.0440  0.2279
 1106YOPC   C2B15428   7.753   0.341   7.051  0.3519 -0.0658  0.1364
 1106YOPC   D3B15429   7.886   0.637   7.468  0.0799  0.0897  0.2058
 1106YOPC   C4B15430   8.194   0.884   7.745 -0.0735 -0.2176 -0.0261
 1107YOPC   NC315431  17.773   1.113   6.002 -0.2851 -0.0494  0.0317
 1107YOPC   PO415432  17.874   0.717   6.069 -0.0484  0.1823  0.0825
 1107YOPC   GL115433  17.758   0.786   6.457  0.1799 -0.0793 -0.0352
 1107YOPC   GL215434  17.997   1.096   6.446 -0.0541  0.0066  0.1819
 1107YOPC   C1A15435  17.792   0.836   6.877 -0.1477  0.2124 -0.1879
 1107YOPC   D2A15436  17.826   1.023   7.243 -0.0843 -0.0446  0.0311
 1107YOPC   C3A15437  17.886   0.971   7.675  0.0427  0.0701  0.2539
 1107YOPC   C4A15438  17.931   1.078   8.060 -0.1273 -0.1048 -0.0791
 1107YOPC   C1B15439  18.176   1.108   6.898 -0.1019 -0.3141 -0.0859
 1107YOPC   C2B15440  18.517   1.386   7.183  0.2803 -0.1269  0.2566
 1107YOPC   D3B15441  18.803   1.270   7.572  0.0423 -0.0693 -0.1361
 1107YOPC   C4B15442  19.091   1.456   7.827 -0.1187  0.0104  0.0865
 1108YOPC   NC315443  10.694  15.867   5.771  0.1268 -0.1209  0.0879
 1108YOPC   PO415444  10.746  16.375   5.841 -0.1801 -0.3081  0.1474
 1108YOPC   GL115445  10.729  16.105   6.280  0.2226  0.0972  0.1032
 1108YOPC   GL215446  11.000  15.940   6.281 -0.0420 -0.1981  0.1271
 1108YOPC   C1A15447  10.749  16.302   6.792 -0.2330 -0.1013  0.0233
 1108YOPC   D2A15448  10.799  16.406   7.231  0.1402 -0.0520  0.1514
 1108YOPC   C3A15449  11.008  16.668   7.466 -0.2096 -0.0996  0.4553
 1108YOPC   C4A15450  11.381  16.743   7.801 -0.1948  0.3606  0.2176
 1108YOPC   C1B15451  11.277  15.900   6.615 -0.2394  0.1521 -0.0981
 1108YOPC   C2B15452  11.653  16.074   6.739 -0.0175 -0.0558 -0.3605
 1108YOPC   D3B15453  11.670  16.122   7.218 -0.1873  0.3147  0.2894
 1108YOPC   C4B15454  11.761  16.092   7.676 -0.2108  0.1064 -0.2563
 1109YOPC   NC315455  17.996   9.400   5.945 -0.2028 -0.0923 -0.1265
 1109YOPC   PO415456  18.233   9.752   5.693  0.3782  0.2436 -0.2455
 1109YOPC   GL115457  18.233   9.752   6.208  0.3998 -0.1183 -0.1710
 1109YOPC   GL215458  18.460   9.909   6.422  0.0470  0.3546 -0.1035
 1109YOPC   C1A15459  18.015  10.087   6.437 -0.1647  0.2451  0.2668
 1109YOPC   D2A15460  17.740  10.372   6.734  0.1270  0.2742  0.3672
 1109YOPC   C3A15461  17.371  10.602   6.619 -0.2560  0.0059  0.0915
 1109YOPC   C4A15462  17.266  11.070   6.771  0.2074 -0.2915  0.1615
 1109YOPC   C1B15463  18.313   9.959   6.896 -0.0227 -0.0891 -0.1355
 1109YOPC   C2B15464  18.083  10.255   7.191  0.1422  0.0097 -0.0633
 1109YOPC   D3B15465  17.903  10.697   7.032 -0.2213 -0.0454 -0.1141
 1109YOPC   C4B15466  17.779  10.897   6.639 -0.0413  0.1349  0.1880
 1110YOPC   NC315467   6.404   6.416   5.859 -0.0413  0.2398  0.1209
 1110YOPC   PO415468   6.709   6.796   5.949  0.1112  0.2134 -0.0378
 1110YOPC   GL115469   6.722   6.950   6.356  0.1822 -0.0748  0.1210
 1110YOPC   GL215470   7.017   7.002   6.474 -0.1119 -0.2353 -0.0532
 1110YOPC   C1A15471   6.596   7.028   6.783 -0.0073  0.0727  0.0613
 1110YOPC   D2A15472   6.652   7.091   7.248  0.0090  0.1424  0.4112
 1110YOPC   C3A15473   6.938   7.211   7.528 -0.4135  0.2039  0.0679
 1110YOPC   C4A15474   7.206   7.254   7.875 -0.5484 -0.1082  0.0473
 1110YOPC   C1B15475   7.043   6.898   6.946  0.2719  0.1858  0.1128
 1110YOPC   C2B15476   7.187   6.753   7.274  0.1975  0.1378  0.0603
 1110YOPC   D3B15477   7.535   6.940   7.605  0.0591 -0.2226  0.0490
 1110YOPC   C4B15478   7.978   6.841   7.874  0.1362 -0.3733  0.1364
 1111YOPC   NC315479   5.768   7.170   5.952  0.2426 -0.0935 -0.0194
 1111YOPC   PO415480   5.777   6.737   6.050 -0.4093 -0.0404  0.0946
 1111YOPC   GL115481   5.796   6.623   6.396 -0.1496  0.2135 -0.0261
 1111YOPC   GL215482   5.436   6.487   6.564 -0.1561 -0.0125  0.2544
 1111YOPC   C1A15483   6.017   6.728   6.783  0.0007 -0.0934 -0.1188
 1111YOPC   D2A15484   6.208   6.968   7.123 -0.0069 -0.0893 -0.1733
 1111YOPC   C3A15485   6.179   7.254   7.431 -0.2300  0.3421  0.1422
 1111YOPC   C4A15486   6.131   7.412   7.802 -0.5398 -0.1409  0.0194
 1111YOPC   C1B15487   5.552   6.615   6.910 -0.0674 -0.0435 -0.2621
 1111YOPC   C2B15488   5.643   6.521   7.295 -0.2328 -0.0773 -0.0029
 1111YOPC   D3B15489   5.565   6.688   7.706  0.2611  0.2954  0.2224
 1111YOPC   C4B15490   5.391   6.805   8.020 -0.0386 -0.0499  0.0854
 1112YOPC   NC315491   2.835   9.410   6.079  0.1875 -0.2077  0.4504
 1112YOPC   PO415492   3.158   9.582   6.210 -0.1052  0.3443 -0.1246
 1112YOPC   GL115493   2.766   9.602   6.499  0.1450 -0.0479  0.0071
 1112YOPC   GL215494   2.701   9.265   6.763  0.0442 -0.2061  0.0482
 1112YOPC   C1A15495   2.700   9.717   6.944 -0.0876 -0.1703  0.1901
 1112YOPC   D2A15496   2.832   9.974   7.273  0.2287 -0.0597  0.0454
 1112YOPC   C3A15497   2.952   9.843   7.652  0.0100  0.2580  0.0001
 1112YOPC   C4A15498   2.895   9.663   8.077  0.1727  0.0880 -0.1787
 1112YOPC   C1B15499   2.311   9.459   6.807 -0.1451 -0.0278  0.2248
 1112YOPC   C2B15500   2.123   9.658   7.211  0.0310  0.1636 -0.3126
 1112YOPC   D3B15501   2.108   9.480   7.586 -0.0349 -0.0348  0.0555
 1112YOPC   C4B15502   1.971   9.477   8.007 -0.0937  0.0904 -0.1464
 1113YOPC   NC315503   2.739  12.467   5.948  0.2830  0.0865 -0.1919
 1113YOPC   PO415504   2.700  12.944   5.992  0.0264  0.0393  0.0603
 1113YOPC   GL115505   2.715  13.171   6.345 -0.0894  0.0477 -0.0901
 1113YOPC   GL215506   2.420  13.234   6.366  0.0066  0.1317  0.0775
 1113YOPC   C1A15507   2.988  13.289   6.626  0.1705 -0.0572  0.1919
 1113YOPC   D2A15508   3.204  13.243   7.018 -0.0162 -0.0663  0.2739
 1113YOPC   C3A15509   3.061  13.138   7.417 -0.1874  0.1499  0.1383
 1113YOPC   C4A15510   2.811  13.031   7.784 -0.0276  0.0760 -0.0474
 1113YOPC   C1B15511   2.217  12.959   6.661  0.4268  0.0697  0.2251
 1113YOPC   C2B15512   2.007  12.824   7.082 -0.0609 -0.0119  0.2533
 1113YOPC   D3B15513   1.921  12.994   7.514  0.1348 -0.3239 -0.1663
 1113YOPC   C4B15514   1.853  13.049   7.835 -0.3439 -0.2241 -0.1369
 1114YOPC   NC315515  10.779   1.627   5.588 -0.0067  0.0035  0.2894
 1114YOPC   PO415516  11.072   1.806   5.748  0.3872 -0.0398  0.0501
 1114YOPC   GL115517  10.995   1.479   6.020 -0.0833 -0.3730  0.0771
 1114YOPC   GL215518  10.662   1.266   6.072 -0.3184  0.1762  0.3228
 1114YOPC   C1A15519  10.941   1.309   6.481  0.2036  0.0030 -0.0517
 1114YOPC   D2A15520  10.929   1.525   6.898  0.1438  0.0973 -0.0051
 1114YOPC   C3A15521  10.951   1.251   7.277 -0.1065 -0.1105 -0.1266
 1114YOPC   C4A15522  10.993   1.230   7.731  0.2161  0.1544 -0.2593
 1114YOPC   C1B15523  10.624   1.642   6.316 -0.1121  0.1382 -0.0817
 1114YOPC   C2B15524  10.153   1.888   6.337 -0.2144  0.1544 -0.1687
 1114YOPC   D3B15525   9.927   1.487   6.588  0.2633  0.1970  0.1959
 1114YOPC   C4B15526   9.587   1.353   6.887  0.0202 -0.1725  0.0227
 1115YOPC   NC315527  13.735   1.797   5.803 -0.0850 -0.1314  0.0125
 1115YOPC   PO415528  13.789   2.258   5.865  0.1698  0.0797 -0.2451
 1115YOPC   GL115529  13.835   2.233   6.340  0.1658 -0.3065 -0.0030
 1115YOPC   GL215530  13.511   2.350   6.300  0.2004 -0.3784  0.0494
 1115YOPC   C1A15531  13.910   2.217   6.757  0.2225  0.1412  0.0129
 1115YOPC   D2A15532  14.030   2.084   7.148  0.1160 -0.0612  0.0233
 1115YOPC   C3A15533  13.857   2.034   7.484 -0.1668  0.0929  0.1836
 1115YOPC   C4A15534  13.802   2.251   7.888 -0.3143  0.0549 -0.3967
 1115YOPC   C1B15535  13.139   2.190   6.529  0.1369  0.0729  0.2252
 1115YOPC   C2B15536  12.953   2.073   6.907  0.0088 -0.1248 -0.0591
 1115YOPC   D3B15537  12.830   1.763   7.163  0.2655  0.0051 -0.3870
 1115YOPC   C4B15538  12.684   1.458   7.500 -0.0478  0.0160  0.2653
 1116YOPC   NC315539   2.094  12.141   5.521  0.4163 -0.2313  0.1708
 1116YOPC   PO415540   1.607  11.950   5.459 -0.0600  0.0516  0.1218
 1116YOPC   GL115541   1.487  11.975   5.910 -0.1413  0.0956 -0.1202
 1116YOPC   GL215542   1.733  12.123   6.062 -0.1380 -0.2580  0.2189
 1116YOPC   C1A15543   1.436  11.838   6.381  0.0176 -0.1835 -0.1587
 1116YOPC   D2A15544   1.370  11.924   6.785  0.1304 -0.0370 -0.1944
 1116YOPC   C3A15545   1.481  11.976   7.192 -0.1800 -0.2242  0.3740
 1116YOPC   C4A15546   1.531  11.698   7.519 -0.0174  0.2195 -0.0267
 1116YOPC   C1B15547   1.904  11.903   6.410  0.2716 -0.2780 -0.1533
 1116YOPC   C2B15548   2.198  11.601   6.494 -0.0699  0.0646  0.1637
 1116YOPC   D3B15549   2.168  11.443   6.990  0.0953  0.1101  0.1269
 1116YOPC   C4B15550   2.462  11.230   7.309 -0.2116  0.2350  0.0120
 1117YOPC   NC315551  13.961  15.580   6.149  0.1309 -0.1632 -0.0056
 1117YOPC   PO415552  13.668  15.792   5.935 -0.2789 -0.2882  0.0203
 1117YOPC   GL115553  13.579  15.732   6.406 -0.2579 -0.1065  0.1005
 1117YOPC   GL215554  13.784  16.022   6.430  0.2570  0.0954  0.1035
 1117YOPC   C1A15555  13.349  15.623   6.742  0.0174  0.3492 -0.0929
 1117YOPC   D2A15556  13.436  15.722   7.214 -0.1735 -0.0959  0.0598
 1117YOPC   C3A15557  13.199  16.000   7.455 -0.1000  0.2040 -0.1406
 1117YOPC   C4A15558  12.835  16.088   7.579 -0.0988 -0.0568 -0.2390
 1117YOPC   C1B15559  13.777  16.039   6.863  0.2721  0.3858  0.1421
 1117YOPC   C2B15560  13.747  16.133   7.279 -0.5010  0.0415  0.0585
 1117YOPC   D3B15561  13.682  15.998   7.723  0.1833  0.1060  0.1759
 1117YOPC   C4B15562  13.775  15.695   7.984 -0.1554  0.0546 -0.2876
 1118YOPC   NC315563  15.077   5.843   5.600  0.1642 -0.1520 -0.3758
 1118YOPC   PO415564  15.082   5.358   5.805 -0.1622  0.0469 -0.1667
 1118YOPC   GL115565  14.963   5.256   6.287  0.1378  0.0609 -0.1093
 1118YOPC   GL215566  14.657   5.184   6.344 -0.1161 -0.1437  0.0182
 1118YOPC   C1A15567  15.196   5.538   6.495 -0.1488  0.3553  0.2320
 1118YOPC   D2A15568  15.237   5.740   6.939  0.3398  0.0162  0.2057
 1118YOPC   C3A15569  15.186   6.191   6.972 -0.0483  0.0070  0.3113
 1118YOPC   C4A15570  15.113   6.459   6.615  0.1929  0.2062 -0.0021
 1118YOPC   C1B15571  14.807   5.325   6.726  0.1398 -0.0597  0.0411
 1118YOPC   C2B15572  14.980   5.328   7.138 -0.2499  0.1112 -0.0555
 1118YOPC   D3B15573  15.172   5.351   7.452 -0.0060 -0.2670 -0.0339
 1118YOPC   C4B15574  15.551   5.071   7.531 -0.0276 -0.2817  0.0887
 1119YOPC   NC315575   2.251  15.507   5.756  0.0096  0.0059  0.1305
 1119YOPC   PO415576   1.959  15.692   6.061 -0.1882 -0.1912  0.0830
 1119YOPC   GL115577   2.081  16.026   6.220  0.2296 -0.0566  0.0040
 1119YOPC   GL215578   2.222  15.963   6.473 -0.2171  0.0324 -0.0200
 1119YOPC   C1A15579   1.939  16.413   6.167 -0.0175 -0.1358  0.3131
 1119YOPC   D2A15580   1.786  16.731   6.495  0.0087 -0.2177  0.0814
 1119YOPC   C3A15581   1.486  16.664   6.708 -0.2121  0.1268  0.0629
 1119YOPC   C4A15582   1.427  16.921   7.003  0.1434  0.0952 -0.2465
 1119YOPC   C1B15583   2.174  16.006   6.865  0.0268 -0.0686  0.1412
 1119YOPC   C2B15584   2.243  16.275   7.214  0.0688 -0.0182 -0.1453
 1119YOPC   D3B15585   2.209  16.377   7.713  0.2137  0.1121  0.0760
 1119YOPC   C4B15586   2.293  16.393   8.266  0.1352 -0.2142  0.4403
 1120YOPC   NC315587   4.597   6.839   6.288 -0.0937  0.2595 -0.0295
 1120YOPC   PO415588   4.393   6.548   6.393  0.0928  0.0976  0.3516
 1120YOPC   GL115589   4.264   6.511   6.694 -0.1168  0.0016  0.1156
 1120YOPC   GL215590   4.181   6.234   6.693  0.0028 -0.1289  0.0495
 1120YOPC   C1A15591   4.288   6.570   7.118 -0.3717 -0.2543  0.3073
 1120YOPC   D2A15592   4.408   6.833   7.427 -0.3286 -0.0484  0.1531
 1120YOPC   C3A15593   4.468   6.760   7.779  0.3813  0.3197  0.1934
 1120YOPC   C4A15594   4.503   6.753   8.302 -0.1751 -0.1370  0.0589
 1120YOPC   C1B15595   4.039   6.115   7.107 -0.1086 -0.1105  0.0679
 1120YOPC   C2B15596   4.084   5.914   7.494  0.4526 -0.1373  0.0448
 1120YOPC   D3B15597   3.834   5.766   7.675  0.0038 -0.0159 -0.2632
 1120YOPC   C4B15598   3.645   5.688   8.150  0.2794  0.3765 -0.2523
 1121YOPC   NC315599   1.242  16.171   5.931  0.1716 -0.0858 -0.2188
 1121YOPC   PO415600   1.487  15.876   6.056 -0.2029 -0.0730 -0.1769
 1121YOPC   GL115601   1.565  16.110   6.333 -0.0512 -0.2677  0.1585
 1121YOPC   GL215602   1.335  16.310   6.431  0.3180  0.1983 -0.0288
 1121YOPC   C1A15603   1.764  16.148   6.674 -0.1583 -0.0481  0.0908
 1121YOPC   D2A15604   1.737  15.963   7.095 -0.2334 -0.1626 -0.3567
 1121YOPC   C3A15605   1.905  15.850   7.437 -0.1731 -0.0643  0.0285
 1121YOPC   C4A15606   1.992  15.501   7.686  0.2531  0.3296 -0.2830
 1121YOPC   C1B15607   1.142  16.319   6.778  0.0979 -0.3649 -0.0010
 1121YOPC   C2B15608   1.367  16.445   7.157 -0.1051 -0.0660 -0.1821
 1121YOPC   D3B15609   1.353  16.683   7.465  0.1403 -0.1105  0.1117
 1121YOPC   C4B15610   1.246  16.855   7.847  0.1756  0.1015  0.4253
 1122YOPC   NC315611  13.369  12.445   5.774 -0.0908  0.2492  0.0783
 1122YOPC   PO415612  13.587  12.221   6.004  0.1113 -0.1806 -0.1339
 1122YOPC   GL115613  13.667  12.173   6.425  0.2117  0.2479  0.2842
 1122YOPC   GL215614  13.296  12.046   6.414 -0.2184 -0.1024  0.1585
 1122YOPC   C1A15615  13.562  12.111   6.871  0.1268  0.1257 -0.1106
 1122YOPC   D2A15616  13.243  12.209   7.262 -0.1324  0.3151  0.1291
 1122YOPC   C3A15617  13.348  12.268   7.767  0.1011 -0.1353 -0.1467
 1122YOPC   C4A15618  13.265  12.398   8.155  0.4838  0.2251 -0.1124
 1122YOPC   C1B15619  13.168  12.344   6.659  0.1479  0.0453 -0.1032
 1122YOPC   C2B15620  13.456  12.627   6.815  0.0802 -0.1381  0.3725
 1122YOPC   D3B15621  13.533  12.620   7.244 -0.1631  0.2835  0.0700
 1122YOPC   C4B15622  13.672  12.667   7.652  0.2639  0.2387 -0.1749
 1123YOPC   NC315623  17.850   3.283   5.730 -0.2649 -0.1115 -0.0976
 1123YOPC   PO415624  18.097   3.721   5.868  0.0470 -0.0967 -0.0649
 1123YOPC   GL115625  18.110   3.895   6.305 -0.0104 -0.1493 -0.0651
 1123YOPC   GL215626  17.904   4.186   6.274  0.1837  0.1122  0.0586
 1123YOPC   C1A15627  18.100   3.760   6.739 -0.0712 -0.2290  0.1520
 1123YOPC   D2A15628  17.752   3.484   7.040 -0.0465 -0.1187 -0.1519
 1123YOPC   C3A15629  17.834   3.493   7.599 -0.2704 -0.1086 -0.0015
 1123YOPC   C4A15630  17.858   3.330   7.899  0.2712 -0.1985 -0.0847
 1123YOPC   C1B15631  17.979   4.349   6.719  0.1044 -0.3086  0.0927
 1123YOPC   C2B15632  18.166   4.397   7.054  0.0942 -0.3022 -0.2199
 1123YOPC   D3B15633  18.238   4.234   7.502 -0.0727  0.0495 -0.0808
 1123YOPC   C4B15634  17.987   4.379   7.864  0.0231 -0.2176 -0.3085
 1124YOPC   NC315635   7.975  12.019   5.729 -0.1396  0.0205 -0.2035
 1124YOPC   PO415636   8.186  11.795   5.993 -0.1007 -0.2011  0.0744
 1124YOPC   GL115637   8.186  11.891   6.398  0.1092 -0.1872  0.2707
 1124YOPC   GL215638   7.891  12.039   6.288 -0.2716  0.1309 -0.2115
 1124YOPC   C1A15639   8.006  12.106   6.773  0.0421  0.2210 -0.1284
 1124YOPC   D2A15640   7.746  12.232   7.074  0.3161  0.2344  0.1341
 1124YOPC   C3A15641   7.950  12.439   7.374  0.1956  0.4260  0.2854
 1124YOPC   C4A15642   8.013  12.806   7.597  0.1782 -0.1373 -0.0057
 1124YOPC   C1B15643   7.453  11.944   6.600  0.1443 -0.0211 -0.2409
 1124YOPC   C2B15644   7.223  11.876   7.052  0.1094  0.0425 -0.0929
 1124YOPC   D3B15645   7.294  11.462   7.272 -0.0513 -0.0224  0.0425
 1124YOPC   C4B15646   7.485  11.020   7.312  0.0599 -0.0554 -0.2530
 1125YOPC   NC315647  10.402  14.117   5.640  0.0704  0.1809  0.1037
 1125YOPC   PO415648  10.587  13.897   5.878 -0.2597  0.1291 -0.2156
 1125YOPC   GL115649  10.310  13.757   6.306 -0.2202  0.0504 -0.0131
 1125YOPC   GL215650  10.052  13.639   6.323  0.1760  0.4334  0.1344
 1125YOPC   C1A15651  10.459  13.584   6.766  0.2276 -0.2420 -0.1907
 1125YOPC   D2A15652  10.552  13.832   7.218  0.0274  0.1147 -0.1319
 1125YOPC   C3A15653  10.568  13.661   7.580  0.1579  0.1380 -0.1632
 1125YOPC   C4A15654  10.551  13.423   7.971 -0.2522 -0.4811 -0.1020
 1125YOPC   C1B15655   9.984  13.693   6.790  0.1952 -0.1772 -0.0419
 1125YOPC   C2B15656   9.931  13.700   7.269 -0.2279  0.2293  0.0812
 1125YOPC   D3B15657  10.073  13.449   7.653 -0.0150  0.0241 -0.0442
 1125YOPC   C4B15658   9.925  13.325   8.089  0.0133  0.0740 -0.0357
 1126YOPC   NC315659   4.380   3.519   6.069  0.1587 -0.0315  0.0453
 1126YOPC   PO415660   3.998   3.369   5.833 -0.0708  0.0791  0.2689
 1126YOPC   GL115661   3.946   3.285   6.234 -0.1104 -0.3940 -0.1842
 1126YOPC   GL215662   4.119   3.575   6.429 -0.0194  0.2144 -0.1279
 1126YOPC   C1A15663   3.639   3.360   6.562 -0.2356  0.1036  0.1258
 1126YOPC   D2A15664   3.538   3.568   6.882 -0.0270  0.1190  0.0835
 1126YOPC   C3A15665   3.878   3.861   6.998  0.0262  0.1117 -0.2035
 1126YOPC   C4A15666   4.277   3.904   6.880 -0.2601  0.2153  0.1554
 1126YOPC   C1B15667   4.143   3.424   6.779  0.1220  0.2963  0.2254
 1126YOPC   C2B15668   4.108   3.490   7.239  0.0411  0.0470  0.1117
 1126YOPC   D3B15669   3.699   3.497   7.382 -0.0302  0.0927  0.0975
 1126YOPC   C4B15670   3.406   3.339   7.629 -0.1054  0.1722 -0.1155
 1127YOPC   NC315671  15.406   1.742   5.612 -0.0925  0.3523  0.2359
 1127YOPC   PO415672  15.911   1.708   5.635 -0.0619 -0.0965 -0.0373
 1127YOPC   GL115673  15.645   1.660   6.029  0.0330  0.0947 -0.1413
 1127YOPC   GL215674  15.774   1.449   6.190  0.3306  0.2335 -0.0394
 1127YOPC   C1A15675  15.409   1.739   6.408  0.1125  0.1393 -0.1749
 1127YOPC   D2A15676  15.210   1.574   6.762 -0.0645 -0.2807  0.1662
 1127YOPC   C3A15677  15.273   1.241   6.993 -0.2817  0.0403 -0.0053
 1127YOPC   C4A15678  15.253   0.964   7.401 -0.3270  0.1512 -0.0792
 1127YOPC   C1B15679  15.963   1.659   6.527  0.1110  0.1814 -0.1555
 1127YOPC   C2B15680  15.643   1.701   6.901  0.0130  0.0276 -0.2870
 1127YOPC   D3B15681  15.648   1.789   7.331  0.4401  0.2005  0.3050
 1127YOPC   C4B15682  15.621   1.863   7.702  0.0230 -0.0716 -0.0236
 1128YOPC   NC315683  17.166  17.116   6.030  0.2086  0.0396 -0.0440
 1128YOPC   PO415684  16.876  16.907   5.957  0.1359  0.0548 -0.0032
 1128YOPC   GL115685  16.760  17.312   6.262  0.1315  0.1137 -0.0162
 1128YOPC   GL215686  16.743  17.686   6.376  0.1016 -0.0495 -0.2477
 1128YOPC   C1A15687  16.971  17.374   6.659  0.0439 -0.2878  0.0091
 1128YOPC   D2A15688  16.958  17.458   6.984  0.1266  0.1344  0.0513
 1128YOPC   C3A15689  16.999  17.236   7.355 -0.2454  0.1788  0.0130
 1128YOPC   C4A15690  16.638  17.076   7.728  0.0964 -0.5157 -0.2027
 1128YOPC   C1B15691  16.761  17.929   6.726  0.1076 -0.0236  0.0344
 1128YOPC   C2B15692  16.741  18.156   7.133 -0.0942 -0.2662  0.3201
 1128YOPC   D3B15693  16.378  18.174   7.345  0.1432  0.1256 -0.1996
 1128YOPC   C4B15694  16.068  18.163   7.620  0.1530  0.3919 -0.2175
 1129YOPC   NC315695   0.362  13.853   5.815  0.0436 -0.0949 -0.3094
 1129YOPC   PO415696  -0.030  13.714   5.807 -0.0152  0.0277  0.0533
 1129YOPC   GL115697  -0.052  13.855   6.142 -0.4280 -0.0822  0.3440
 1129YOPC   GL215698   0.156  14.120   6.229 -0.0359 -0.1302 -0.0763
 1129YOPC   C1A15699   0.191  13.651   6.526  0.1104 -0.0691 -0.1292
 1129YOPC   D2A15700   0.261  13.679   6.906 -0.0759 -0.0421 -0.1476
 1129YOPC   C3A15701   0.016  13.646   7.288  0.3159  0.0023  0.2792
 1129YOPC   C4A15702  -0.315  13.822   7.511  0.0306  0.1090  0.1557
 1129YOPC   C1B15703   0.008  14.082   6.652 -0.3025  0.1689  0.0740
 1129YOPC   C2B15704  -0.027  14.156   7.104  0.1636  0.0097 -0.1055
 1129YOPC   D3B15705  -0.111  14.283   7.485 -0.0970 -0.2811  0.2596
 1129YOPC   C4B15706   0.037  14.282   7.878  0.3728  0.0200  0.0484
 1130YOPC   NC315707  10.316  10.411   6.188 -0.0644 -0.0588 -0.0176
 1130YOPC   PO415708  10.339   9.898   6.266 -0.0875  0.1499 -0.3269
 1130YOPC   GL115709  10.304   9.637   6.606 -0.2809 -0.4868  0.0390
 1130YOPC   GL215710   9.994   9.441   6.705  0.1801  0.0872 -0.1597
 1130YOPC   C1A15711  10.378   9.445   6.962 -0.0779 -0.1164 -0.2239
 1130YOPC   D2A15712  10.105   9.235   7.164  0.0558  0.0518 -0.0534
 1130YOPC   C3A15713  10.066   9.137   7.622 -0.2482  0.0009 -0.2004
 1130YOPC   C4A15714   9.962   9.182   7.993  0.1141 -0.3870  0.2808
 1130YOPC   C1B15715  10.015   9.772   6.990 -0.0393  0.0321  0.2390
 1130YOPC   C2B15716  10.066   9.790   7.346 -0.2938  0.3700  0.1646
 1130YOPC   D3B15717  10.134   9.634   7.692 -0.0975  0.2022  0.0562
 1130YOPC   C4B15718  10.436   9.582   7.942 -0.0591 -0.1933  0.0968
 1131YOPC   NC315719   9.149   9.789   5.819 -0.0851  0.3160  0.0001
 1131YOPC   PO415720   9.486   9.884   6.215  0.0716 -0.1528 -0.0981
 1131YOPC   GL115721   9.522  10.064   6.541 -0.4651  0.1992 -0.0968
 1131YOPC   GL215722   9.848  10.031   6.557 -0.1415 -0.2693 -0.0096
 1131YOPC   C1A15723   9.462  10.007   6.934 -0.2449 -0.0356 -0.0249
 1131YOPC   D2A15724   9.617   9.982   7.397  0.1750  0.0346 -0.0933
 1131YOPC   C3A15725   9.688   9.762   7.831 -0.0962 -0.2880  0.2429
 1131YOPC   C4A15726   9.695   9.651   8.286  0.3857  0.0162  0.2075
 1131YOPC   C1B15727   9.889  10.260   6.911 -0.0549 -0.2653 -0.1714
 1131YOPC   C2B15728  10.015  10.382   7.345  0.0680 -0.0088 -0.0357
 1131YOPC   D3B15729   9.966  10.140   7.648  0.1047 -0.0066 -0.1850
 1131YOPC   C4B15730  10.131   9.985   8.075  0.0522  0.1557 -0.1264
 1132YOPC   NC315731   5.266   7.953   5.830  0.1265  0.5159 -0.0822
 1132YOPC   PO415732   5.287   8.332   5.823 -0.0708 -0.1158 -0.0447
 1132YOPC   GL115733   5.420   8.391   6.134 -0.1854  0.0108  0.1371
 1132YOPC   GL215734   5.133   8.607   6.256  0.2863 -0.0465  0.1601
 1132YOPC   C1A15735   5.642   8.102   6.444 -0.1096  0.0917 -0.0490
 1132YOPC   D2A15736   5.674   7.735   6.663  0.1876  0.0177 -0.1030
 1132YOPC   C3A15737   5.722   7.734   7.048 -0.0498 -0.2041 -0.0813
 1132YOPC   C4A15738   5.740   7.585   7.446 -0.1583 -0.0395  0.0169
 1132YOPC   C1B15739   5.342   8.487   6.627  0.0578 -0.0300  0.0908
 1132YOPC   C2B15740   5.444   8.328   7.017  0.1972  0.0471  0.1006
 1132YOPC   D3B15741   5.345   8.405   7.401  0.1852  0.1174  0.1481
 1132YOPC   C4B15742   5.267   8.358   7.860 -0.2768  0.0540  0.0973
 1133YOPC   NC315743  10.927   3.441   5.838 -0.0364 -0.1171 -0.0698
 1133YOPC   PO415744  11.357   3.664   5.746 -0.1910 -0.2447  0.2345
 1133YOPC   GL115745  11.244   3.586   6.185 -0.0215 -0.1896 -0.0206
 1133YOPC   GL215746  11.174   3.895   6.270  0.0845 -0.1683 -0.3073
 1133YOPC   C1A15747  11.203   3.443   6.617 -0.1631 -0.0035  0.1398
 1133YOPC   D2A15748  11.171   3.544   6.948 -0.2080 -0.0125  0.1634
 1133YOPC   C3A15749  11.344   3.499   7.268  0.0497  0.1419 -0.3065
 1133YOPC   C4A15750  11.416   3.333   7.605 -0.2601  0.0086 -0.2027
 1133YOPC   C1B15751  10.882   3.879   6.547 -0.3357  0.2966  0.0765
 1133YOPC   C2B15752  10.637   3.866   6.802 -0.1047 -0.0637 -0.0647
 1133YOPC   D3B15753  10.874   3.894   7.237 -0.1821  0.0734 -0.4606
 1133YOPC   C4B15754  10.752   3.986   7.700 -0.1054  0.2625 -0.0466
 1134YOPC   NC315755   0.410   1.299   5.556 -0.1624  0.1884  0.1740
 1134YOPC   PO415756   0.062   0.951   5.663  0.0284  0.2017  0.1623
 1134YOPC   GL115757   0.260   1.009   6.123  0.0313  0.1150  0.0604
 1134YOPC   GL215758   0.311   0.702   6.214  0.2375 -0.1418  0.0907
 1134YOPC   C1A15759   0.213   1.482   6.391  0.3399 -0.3012 -0.1022
 1134YOPC   D2A15760   0.313   1.542   6.697 -0.1355  0.0971  0.1303
 1134YOPC   C3A15761   0.694   1.344   6.788 -0.1293 -0.1215  0.1295
 1134YOPC   C4A15762   0.884   1.238   7.051 -0.1342 -0.1482 -0.0345
 1134YOPC   C1B15763   0.474   0.933   6.608  0.0387  0.0021 -0.0015
 1134YOPC   C2B15764   0.565   0.870   6.994 -0.1540 -0.2753  0.1109
 1134YOPC   D3B15765   0.598   0.649   7.404  0.2637  0.0261 -0.2566
 1134YOPC   C4B15766   0.823   0.855   7.786  0.4001 -0.0613  0.0853
 1135YOPC   NC315767   9.482   8.880   6.002 -0.1023 -0.0125  0.1025
 1135YOPC   PO415768   9.164   8.978   6.189 -0.0448 -0.1794 -0.0904
 1135YOPC   GL115769   9.158   9.113   6.624 -0.2636  0.0815  0.2026
 1135YOPC   GL215770   8.922   9.326   6.691  0.0096  0.0418 -0.1054
 1135YOPC   C1A15771   9.220   8.919   7.046  0.1666 -0.2105  0.0568
 1135YOPC   D2A15772   9.332   8.846   7.442 -0.2126  0.0845 -0.2331
 1135YOPC   C3A15773   9.646   8.816   7.779 -0.2589  0.1006  0.0492
 1135YOPC   C4A15774   9.874   8.601   8.083 -0.0533  0.1984 -0.1558
 1135YOPC   C1B15775   8.828   9.215   7.103  0.1184  0.1904  0.0303
 1135YOPC   C2B15776   8.948   9.231   7.581 -0.2703  0.2588  0.2050
 1135YOPC   D3B15777   8.578   9.209   7.772  0.0156  0.0988 -0.0893
 1135YOPC   C4B15778   8.444   9.276   8.111 -0.2010 -0.0627 -0.1950
 1136YOPC   NC315779  17.516   7.523   5.743 -0.2421 -0.1321  0.4581
 1136YOPC   PO415780  17.294   7.859   5.591  0.1056  0.1335  0.0959
 1136YOPC   GL115781  16.991   8.044   5.941  0.0875 -0.2019 -0.1157
 1136YOPC   GL215782  16.793   7.871   6.186  0.0077 -0.0929 -0.0140
 1136YOPC   C1A15783  17.168   8.137   6.375 -0.2341  0.0620  0.1313
 1136YOPC   D2A15784  17.244   8.599   6.577  0.1345 -0.1823  0.0173
 1136YOPC   C3A15785  17.014   8.901   6.809  0.2719 -0.1165  0.0437
 1136YOPC   C4A15786  17.021   9.225   7.046 -0.0602 -0.1892  0.2566
 1136YOPC   C1B15787  16.682   7.806   6.664 -0.1046 -0.0785 -0.0959
 1136YOPC   C2B15788  16.658   7.915   7.112  0.0267  0.0143  0.1681
 1136YOPC   D3B15789  16.427   7.556   7.373 -0.1071  0.0801 -0.1697
 1136YOPC   C4B15790  16.480   7.269   7.667 -0.0561  0.0802 -0.1791
 1137YOPC   NC315791   6.563   5.811   5.917 -0.2706  0.3194  0.1494
 1137YOPC   PO415792   6.186   5.641   6.073  0.1337  0.0606  0.2129
 1137YOPC   GL115793   6.453   5.644   6.425  0.0003  0.4617  0.3065
 1137YOPC   GL215794   6.725   5.773   6.406  0.4486  0.0111 -0.0415
 1137YOPC   C1A15795   6.496   5.499   6.878 -0.0880 -0.0424 -0.1076
 1137YOPC   D2A15796   6.646   5.484   7.353 -0.0719  0.0990  0.1213
 1137YOPC   C3A15797   6.506   5.442   7.794  0.0657 -0.1138  0.0831
 1137YOPC   C4A15798   6.282   5.213   8.113  0.2546  0.0777  0.2501
 1137YOPC   C1B15799   6.868   5.830   6.898 -0.0140  0.0014  0.0129
 1137YOPC   C2B15800   6.905   5.899   7.267  0.0447  0.3899 -0.1478
 1137YOPC   D3B15801   7.024   5.706   7.642  0.1945  0.2647 -0.0200
 1137YOPC   C4B15802   7.251   5.352   7.946 -0.0362  0.0913  0.0829
 1138YOPC   NC315803   6.486   0.153   5.836 -0.1955 -0.1842 -0.0856
 1138YOPC   PO415804   6.604   0.566   5.974  0.1766  0.2306 -0.3524
 1138YOPC   GL115805   6.870   0.643   6.386  0.1590  0.1684 -0.0252
 1138YOPC   GL215806   7.165   0.556   6.499  0.2736  0.0760 -0.1583
 1138YOPC   C1A15807   6.951   0.789   6.904  0.0030  0.0960  0.2569
 1138YOPC   D2A15808   6.957   0.870   7.335 -0.3217 -0.2509 -0.1638
 1138YOPC   C3A15809   6.853   0.774   7.713 -0.1652  0.3124 -0.0591
 1138YOPC   C4A15810   7.001   0.620   8.107 -0.1165 -0.2324  0.0514
 1138YOPC   C1B15811   7.164   0.306   6.923 -0.0406  0.4066  0.1316
 1138YOPC   C2B15812   7.236   0.082   7.246  0.3637  0.0310  0.3499
 1138YOPC   D3B15813   7.626   0.229   7.537  0.0256  0.2558  0.1915
 1138YOPC   C4B15814   8.035   0.344   7.868 -0.0625  0.0743  0.2342
 1139YOPC   NC315815   7.806   7.768   5.416  0.1313 -0.1410 -0.0592
 1139YOPC   PO415816   8.167   7.748   5.680 -0.3759  0.0144  0.4236
 1139YOPC   GL115817   8.145   7.720   6.136 -0.0588  0.0204 -0.3083
 1139YOPC   GL215818   8.400   7.868   6.336  0.3536  0.0869 -0.1136
 1139YOPC   C1A15819   7.831   7.680   6.461  0.0049 -0.1975 -0.1739
 1139YOPC   D2A15820   7.751   7.666   6.876  0.1278  0.0577 -0.0515
 1139YOPC   C3A15821   7.831   7.302   7.036 -0.2271 -0.0296  0.1567
 1139YOPC   C4A15822   7.915   6.981   7.316 -0.0416  0.1089  0.0395
 1139YOPC   C1B15823   8.134   7.976   6.742 -0.0638  0.1731  0.0930
 1139YOPC   C2B15824   7.989   8.023   7.163 -0.1686 -0.2468  0.1913
 1139YOPC   D3B15825   8.004   7.648   7.459 -0.0394  0.0030  0.1746
 1139YOPC   C4B15826   7.903   7.316   7.648 -0.0707  0.1044 -0.2664
 1140YOPC   NC315827   7.784  15.605   5.304 -0.0829 -0.1861 -0.1363
 1140YOPC   PO415828   8.015  15.426   5.738 -0.1217  0.0413 -0.1661
 1140YOPC   GL115829   7.725  15.532   6.009  0.1844  0.2397  0.1332
 1140YOPC   GL215830   7.377  15.491   6.056  0.2646  0.3230 -0.0107
 1140YOPC   C1A15831   7.667  15.595   6.432 -0.2758  0.0268  0.0956
 1140YOPC   D2A15832   7.396  15.502   6.738 -0.0740 -0.2035 -0.0450
 1140YOPC   C3A15833   7.402  15.806   7.145  0.0098 -0.2154 -0.1650
 1140YOPC   C4A15834   7.508  15.966   7.581 -0.3327 -0.1423 -0.1801
 1140YOPC   C1B15835   7.289  15.814   6.318  0.2363 -0.1741 -0.0107
 1140YOPC   C2B15836   7.276  15.964   6.685 -0.0709  0.1619  0.0082
 1140YOPC   D3B15837   7.533  16.199   6.936  0.2495  0.0339  0.2236
 1140YOPC   C4B15838   7.819  16.238   7.329  0.2103  0.1814  0.1772
 1141YOPC   NC315839   2.764  17.032   6.217 -0.0140  0.1800  0.1747
 1141YOPC   PO415840   2.353  16.982   6.148 -0.1225 -0.1221 -0.2651
 1141YOPC   GL115841   2.373  17.126   6.506 -0.0096  0.1404  0.1439
 1141YOPC   GL215842   2.039  17.108   6.567  0.0573  0.2366 -0.1003
 1141YOPC   C1A15843   2.327  17.248   7.027 -0.2052  0.0916 -0.1574
 1141YOPC   D2A15844   2.218  17.326   7.510 -0.0882 -0.3122 -0.2019
 1141YOPC   C3A15845   2.512  17.338   7.847 -0.1237 -0.0928  0.1149
 1141YOPC   C4A15846   2.961  17.105   7.831 -0.0016 -0.0282  0.0628
 1141YOPC   C1B15847   2.008  16.940   6.927 -0.1563  0.1314 -0.3154
 1141YOPC   C2B15848   1.886  16.886   7.339  0.1386  0.0142 -0.0787
 1141YOPC   D3B15849   2.011  16.870   7.707 -0.0327 -0.1247  0.1220
 1141YOPC   C4B15850   1.890  16.700   8.036  0.0124  0.3135  0.1513
 1142YOPC   NC315851  12.870  10.684   5.696  0.1654  0.1888  0.1851
 1142YOPC   PO415852  12.450  10.665   5.700 -0.1134 -0.0235 -0.0631
 1142YOPC   GL115853  12.621  10.514   6.122  0.0254 -0.0339 -0.1511
 1142YOPC   GL215854  12.974  10.627   6.263 -0.4254 -0.1482 -0.0003
 1142YOPC   C1A15855  12.526  10.746   6.462  0.0041  0.3198 -0.0544
 1142YOPC   D2A15856  12.275  11.065   6.611  0.0995 -0.3105 -0.1291
 1142YOPC   C3A15857  12.471  11.094   6.978 -0.0751  0.1354 -0.1768
 1142YOPC   C4A15858  12.611  10.915   7.426 -0.1031 -0.0557  0.0881
 1142YOPC   C1B15859  12.974  10.449   6.663  0.1294  0.0292  0.2466
 1142YOPC   C2B15860  13.025  10.310   7.209  0.0903 -0.2306 -0.0076
 1142YOPC   D3B15861  12.949  10.559   7.589  0.1026  0.0262  0.0553
 1142YOPC   C4B15862  12.673  10.736   7.866  0.1573 -0.1598  0.1059
 1143ERGO   ROH15863   4.655   3.612   6.510  0.1452 -0.0319 -0.0278
 1143ERGO    R115864   4.713   3.529   6.774 -0.1407 -0.2970 -0.0445
 1143ERGO    R215865   4.733   3.706   6.986  0.3564 -0.4123  0.0152
 1143ERGO    R315866   4.546   3.544   7.097 -0.1626  0.0915 -0.0692
 1143ERGO    R415867   4.644   3.705   7.320  0.2348 -0.2157 -0.0141
 1143ERGO    R515868   4.635   3.489   7.312 -0.3852 -0.2038 -0.0481
 1143ERGO    C115869   4.417   3.552   7.619 -0.3233  0.3716 -0.1104
 1143ERGO    C215870   4.434   3.547   7.998 -0.2013  0.0028 -0.0921
 1144ERGO   ROH15871   8.586  11.702   6.726  0.0967  0.1419 -0.0317
 1144ERGO    R115872   8.374  11.776   6.898  0.0771  0.0672 -0.0238
 1144ERGO    R215873   8.310  11.634   7.126  0.1164  0.0270 -0.0385
 1144ERGO    R315874   8.338  11.877   7.246  0.0506  0.0229 -0.0137
 1144ERGO    R415875   8.143  11.733   7.412  0.1179 -0.0593 -0.0069
 1144ERGO    R515876   8.117  11.930   7.322  0.0422 -0.0577  0.0189
 1144ERGO    C115877   8.071  12.019   7.690  0.0570 -0.1136  0.0348
 1144ERGO    C215878   7.990  12.329   7.890 -0.3660 -0.0869 -0.0380
 1145ERGO   ROH15879  11.229   9.675   6.810 -0.0150  0.0657  0.1138
 1145ERGO    R115880  11.319   9.737   7.071  0.0821  0.0669  0.0803
 1145ERGO    R215881  11.155   9.723   7.293  0.1386  0.1613  0.1278
 1145ERGO    R315882  11.352   9.561   7.388  0.1028  0.0982  0.0961
 1145ERGO    R415883  11.166   9.590   7.612  0.0857  0.0649  0.0901
 1145ERGO    R515884  11.380   9.629   7.615  0.0940  0.0269  0.1199
 1145ERGO    C115885  11.358   9.362   7.887  0.0213 -0.0506  0.0383
 1145ERGO    C215886  11.537   9.246   8.169  0.2516  0.1550 -0.1819
 1146ERGO   ROH15887   9.281   8.529   6.524  0.0036 -0.1057 -0.1334
 1146ERGO    R115888   9.264   8.408   6.779 -0.2415  0.0599 -0.0664
 1146ERGO    R215889   9.487   8.316   6.915 -0.4232 -0.4329 -0.0755
 1146ERGO    R315890   9.392   8.477   7.113  0.0165 -0.0797 -0.1347
 1146ERGO    R415891   9.534   8.263   7.253 -0.1480 -0.1355 -0.0619
 1146ERGO    R515892   9.329   8.326   7.287 -0.0242  0.1981  0.0953
 1146ERGO    C115893   9.472   8.383   7.636  0.4250  0.3693 -0.1096
 1146ERGO    C215894   9.452   8.370   7.904 -0.0992 -0.2717 -0.0893
 1147ERGO   ROH15895  14.963  13.348   6.420  0.0299 -0.0502  0.0923
 1147ERGO    R115896  14.941  13.255   6.687 -0.0889  0.0146  0.1046
 1147ERGO    R215897  15.040  13.397   6.902 -0.0977  0.0170  0.0998
 1147ERGO    R315898  14.786  13.371   6.995 -0.1354  0.1398  0.0369
 1147ERGO    R415899  14.937  13.479   7.222 -0.0495 -0.2533  0.1880
 1147ERGO    R515900  14.812  13.300   7.222 -0.2172 -0.1501 -0.0348
 1147ERGO    C115901  14.638  13.502   7.495 -0.0568 -0.2955  0.1802
 1147ERGO    C215902  14.457  13.593   7.722  0.0675  0.0807 -0.0310
 1148ERGO   ROH15903   9.435   9.523   6.653  0.4347  0.0233  0.0214
 1148ERGO    R115904   9.544   9.420   6.892  0.3058  0.2508  0.1819
 1148ERGO    R215905   9.596   9.578   7.113 -0.3021  0.3726  0.2492
 1148ERGO    R315906   9.442   9.394   7.240 -0.1324  0.0823  0.0483
 1148ERGO    R415907   9.627   9.491   7.446 -0.3298  0.1648  0.1995
 1148ERGO    R515908   9.593   9.283   7.390 -0.0512  0.1563  0.0268
 1148ERGO    C115909   9.501   9.267   7.759 -0.1867 -0.2287 -0.0181
 1148ERGO    C215910   9.427   9.205   8.104  0.1887  0.2062  0.0295
 1149ERGO   ROH15911   1.196  18.055   6.340 -0.1647 -0.0604  0.0334
 1149ERGO    R115912   1.222  18.211   6.575  0.0560 -0.0517  0.0054
 1149ERGO    R215913   1.019  18.235   6.762  0.1310  0.1713  0.0622
 1149ERGO    R315914   1.213  18.153   6.934  0.1034  0.0059  0.0161
 1149ERGO    R415915   1.010  18.276   7.105  0.2851  0.2575  0.0568
 1149ERGO    R515916   1.222  18.325   7.100  0.3371  0.0355 -0.0236
 1149ERGO    C115917   1.187  18.223   7.466  0.3490  0.1526  0.0104
 1149ERGO    C215918   1.246  18.106   7.733  0.0581 -0.1357  0.0660
 1150ERGO   ROH15919   5.690  11.414   6.768 -0.0600 -0.1278  0.0361
 1150ERGO    R115920   5.787  11.465   7.029  0.0077  0.0232 -0.0175
 1150ERGO    R215921   5.835  11.721   7.123 -0.0998  0.0847 -0.1321
 1150ERGO    R315922   5.670  11.643   7.324  0.0171  0.0682 -0.0401
 1150ERGO    R415923   5.846  11.842   7.447 -0.1308  0.3167 -0.2161
 1150ERGO    R515924   5.809  11.640   7.519  0.0697  0.3276 -0.0688
 1150ERGO    C115925   5.696  11.840   7.823 -0.0393  0.4365 -0.1786
 1150ERGO    C215926   5.544  12.052   8.117 -0.2071 -0.4108  0.3674
 1151ERGO   ROH15927   5.263  16.455   6.553  0.0268 -0.2064 -0.0419
 1151ERGO    R115928   5.406  16.421   6.795 -0.0404 -0.3237 -0.0184
 1151ERGO    R215929   5.379  16.593   7.009  0.1833 -0.2069 -0.0816
 1151ERGO    R315930   5.323  16.364   7.145 -0.1522 -0.0852 -0.0036
 1151ERGO    R415931   5.332  16.572   7.351  0.1279 -0.0187 -0.0765
 1151ERGO    R515932   5.445  16.385   7.350 -0.1339 -0.1831 -0.0029
 1151ERGO    C115933   5.253  16.345   7.677 -0.2194  0.2058 -0.0004
 1151ERGO    C215934   5.294  16.415   7.956 -0.0858 -0.1680  0.0897
 1152ERGO   ROH15935  17.644   1.565   6.250 -0.0937 -0.0231  0.0091
 1152ERGO    R115936  17.776   1.630   6.492 -0.1287  0.0716  0.0041
 1152ERGO    R215937  17.644   1.640   6.735 -0.1213 -0.0404  0.0151
 1152ERGO    R315938  17.839   1.467   6.811  0.0193  0.1093 -0.0051
 1152ERGO    R415939  17.778   1.621   7.053 -0.3304 -0.1639  0.0962
 1152ERGO    R515940  17.975   1.593   6.963 -0.2298  0.1350  0.2046
 1152ERGO    C115941  18.039   1.448   7.310 -0.3202 -0.0954  0.1244
 1152ERGO    C215942  18.211   1.413   7.676  0.0202  0.0757 -0.0606
 1153ERGO   ROH15943  11.723  14.655   6.802 -0.0937  0.0435  0.1457
 1153ERGO    R115944  11.606  14.467   6.979 -0.3437 -0.0457 -0.1076
 1153ERGO    R215945  11.651  14.472   7.252 -0.1325 -0.6191 -0.1212
 1153ERGO    R315946  11.380  14.478   7.264 -0.1233 -0.0912  0.0722
 1153ERGO    R415947  11.464  14.413   7.536 -0.0502 -0.7300 -0.0882
 1153ERGO    R515948  11.322  14.302   7.415 -0.3683 -0.2442 -0.1902
 1153ERGO    C115949  11.101  14.386   7.714  0.0065 -0.2992  0.1126
 1153ERGO    C215950  10.938  14.437   8.054 -0.3998 -0.0648  0.0096
 1154ERGO   ROH15951   8.224  13.463   6.504 -0.0040  0.1570  0.1680
 1154ERGO    R115952   8.100  13.490   6.757 -0.1562 -0.0689  0.1234
 1154ERGO    R215953   8.005  13.272   6.900  0.2068 -0.2643  0.1101
 1154ERGO    R315954   8.164  13.374   7.096 -0.0460  0.0683  0.1451
 1154ERGO    R415955   7.937  13.257   7.238  0.0319 -0.0948  0.0816
 1154ERGO    R515956   8.010  13.460   7.258 -0.2366 -0.0037 -0.0120
 1154ERGO    C115957   8.046  13.343   7.619 -0.3074  0.3161  0.0979
 1154ERGO    C215958   8.044  13.141   7.952  0.1914  0.1800 -0.3219
 1155ERGO   ROH15959  13.128   4.303   6.315  0.3131 -0.1169  0.1499
 1155ERGO    R115960  12.989   4.341   6.559  0.1318 -0.1395  0.0517
 1155ERGO    R215961  12.971   4.145   6.753  0.1158 -0.1054  0.0807
 1155ERGO    R315962  13.073   4.339   6.914 -0.0990 -0.0134  0.1096
 1155ERGO    R415963  12.966   4.138   7.098  0.2457 -0.2352  0.0814
 1155ERGO    R515964  12.919   4.350   7.097 -0.0566 -0.2942  0.1696
 1155ERGO    C115965  13.058   4.316   7.450  0.1196 -0.2244  0.1089
 1155ERGO    C215966  13.029   4.293   7.783  0.0640 -0.1791  0.1384
 1156ERGO   ROH15967   7.240   8.474   6.546  0.0714 -0.1268  0.1358
 1156ERGO    R115968   7.340   8.521   6.807  0.0619 -0.1451  0.1469
 1156ERGO    R215969   7.298   8.759   6.942  0.2249 -0.0611  0.0947
 1156ERGO    R315970   7.200   8.595   7.135  0.0461  0.0465  0.0915
 1156ERGO    R415971   7.305   8.826   7.281  0.1361 -0.0375  0.0891
 1156ERGO    R515972   7.354   8.617   7.317 -0.0266 -0.0437  0.1430
 1156ERGO    C115973   7.216   8.711   7.659 -0.0834  0.0774  0.0828
 1156ERGO    C215974   7.008   8.750   7.985 -0.0993 -0.0463  0.3617
 1157ERGO   ROH15975   0.969  16.633   6.360  0.1072  0.0410 -0.0060
 1157ERGO    R115976   0.970  16.793   6.594 -0.1237  0.1126 -0.0512
 1157ERGO    R215977   0.755  16.806   6.766 -0.1694 -0.1030 -0.0862
 1157ERGO    R315978   0.941  16.738   6.952 -0.1080  0.1772 -0.0406
 1157ERGO    R415979   0.708  16.827   7.108 -0.2689 -0.1471 -0.0968
 1157ERGO    R515980   0.912  16.901   7.126 -0.3778  0.1496 -0.0572
 1157ERGO    C115981   0.855  16.775   7.482 -0.2691  0.0904 -0.0602
 1157ERGO    C215982   0.663  16.521   7.828 -0.1187 -0.0403 -0.1557
 1158ERGO   ROH15983  17.969  17.856   6.438  0.1577  0.3446  0.0327
 1158ERGO    R115984  17.808  17.806   6.666  0.1725  0.1781  0.0094
 1158ERGO    R215985  17.914  17.716   6.905  0.2152  0.1796 -0.0043
 1158ERGO    R315986  17.786  17.933   7.006  0.0681  0.0715  0.0422
 1158ERGO    R415987  17.897  17.796   7.241  0.0705  0.0419  0.0215
 1158ERGO    R515988  17.689  17.855   7.211  0.0487 -0.0587 -0.0175
 1158ERGO    C115989  17.768  18.047   7.531 -0.1520 -0.1398  0.0802
 1158ERGO    C215990  17.738  18.244   7.899  0.1276  0.2154  0.1028
 1159ERGO   ROH15991   6.638   6.548   6.621 -0.0380 -0.0844  0.1078
 1159ERGO    R115992   6.539   6.560   6.886 -0.0600 -0.0663  0.0999
 1159ERGO    R215993   6.634   6.396   7.087 -0.1240 -0.1022  0.1074
 1159ERGO    R315994   6.676   6.631   7.215 -0.0686 -0.1170  0.1129
 1159ERGO    R415995   6.727   6.427   7.419 -0.1011 -0.1272  0.1026
 1159ERGO    R515996   6.590   6.595   7.436 -0.0623 -0.1026  0.1145
 1159ERGO    C115997   6.820   6.666   7.732 -0.0358 -0.1557  0.1050
 1159ERGO    C215998   7.134   6.721   7.809 -0.0917 -0.1829 -0.2652
 1160ERGO   ROH15999  10.300  10.678   6.607 -0.0266 -0.0673 -0.0871
 1160ERGO    R116000  10.334  10.591   6.874 -0.0252 -0.0062 -0.0665
 1160ERGO    R216001  10.582  10.547   6.986 -0.0215  0.0392 -0.0491
 1160ERGO    R316002  10.492  10.719   7.176 -0.0426  0.0747 -0.0924
 1160ERGO    R416003  10.663  10.530   7.322 -0.2073 -0.0038 -0.0065
 1160ERGO    R516004  10.456  10.581   7.368 -0.2069  0.0889 -0.1143
 1160ERGO    C116005  10.625  10.681   7.695 -0.3353  0.0046 -0.0222
 1160ERGO    C216006  10.902  10.748   7.978 -0.0056  0.0708 -0.0189
 1161ERGO   ROH16007   7.354  13.005   6.425  0.0680 -0.3211 -0.2339
 1161ERGO    R116008   7.469  12.847   6.630  0.2415 -0.0680 -0.1299
 1161ERGO    R216009   7.601  12.957   6.846 -0.1393  0.2336 -0.0344
 1161ERGO    R316010   7.426  12.806   6.989  0.0483 -0.1128 -0.1585
 1161ERGO    R416011   7.631  12.885   7.183 -0.1516  0.1415 -0.0535
 1161ERGO    R516012   7.563  12.682   7.141  0.1925  0.0466 -0.1600
 1161ERGO    C116013   7.482  12.701   7.513  0.0172 -0.2374 -0.1812
 1161ERGO    C216014   7.543  12.769   7.874 -0.1080 -0.0314  0.2410
 1162ERGO   ROH16015   6.455   2.274   6.868 -0.1522 -0.0058  0.0709
 1162ERGO    R116016   6.475   2.259   7.151 -0.1709  0.1129  0.0791
 1162ERGO    R216017   6.703   2.171   7.279 -0.2434 -0.0115  0.1265
 1162ERGO    R316018   6.683   2.409   7.409 -0.0546  0.0695  0.0104
 1162ERGO    R416019   6.801   2.228   7.606 -0.0637  0.1143  0.0522
 1162ERGO    R516020   6.624   2.350   7.633  0.0163  0.2239  0.0694
 1162ERGO    C116021   6.840   2.484   7.917  0.2181  0.2634 -0.1001
 1162ERGO    C216022   6.873   2.539   8.212  0.3243  0.1065 -0.0484
 1163ERGO   ROH16023  13.402  10.225   6.391  0.0475  0.2136  0.1963
 1163ERGO    R116024  13.564  10.229   6.623  0.0301  0.0329  0.2130
 1163ERGO    R216025  13.469  10.310   6.869  0.0827  0.0947  0.2116
 1163ERGO    R316026  13.562  10.068   6.950 -0.1537 -0.0051  0.1952
 1163ERGO    R416027  13.520  10.218   7.199  0.3695  0.1753  0.1923
 1163ERGO    R516028  13.704  10.119   7.137  0.1591 -0.1136 -0.0023
 1163ERGO    C116029  13.637   9.938   7.466  0.3146  0.1286  0.1657
 1163ERGO    C216030  13.696   9.785   7.823  0.0870  0.2228 -0.2491
 1164ERGO   ROH16031   2.668   2.444   6.558  0.3048  0.2121  0.0280
 1164ERGO    R116032   2.638   2.432   6.839  0.1547  0.2351  0.0156
 1164ERGO    R216033   2.773   2.248   6.996 -0.0134  0.1653  0.0975
 1164ERGO    R316034   2.853   2.471   7.130  0.0305  0.1342  0.1188
 1164ERGO    R416035   2.896   2.252   7.319  0.0516  0.1179  0.0718
 1164ERGO    R516036   2.783   2.434   7.355  0.0790  0.1128  0.1227
 1164ERGO    C116037   3.043   2.463   7.632  0.1307  0.0610  0.0768
 1164ERGO    C216038   3.124   2.515   7.825  0.0777 -0.1273  0.1194
 1165ERGO   ROH16039   9.614   6.638   6.277 -0.0717 -0.1855 -0.2121
 1165ERGO    R116040   9.613   6.523   6.536 -0.0091  0.0306 -0.1136
 1165ERGO    R216041   9.470   6.630   6.746 -0.2314  0.0193 -0.2559
 1165ERGO    R316042   9.366   6.380   6.761  0.0991 -0.1134 -0.0853
 1165ERGO    R416043   9.315   6.497   7.025 -0.1411  0.0371 -0.1967
 1165ERGO    R516044   9.416   6.308   6.984  0.1271  0.1343 -0.0094
 1165ERGO    C116045   9.127   6.184   7.201  0.2219 -0.0773 -0.0022
 1165ERGO    C216046   8.937   5.974   7.273  0.1082  0.0952 -0.1865
 1166ERGO   ROH16047  16.313   8.038   6.256 -0.1155  0.1057  0.0002
 1166ERGO    R116048  16.188   8.124   6.496 -0.0095  0.1708  0.0326
 1166ERGO    R216049  16.129   7.950   6.703 -0.0548  0.1999  0.0437
 1166ERGO    R316050  16.272   8.129   6.850  0.0805  0.1186  0.0124
 1166ERGO    R416051  16.127   7.969   7.048 -0.0693  0.2838  0.0393
 1166ERGO    R516052  16.127   8.186   7.032  0.1106  0.2816 -0.0132
 1166ERGO    C116053  16.261   8.147   7.387  0.0489  0.2564  0.0074
 1166ERGO    C216054  16.421   8.007   7.640 -0.1912 -0.1472  0.1452
 1167ERGO   ROH16055   1.930   2.817   6.386 -0.0619  0.2262 -0.1749
 1167ERGO    R116056   2.002   2.967   6.615 -0.1379  0.1483 -0.0989
 1167ERGO    R216057   1.817   3.054   6.801 -0.1812 -0.0464 -0.0493
 1167ERGO    R316058   1.981   2.926   6.976 -0.1085 -0.0489 -0.1187
 1167ERGO    R416059   1.877   3.155   7.126  0.0979  0.0537 -0.1287
 1167ERGO    R516060   2.087   3.102   7.099  0.0570 -0.0459 -0.2612
 1167ERGO    C116061   2.066   3.094   7.480  0.3286  0.1097 -0.2400
 1167ERGO    C216062   2.209   3.051   7.775  0.1453 -0.2516  0.0881
 1168ERGO   ROH16063  13.686  11.665   6.534 -0.0189  0.0828  0.0555
 1168ERGO    R116064  13.754  11.594   6.799 -0.0565  0.1026  0.0712
 1168ERGO    R216065  13.573  11.604   7.007 -0.1316 -0.0345  0.0166
 1168ERGO    R316066  13.647  11.345   7.042  0.0263  0.0095  0.0126
 1168ERGO    R416067  13.549  11.430   7.305 -0.0946 -0.0761 -0.0052
 1168ERGO    R516068  13.742  11.339   7.261 -0.0254  0.0517  0.0355
 1168ERGO    C116069  13.604  11.085   7.510  0.0752 -0.0590 -0.0217
 1168ERGO    C216070  13.604  10.883   7.800 -0.0242  0.3346 -0.0660
 1169ERGO   ROH16071  10.367  15.957   6.585  0.1071 -0.2301 -0.0998
 1169ERGO    R116072  10.283  16.038   6.843  0.0682 -0.1301 -0.1436
 1169ERGO    R216073  10.256  15.862   7.053  0.0269 -0.0491 -0.0821
 1169ERGO    R316074  10.422  16.037   7.179  0.0123 -0.0092 -0.1186
 1169ERGO    R416075  10.244  15.938   7.390  0.0882 -0.0708 -0.0753
 1169ERGO    R516076  10.282  16.146   7.340  0.0192 -0.0553 -0.0777
 1169ERGO    C116077  10.393  16.146   7.704  0.1102 -0.0458 -0.1057
 1169ERGO    C216078  10.225  16.078   8.040  0.0879  0.0666  0.1941
 1170ERGO   ROH16079   6.139   1.118   6.953  0.1170 -0.0423 -0.0632
 1170ERGO    R116080   6.100   1.114   7.234  0.0069 -0.0009 -0.0772
 1170ERGO    R216081   6.275   1.236   7.410 -0.0067 -0.0595 -0.0180
 1170ERGO    R316082   6.050   1.361   7.496  0.0121  0.0451 -0.1207
 1170ERGO    R416083   6.248   1.414   7.705 -0.0426  0.0235 -0.0716
 1170ERGO    R516084   6.050   1.328   7.733 -0.0802  0.1054 -0.1147
 1170ERGO    C116085   6.020   1.635   7.957 -0.0457  0.1701 -0.1991
 1170ERGO    C216086   5.984   1.540   8.325  0.1107 -0.1994 -0.0297
 1171ERGO   ROH16087   1.717  15.600   6.467 -0.1288 -0.0680  0.1017
 1171ERGO    R116088   1.869  15.651   6.701 -0.0730 -0.0560  0.0627
 1171ERGO    R216089   1.839  15.504   6.933 -0.0197 -0.0414  0.0776
 1171ERGO    R316090   2.107  15.468   6.907 -0.0259 -0.0461  0.0181
 1171ERGO    R416091   2.055  15.434   7.193  0.0616  0.1350  0.0591
 1171ERGO    R516092   2.201  15.569   7.103  0.0291  0.0850 -0.0732
 1171ERGO    C116093   2.433  15.359   7.320  0.1031  0.2332 -0.0076
 1171ERGO    C216094   2.706  15.381   7.456 -0.1861 -0.1673 -0.0925
 1172ERGO   ROH16095  13.367   7.280   6.224 -0.0729  0.0483 -0.1370
 1172ERGO    R116096  13.285   7.284   6.495 -0.1101  0.0751 -0.1487
 1172ERGO    R216097  13.464   7.268   6.704 -0.1478 -0.0190 -0.1245
 1172ERGO    R316098  13.340   7.497   6.785 -0.0511  0.0363 -0.1307
 1172ERGO    R416099  13.418   7.362   7.034 -0.0697  0.0276 -0.1266
 1172ERGO    R516100  13.218   7.432   6.981 -0.0514  0.0992 -0.1086
 1172ERGO    C116101  13.275   7.631   7.301  0.0664  0.1066 -0.1336
 1172ERGO    C216102  13.217   7.746   7.642 -0.1296 -0.0216 -0.2096
 1173ERGO   ROH16103  10.727   3.437   6.326 -0.1029 -0.0640 -0.1627
 1173ERGO    R116104  10.610   3.367   6.574 -0.0954 -0.0872 -0.1662
 1173ERGO    R216105  10.728   3.188   6.748 -0.0125  0.0163 -0.1181
 1173ERGO    R316106  10.702   3.393   6.925 -0.1597  0.0331 -0.1571
 1173ERGO    R416107  10.826   3.176   7.080  0.1391  0.1976 -0.1541
 1173ERGO    R516108  10.645   3.286   7.132  0.0393  0.0171 -0.1067
 1173ERGO    C116109  10.858   3.361   7.439  0.0892  0.3189 -0.2117
 1173ERGO    C216110  10.935   3.474   7.721 -0.1555 -0.0247  0.0165
 1174ERGO   ROH16111   2.900  14.016   6.427  0.1451  0.0842  0.1082
 1174ERGO    R116112   2.886  14.157   6.672 -0.0440  0.0056  0.1448
 1174ERGO    R216113   2.711  14.087   6.874 -0.0629 -0.1827  0.0670
 1174ERGO    R316114   2.938  14.081   7.024 -0.1081 -0.0564  0.1410
 1174ERGO    R416115   2.718  14.065   7.219 -0.1633 -0.2430  0.0651
 1174ERGO    R516116   2.883  14.208   7.219 -0.2608 -0.1307  0.1476
 1174ERGO    C116117   2.935  14.046   7.560 -0.2642 -0.1599  0.1336
 1174ERGO    C216118   2.970  13.966   7.879  0.3003 -0.0039  0.0080
 1175ERGO   ROH16119   1.788  11.409   6.263 -0.0476  0.0366  0.0237
 1175ERGO    R116120   1.822  11.358   6.540  0.0407  0.1026  0.0260
 1175ERGO    R216121   1.723  11.526   6.735  0.0427  0.1148  0.0192
 1175ERGO    R316122   1.605  11.299   6.826  0.1327  0.0979  0.0947
 1175ERGO    R416123   1.612  11.477   7.059 -0.0161  0.2078  0.0133
 1175ERGO    R516124   1.688  11.273   7.049  0.0875  0.2419  0.1279
 1175ERGO    C116125   1.436  11.235   7.332  0.0341  0.2460  0.0806
 1175ERGO    C216126   1.063  11.091   7.395 -0.0431 -0.1620 -0.0038
 1176ERGO   ROH16127   4.812  10.294   6.684 -0.2376  0.3283  0.1346
 1176ERGO    R116128   4.903  10.422   6.919 -0.1498  0.2056  0.1689
 1176ERGO    R216129   4.761  10.418   7.155 -0.0162 -0.0028  0.2481
 1176ERGO    R316130   4.995  10.323   7.257  0.0794  0.0110  0.0536
 1176ERGO    R416131   4.892  10.504   7.463  0.1839 -0.0800  0.1866
 1176ERGO    R516132   5.090  10.510   7.372  0.1216 -0.0070  0.0490
 1176ERGO    C116133   5.187  10.464   7.738  0.3902 -0.1120 -0.0318
 1176ERGO    C216134   5.135  10.375   8.040  0.0281  0.2142  0.0032
 1177ERGO   ROH16135   0.074  16.095   6.564  0.0865 -0.0217 -0.0324
 1177ERGO    R116136   0.105  16.278   6.778  0.0090  0.0324 -0.0654
 1177ERGO    R216137  -0.040  16.259   7.012  0.0883 -0.0467 -0.0186
 1177ERGO    R316138   0.206  16.261   7.127  0.1214  0.1540 -0.0918
 1177ERGO    R416139   0.021  16.313   7.348  0.1268 -0.1582 -0.0084
 1177ERGO    R516140   0.194  16.434   7.292 -0.0158  0.0554  0.0023
 1177ERGO    C116141   0.287  16.347   7.652  0.1804 -0.0348 -0.0710
 1177ERGO    C216142   0.263  16.284   8.009  0.1588  0.1402  0.1705
 1178ERGO   ROH16143   3.781   5.548   6.329 -0.2257  0.2105 -0.1035
 1178ERGO    R116144   3.745   5.477   6.601 -0.2578  0.3186 -0.0785
 1178ERGO    R216145   3.496   5.422   6.708 -0.2304 -0.0790 -0.1956
 1178ERGO    R316146   3.617   5.191   6.784  0.1655  0.1889  0.0231
 1178ERGO    R416147   3.416   5.241   6.992 -0.0960 -0.0862 -0.1624
 1178ERGO    R516148   3.629   5.205   7.023 -0.0450  0.3421  0.0240
 1178ERGO    C116149   3.483   4.919   7.229  0.3538  0.1612  0.0623
 1178ERGO    C216150   3.475   4.680   7.449 -0.1549  0.3240  0.0112
 1179ERGO   ROH16151  16.468  16.892   6.285 -0.1877 -0.0367 -0.0041
 1179ERGO    R116152  16.637  16.820   6.500 -0.2060 -0.1479 -0.0258
 1179ERGO    R216153  16.696  16.993   6.707  0.0165 -0.1494 -0.0838
 1179ERGO    R316154  16.606  16.788   6.862 -0.1522 -0.0209 -0.0099
 1179ERGO    R416155  16.799  16.930   7.031  0.2016 -0.2982 -0.1702
 1179ERGO    R516156  16.799  16.717   6.984 -0.1472 -0.3016 -0.1737
 1179ERGO    C116157  16.774  16.701   7.364  0.1512 -0.2640 -0.1511
 1179ERGO    C216158  17.026  16.793   7.655 -0.0288  0.2148  0.1464
 1180ERGO   ROH16159  10.168   2.907   6.186 -0.2988 -0.0127  0.0386
 1180ERGO    R116160  10.268   2.818   6.435 -0.3834 -0.1657  0.0176
 1180ERGO    R216161  10.371   2.990   6.624 -0.0182 -0.3275 -0.0380
 1180ERGO    R316162  10.189   2.870   6.786 -0.1852  0.0153  0.0399
 1180ERGO    R416163  10.405   2.956   6.966  0.1831 -0.5556 -0.0770
 1180ERGO    R516164  10.322   2.755   6.949 -0.3067 -0.3754 -0.1157
 1180ERGO    C116165  10.254   2.823   7.318  0.1436 -0.3665 -0.0267
 1180ERGO    C216166  10.197   2.957   7.590 -0.1541  0.0910  0.1134
 1181ERGO   ROH16167   9.403  16.447   6.416  0.1598  0.0574 -0.0216
 1181ERGO    R116168   9.295  16.423   6.677  0.0779  0.1131 -0.0499
 1181ERGO    R216169   9.414  16.269   6.873 -0.1209 -0.0508 -0.0554
 1181ERGO    R316170   9.403  16.500   7.015  0.0854 -0.0673 -0.0097
 1181ERGO    R416171   9.413  16.288   7.218 -0.1535 -0.1229 -0.0513
 1181ERGO    R516172   9.265  16.447   7.204  0.0033  0.0282 -0.0415
 1181ERGO    C116173   9.402  16.516   7.553  0.0212 -0.1805 -0.0060
 1181ERGO    C216174   9.386  16.593   7.904 -0.0005  0.0316  0.1969
 1182ERGO   ROH16175   7.165   2.882   6.083  0.1434  0.0177 -0.0265
 1182ERGO    R116176   7.204   3.086   6.275  0.1417  0.0114 -0.0196
 1182ERGO    R216177   7.344   3.317   6.221  0.0803  0.0454 -0.0325
 1182ERGO    R316178   7.117   3.437   6.310  0.0740 -0.0095  0.0261
 1182ERGO    R416179   7.330   3.630   6.368  0.0181  0.1334 -0.2222
 1182ERGO    R516180   7.184   3.551   6.509  0.1393  0.1500 -0.0846
 1182ERGO    C116181   7.109   3.924   6.537 -0.0240  0.1331 -0.2776
 1182ERGO    C216182   6.976   4.275   6.482 -0.0422  0.2320 -0.1454
 1183ERGO   ROH16183   8.734  12.699   6.461 -0.1252 -0.0183 -0.0245
 1183ERGO    R116184   8.683  12.668   6.738 -0.2384  0.1785 -0.0215
 1183ERGO    R216185   8.861  12.544   6.909 -0.4856 -0.0696  0.0631
 1183ERGO    R316186   8.839  12.776   7.049 -0.1099  0.0324 -0.0341
 1183ERGO    R416187   8.974  12.592   7.232 -0.4518 -0.1308  0.0608
 1183ERGO    R516188   8.793  12.707   7.273 -0.2669  0.1995 -0.0124
 1183ERGO    C116189   9.019  12.839   7.552 -0.0794 -0.0706 -0.0318
 1183ERGO    C216190   9.191  13.034   7.721 -0.4905 -0.0032  0.1049
 1184ERGO   ROH16191  17.136  15.655   6.598 -0.0991  0.1676 -0.1165
 1184ERGO    R116192  17.063  15.631   6.870 -0.0669  0.0964 -0.1148
 1184ERGO    R216193  17.162  15.799   7.067 -0.1099  0.0966 -0.0986
 1184ERGO    R316194  16.899  15.839   7.119 -0.1198 -0.0045 -0.0634
 1184ERGO    R416195  17.032  15.874   7.378 -0.0906  0.0619 -0.0812
 1184ERGO    R516196  16.865  15.741   7.335 -0.0470 -0.0089 -0.0507
 1184ERGO    C116197  16.708  15.956   7.608 -0.0885 -0.0534 -0.0380
 1184ERGO    C216198  16.652  15.994   7.962 -0.1286  0.2255  0.2892
 1185ERGO   ROH16199  12.568  16.369   6.365  0.3492  0.0164 -0.0132
 1185ERGO    R116200  12.521  16.328   6.641  0.1765  0.0186 -0.0415
 1185ERGO    R216201  12.723  16.262   6.818  0.0729  0.0601  0.0915
 1185ERGO    R316202  12.631  16.479   6.953 -0.0529  0.0491  0.0266
 1185ERGO    R416203  12.786  16.328   7.151 -0.0455  0.1478  0.0979
 1185ERGO    R516204  12.580  16.395   7.172 -0.0798  0.0685  0.0283
 1185ERGO    C116205  12.737  16.570   7.473 -0.2325  0.1884  0.0407
 1185ERGO    C216206  12.883  16.819   7.688 -0.3627  0.3135 -0.0707
 1186ERGO   ROH16207   3.060  10.840   6.667  0.1017  0.1705 -0.0583
 1186ERGO    R116208   3.000  10.786   6.938  0.3098  0.1340 -0.0174
 1186ERGO    R216209   3.133  10.908   7.147  0.1947  0.4209 -0.1063
 1186ERGO    R316210   2.882  10.976   7.225  0.1037  0.0097 -0.0178
 1186ERGO    R416211   3.041  10.987   7.471  0.1913  0.3219 -0.0827
 1186ERGO    R516212   2.857  10.875   7.441  0.3631  0.0005  0.0117
 1186ERGO    C116213   2.752  11.097   7.732  0.1039 -0.1218  0.0140
 1186ERGO    C216214   2.758  11.086   8.040 -0.0559  0.1406  0.0183
 1187ERGO   ROH16215   0.734   3.307   6.289 -0.1748  0.0807  0.2682
 1187ERGO    R116216   0.716   3.085   6.463 -0.0678 -0.0680  0.0941
 1187ERGO    R216217   0.866   2.856   6.429  0.1195  0.0687 -0.0298
 1187ERGO    R316218   0.940   2.904   6.686 -0.0067 -0.0666  0.0330
 1187ERGO    R416219   0.970   2.614   6.653 -0.0491 -0.0553 -0.0838
 1187ERGO    R516220   0.856   2.717   6.808 -0.1094 -0.1054 -0.0977
 1187ERGO    C116221   1.099   2.519   7.026 -0.2658 -0.2546 -0.0563
 1187ERGO    C216222   1.102   2.113   7.150 -0.3630  0.2071  0.0700
 1188ERGO   ROH16223   5.043   3.324   6.501  0.0321 -0.0008  0.0271
 1188ERGO    R116224   5.134   3.309   6.769  0.0816  0.0201  0.0118
 1188ERGO    R216225   5.184   3.534   6.922 -0.1178  0.0321  0.0616
 1188ERGO    R316226   5.012   3.414   7.095  0.0199 -0.1799  0.0542
 1188ERGO    R416227   5.133   3.632   7.250 -0.1877 -0.0833  0.0857
 1188ERGO    R516228   5.126   3.421   7.306  0.0334 -0.1050  0.0448
 1188ERGO    C116229   4.943   3.576   7.603 -0.0992 -0.3496  0.0927
 1188ERGO    C216230   4.975   3.632   7.914 -0.0296  0.1579 -0.0936
 1189ERGO   ROH16231   8.503  10.390   6.929 -0.1125  0.2032 -0.0989
 1189ERGO    R116232   8.368  10.346   7.174 -0.0563  0.2007 -0.0685
 1189ERGO    R216233   8.443  10.148   7.352 -0.1941  0.0097 -0.2220
 1189ERGO    R316234   8.453  10.354   7.528  0.1054 -0.1065 -0.0966
 1189ERGO    R416235   8.402  10.118   7.693 -0.1738 -0.1473 -0.2321
 1189ERGO    R516236   8.286  10.302   7.691  0.0625  0.0105 -0.1012
 1189ERGO    C116237   8.388  10.295   8.058  0.1195 -0.3478 -0.1202
 1189ERGO    C216238   8.587  10.390   8.341  0.1883 -0.1560 -0.0598
 1190ERGO   ROH16239  15.557   3.050   6.148 -0.1165  0.3359 -0.0428
 1190ERGO    R116240  15.543   3.037   6.430 -0.0179  0.3373 -0.0379
 1190ERGO    R216241  15.468   3.253   6.585 -0.2170  0.2630 -0.0306
 1190ERGO    R316242  15.286   3.077   6.685  0.0095  0.0611  0.0372
 1190ERGO    R416243  15.394   3.213   6.921 -0.0592  0.1955 -0.0031
 1190ERGO    R516244  15.385   2.998   6.888  0.1698  0.1787  0.0090
 1190ERGO    C116245  15.181   3.025   7.209  0.2455 -0.0333  0.0766
 1190ERGO    C216246  15.005   2.955   7.433  0.0248  0.0382 -0.0458
 1191ERGO   ROH16247  11.682   0.849   6.124  0.1365  0.1877  0.0366
 1191ERGO    R116248  11.803   0.946   6.360 -0.0616  0.2092  0.1311
 1191ERGO    R216249  11.657   1.014   6.585 -0.2250 -0.0708  0.1147
 1191ERGO    R316250  11.827   0.841   6.708 -0.0697  0.0598  0.0871
 1191ERGO    R416251  11.690   0.979   6.927 -0.3124 -0.2082  0.1097
 1191ERGO    R516252  11.906   0.961   6.900 -0.2782  0.0541  0.1784
 1191ERGO    C116253  11.869   0.796   7.242 -0.2175 -0.1656  0.0809
 1191ERGO    C216254  11.928   0.880   7.574  0.4729  0.1093  0.1564
 1192ERGO   ROH16255   9.679   1.809   6.168  0.1204 -0.0473  0.0547
 1192ERGO    R116256   9.589   1.929   6.409  0.0229 -0.0348  0.0117
 1192ERGO    R216257   9.496   1.781   6.623  0.1352 -0.0341  0.0574
 1192ERGO    R316258   9.685   1.921   6.760  0.0232  0.1610  0.0179
 1192ERGO    R416259   9.456   1.910   6.942  0.0700 -0.0855  0.0709
 1192ERGO    R516260   9.562   2.089   6.878 -0.1295  0.0312  0.0503
 1192ERGO    C116261   9.610   2.116   7.255 -0.0730  0.0679  0.0417
 1192ERGO    C216262   9.658   2.306   7.599  0.0561  0.4956 -0.2827
 1193ERGO   ROH16263  17.492  17.419   6.317  0.1465  0.2107  0.0575
 1193ERGO    R116264  17.478  17.338   6.588  0.1830  0.1011  0.0265
 1193ERGO    R216265  17.687  17.375   6.765  0.1144  0.2587  0.0725
 1193ERGO    R316266  17.497  17.500   6.914 -0.0442  0.0084  0.0888
 1193ERGO    R416267  17.684  17.390   7.111  0.1343  0.2636  0.0729
 1193ERGO    R516268  17.469  17.359   7.106  0.1683 -0.0301  0.0970
 1193ERGO    C116269  17.505  17.517   7.451 -0.0028  0.0315  0.0886
 1193ERGO    C216270  17.775  17.593   7.697  0.2128 -0.0274  0.0948
 1194ERGO   ROH16271   6.525  14.862   6.112  0.0771  0.0814 -0.1350
 1194ERGO    R116272   6.511  14.894   6.393  0.1410  0.0172 -0.1225
 1194ERGO    R216273   6.633  15.105   6.525  0.0621  0.0676 -0.1102
 1194ERGO    R316274   6.383  15.143   6.625  0.0650 -0.1005 -0.0413
 1194ERGO    R416275   6.560  15.186   6.853  0.0845  0.0444 -0.1012
 1194ERGO    R516276   6.391  15.050   6.845  0.1847 -0.0701 -0.0399
 1194ERGO    C116277   6.283  15.270   7.137  0.1003 -0.1268 -0.0312
 1194ERGO    C216278   6.359  15.573   7.311  0.1650  0.0218  0.0336
 1195ERGO   ROH16279  17.572   8.077   6.049 -0.1272 -0.1253 -0.0824
 1195ERGO    R116280  17.695   8.047   6.303 -0.0370 -0.0159 -0.1150
 1195ERGO    R216281  17.631   8.208   6.518 -0.0498 -0.0093 -0.1347
 1195ERGO    R316282  17.587   7.970   6.642  0.1081 -0.0052 -0.0635
 1195ERGO    R416283  17.560   8.171   6.854 -0.3799  0.0897 -0.1888
 1195ERGO    R516284  17.690   7.996   6.857 -0.1554  0.2426  0.0451
 1195ERGO    C116285  17.477   7.927   7.166 -0.4238  0.1512 -0.1536
 1195ERGO    C216286  17.325   7.890   7.430 -0.0152 -0.2605 -0.1858
 1196ERGO   ROH16287   6.650  16.742   6.277  0.0353  0.2619 -0.0491
 1196ERGO    R116288   6.790  16.824   6.509 -0.1875  0.4429  0.0261
 1196ERGO    R216289   6.663  16.930   6.730 -0.4773  0.0271  0.0739
 1196ERGO    R316290   6.796  16.731   6.861 -0.0488  0.2351 -0.0302
 1196ERGO    R416291   6.679  16.894   7.074 -0.4256 -0.1427  0.0544
 1196ERGO    R516292   6.888  16.838   7.054 -0.2957  0.3264  0.0371
 1196ERGO    C116293   6.813  16.687   7.396  0.0067 -0.0464 -0.0545
 1196ERGO    C216294   6.725  16.492   7.692 -0.0450  0.2694  0.0412
 1197ERGO   ROH16295   1.888   8.025   6.662  0.0526 -0.1608  0.1648
 1197ERGO    R116296   1.848   8.110   6.929  0.0504 -0.1527  0.1618
 1197ERGO    R216297   1.597   8.128   7.044  0.0332  0.0468  0.0942
 1197ERGO    R316298   1.708   7.968   7.233 -0.1530 -0.0648  0.1111
 1197ERGO    R416299   1.495   8.112   7.373 -0.1611  0.0036  0.0328
 1197ERGO    R516300   1.704   8.100   7.433 -0.1981 -0.1191  0.1473
 1197ERGO    C116301   1.539   7.952   7.743 -0.4490 -0.1262  0.0130
 1197ERGO    C216302   1.294   7.951   7.990  0.0381 -0.0161 -0.4308
 1198ERGO   ROH16303   8.621  13.668   6.725  0.1916  0.2541 -0.0447
 1198ERGO    R116304   8.575  13.615   7.000  0.2506  0.1988 -0.0455
 1198ERGO    R216305   8.636  13.798   7.198  0.1017  0.2418 -0.0399
 1198ERGO    R316306   8.376  13.761   7.267  0.1354  0.0105 -0.0270
 1198ERGO    R416307   8.514  13.808   7.521  0.0886  0.2547 -0.0448
 1198ERGO    R516308   8.385  13.639   7.473  0.2562  0.1043  0.0244
 1198ERGO    C116309   8.198  13.780   7.774  0.1126  0.0451 -0.0356
 1198ERGO    C216310   7.974  13.598   8.055  0.1288 -0.1746  0.1633
 1199ERGO   ROH16311   9.337  17.285   5.991  0.0934 -0.0674 -0.1003
 1199ERGO    R116312   9.431  17.355   6.249 -0.0290 -0.1569 -0.0301
 1199ERGO    R216313   9.383  17.602   6.363 -0.0030 -0.1607 -0.0045
 1199ERGO    R316314   9.282  17.453   6.566 -0.1780 -0.1693 -0.0961
 1199ERGO    R416315   9.330  17.716   6.685  0.1131 -0.2949  0.0632
 1199ERGO    R516316   9.403  17.526   6.760 -0.1040 -0.4216 -0.0471
 1199ERGO    C116317   9.204  17.642   7.063  0.0163 -0.3812  0.0165
 1199ERGO    C216318   9.051  17.656   7.441 -0.0366 -0.0970  0.0081
 1200ERGO   ROH16319   2.220   0.327   6.404 -0.2597 -0.3138  0.0369
 1200ERGO    R116320   2.134   0.264   6.667 -0.1907 -0.2336  0.0804
 1200ERGO    R216321   2.228   0.044   6.806 -0.1255 -0.1743  0.1402
 1200ERGO    R316322   2.288   0.231   6.994 -0.1077 -0.0944  0.0548
 1200ERGO    R416323   2.309  -0.026   7.134  0.0491 -0.0356  0.1269
 1200ERGO    R516324   2.190   0.146   7.196  0.0171 -0.0632  0.1257
 1200ERGO    C116325   2.414   0.108   7.502  0.1676  0.1201  0.0390
 1200ERGO    C216326   2.471   0.156   7.828  0.0025  0.2937 -0.1425
 1201ERGO   ROH16327  14.137   6.291   6.102  0.0069  0.1012  0.0321
 1201ERGO    R116328  14.322   6.376   6.298  0.0574  0.0273  0.0165
 1201ERGO    R216329  14.247   6.523   6.520  0.1379  0.0737  0.0119
 1201ERGO    R316330  14.372   6.323   6.655  0.0548  0.0244  0.0167
 1201ERGO    R416331  14.453   6.569   6.793 -0.0274 -0.0221  0.1547
 1201ERGO    R516332  14.586   6.416   6.713  0.0216  0.0051  0.1790
 1201ERGO    C116333  14.691   6.409   7.080 -0.2016 -0.1242  0.2423
 1201ERGO    C216334  14.878   6.328   7.367 -0.0909  0.0830 -0.1465
 1202ERGO   ROH16335  16.869   1.076   6.368  0.0326 -0.0668 -0.0178
 1202ERGO    R116336  16.787   1.100   6.638  0.0532 -0.1636 -0.0018
 1202ERGO    R216337  16.926   0.986   6.847  0.2215 -0.0145 -0.0263
 1202ERGO    R316338  16.923   1.240   6.945 -0.0430 -0.0154 -0.0262
 1202ERGO    R416339  16.984   1.071   7.177  0.3519  0.0654 -0.0693
 1202ERGO    R516340  16.824   1.218   7.162  0.1438 -0.1460  0.0465
 1202ERGO    C116341  17.015   1.358   7.461  0.1798  0.1111 -0.0943
 1202ERGO    C216342  17.027   1.254   7.856 -0.0869  0.1869 -0.2375
 1203ERGO   ROH16343   2.742  10.151   6.751 -0.0744 -0.3329 -0.1231
 1203ERGO    R116344   2.963  10.324   6.790 -0.1384 -0.2799  0.0005
 1203ERGO    R216345   3.103  10.334   7.027 -0.1411 -0.4050  0.0019
 1203ERGO    R316346   3.317  10.288   6.865 -0.1213 -0.2015 -0.0347
 1203ERGO    R416347   3.418  10.469   7.073 -0.1646 -0.4066  0.1805
 1203ERGO    R516348   3.432  10.498   6.858 -0.1510 -0.1689  0.2057
 1203ERGO    C116349   3.802  10.504   6.949 -0.1597 -0.2165  0.2502
 1203ERGO    C216350   4.037  10.663   7.063  0.0328 -0.0620 -0.4786
 1204ERGO   ROH16351  12.895   5.384   6.304  0.0085  0.2206  0.0941
 1204ERGO    R116352  12.972   5.263   6.548 -0.1380  0.1966  0.1289
 1204ERGO    R216353  13.187   5.352   6.697 -0.1097  0.0616  0.1675
 1204ERGO    R316354  13.002   5.365   6.896 -0.1490  0.2210  0.1232
 1204ERGO    R416355  13.232   5.514   6.999 -0.0216 -0.0161  0.1967
 1204ERGO    R516356  13.130   5.348   7.097 -0.2114  0.0701  0.1537
 1204ERGO    C116357  13.085   5.620   7.362 -0.0071  0.0883  0.1721
 1204ERGO    C216358  13.023   5.695   7.732 -0.0179 -0.0850  0.0453
 1205ERGO   ROH16359  16.689   0.478   6.342 -0.1290 -0.0029 -0.1052
 1205ERGO    R116360  16.719   0.636   6.575  0.0396  0.0269 -0.1454
 1205ERGO    R216361  16.531   0.638   6.778  0.1051  0.1781 -0.0845
 1205ERGO    R316362  16.746   0.577   6.933  0.1198  0.0821 -0.1424
 1205ERGO    R416363  16.517   0.559   7.114  0.1502  0.0714 -0.1073
 1205ERGO    R516364  16.697   0.676   7.145  0.1797  0.0227 -0.1010
 1205ERGO    C116365  16.710   0.455   7.455  0.1900 -0.0808 -0.1749
 1205ERGO    C216366  16.757   0.418   7.916 -0.0077  0.1096  0.0142
 1206ERGO   ROH16367  14.719  17.279   6.687 -0.0864  0.0121  0.1099
 1206ERGO    R116368  14.745  17.171   6.947  0.1278 -0.0232  0.0758
 1206ERGO    R216369  14.944  17.249   7.121  0.0780  0.1944  0.0398
 1206ERGO    R316370  14.735  17.297   7.288  0.0566 -0.1210  0.1103
 1206ERGO    R416371  14.975  17.332   7.455  0.0715  0.3407  0.0047
 1206ERGO    R516372  14.804  17.202   7.497  0.3086  0.0527  0.1104
 1206ERGO    C116373  14.796  17.425   7.807  0.0477  0.1299  0.0505
 1206ERGO    C216374  15.038  17.482   8.097  0.0510 -0.3237  0.0770
 1207ERGO   ROH16375   3.911  17.061   6.894  0.1978 -0.1968 -0.2954
 1207ERGO    R116376   4.149  17.147   7.022  0.1239 -0.0105 -0.2809
 1207ERGO    R216377   4.268  17.390   6.966 -0.1939  0.1915 -0.0988
 1207ERGO    R316378   4.249  17.425   7.235 -0.1695 -0.0672 -0.0606
 1207ERGO    R416379   4.488  17.575   7.158 -0.3429  0.2669  0.0014
 1207ERGO    R516380   4.476  17.422   7.312 -0.1398  0.1101 -0.1254
 1207ERGO    C116381   4.598  17.716   7.522 -0.4068  0.0681  0.0956
 1207ERGO    C216382   4.815  17.887   7.803 -0.2206 -0.3219 -0.0897
 1208ERGO   ROH16383  17.153   5.745   6.181 -0.0487 -0.0076  0.1781
 1208ERGO    R116384  17.096   5.642   6.438 -0.0475 -0.1322  0.1294
 1208ERGO    R216385  17.271   5.478   6.575  0.0918  0.0522  0.1793
 1208ERGO    R316386  17.242   5.664   6.771 -0.2328 -0.0190  0.2045
 1208ERGO    R416387  17.323   5.420   6.912  0.2362  0.1069  0.1666
 1208ERGO    R516388  17.148   5.543   6.955  0.0086 -0.2181  0.2009
 1208ERGO    C116389  17.326   5.562   7.292  0.0157  0.0718  0.1829
 1208ERGO    C216390  17.437   5.616   7.647  0.2800  0.0610  0.1776
 1209ERGO   ROH16391   9.870   0.243   5.846 -0.1849  0.0116 -0.0234
 1209ERGO    R116392   9.953   0.240   6.117 -0.0047  0.0422 -0.0760
 1209ERGO    R216393  10.148   0.409   6.215  0.0854  0.0371 -0.2281
 1209ERGO    R316394   9.955   0.474   6.395  0.2072  0.0854 -0.1149
 1209ERGO    R416395  10.206   0.506   6.542  0.2940  0.1420 -0.2951
 1209ERGO    R516396  10.035   0.386   6.603  0.3450  0.1581 -0.1419
 1209ERGO    C116397  10.059   0.623   6.901  0.5299  0.2485 -0.2279
 1209ERGO    C216398  10.069   0.766   7.194  0.0065  0.0528 -0.0224
 1210ERGO   ROH16399   7.272   9.906   6.433  0.1455  0.0739  0.2942
 1210ERGO    R116400   7.059   9.870   6.616  0.0435  0.0244  0.1673
 1210ERGO    R216401   7.061   9.671   6.808 -0.0414  0.0023  0.1446
 1210ERGO    R316402   7.017   9.879   6.978 -0.1675 -0.0234  0.1454
 1210ERGO    R416403   6.965   9.639   7.139  0.1214 -0.0623  0.1871
 1210ERGO    R516404   6.831   9.809   7.111 -0.0502 -0.1885  0.2272
 1210ERGO    C116405   6.868   9.816   7.490  0.0979 -0.1242  0.2125
 1210ERGO    C216406   7.011   9.727   7.830 -0.1492  0.3640  0.2497
 1211ERGO   ROH16407  16.383  10.478   6.540 -0.2043 -0.1975  0.0338
 1211ERGO    R116408  16.317  10.324   6.768 -0.0753 -0.2231  0.0545
 1211ERGO    R216409  16.467  10.106   6.849  0.0609 -0.1370  0.0370
 1211ERGO    R316410  16.475  10.240   7.085  0.0324 -0.1209  0.0288
 1211ERGO    R416411  16.492   9.957   7.159 -0.0130 -0.1187  0.0518
 1211ERGO    R516412  16.349  10.102   7.236 -0.0112 -0.0968  0.0153
 1211ERGO    C116413  16.515   9.996   7.562 -0.0828 -0.0931  0.0529
 1211ERGO    C216414  16.709   9.786   7.696  0.0231  0.1646  0.0692
 1212ERGO   ROH16415   6.661  12.452   6.244  0.2150  0.0300  0.1277
 1212ERGO    R116416   6.523  12.555   6.469  0.1289  0.1228  0.0335
 1212ERGO    R216417   6.395  12.392   6.652 -0.0770  0.2066 -0.0335
 1212ERGO    R316418   6.550  12.527   6.831 -0.1148  0.1349  0.0543
 1212ERGO    R416419   6.336  12.409   6.992 -0.1032 -0.0046 -0.0261
 1212ERGO    R516420   6.393  12.619   6.987 -0.1448  0.0124  0.0989
 1212ERGO    C116421   6.446  12.546   7.358 -0.1539 -0.1947  0.0605
 1212ERGO    C216422   6.291  12.555   7.632  0.1535 -0.0075  0.1467
 1213ERGO   ROH16423   4.659   8.408   6.366  0.0363  0.1062  0.0395
 1213ERGO    R116424   4.802   8.287   6.578 -0.0022  0.0607  0.0398
 1213ERGO    R216425   4.883   8.427   6.801 -0.0012  0.0238  0.0627
 1213ERGO    R316426   4.750   8.230   6.933 -0.0442  0.0301  0.0290
 1213ERGO    R416427   4.913   8.362   7.140  0.0077 -0.0581  0.0462
 1213ERGO    R516428   4.909   8.149   7.093 -0.0531 -0.0477 -0.0009
 1213ERGO    C116429   4.805   8.139   7.460 -0.0274 -0.0998  0.0050
 1213ERGO    C216430   4.939   8.044   7.676  0.0738 -0.2943 -0.0425
 1214ERGO   ROH16431   7.741   9.900   6.694  0.0389  0.0928  0.1042
 1214ERGO    R116432   7.506   9.926   6.850  0.0104 -0.1033  0.0966
 1214ERGO    R216433   7.477   9.806   7.096  0.1745  0.0155  0.1737
 1214ERGO    R316434   7.419  10.059   7.178 -0.1425 -0.0016  0.0166
 1214ERGO    R416435   7.374   9.891   7.415  0.3106  0.1073  0.1941
 1214ERGO    R516436   7.233  10.032   7.326  0.0167 -0.1743  0.1939
 1214ERGO    C116437   7.260  10.178   7.677  0.0922  0.1447  0.0585
 1214ERGO    C216438   7.367  10.345   8.010  0.4613 -0.0836 -0.0541
 1215ERGO   ROH16439  17.928   6.457   6.151  0.1030 -0.1272  0.1670
 1215ERGO    R116440  17.812   6.436   6.409  0.0187 -0.1041  0.1323
 1215ERGO    R216441  17.922   6.280   6.609 -0.0344 -0.0716  0.1916
 1215ERGO    R316442  17.912   6.512   6.750 -0.0992 -0.0532  0.1553
 1215ERGO    R416443  17.837   6.304   6.943 -0.0758 -0.0366  0.1777
 1215ERGO    R516444  17.724   6.485   6.896 -0.1076 -0.0693  0.1384
 1215ERGO    C116445  17.778   6.537   7.270 -0.1610  0.0011  0.1354
 1215ERGO    C216446  17.788   6.733   7.562  0.2077  0.1668  0.0144
 1216ERGO   ROH16447  10.162   8.925   6.479 -0.0070  0.0453 -0.1382
 1216ERGO    R116448  10.206   8.978   6.753 -0.1040  0.0007 -0.1137
 1216ERGO    R216449  10.195   8.780   6.946 -0.0715 -0.0498 -0.1620
 1216ERGO    R316450  10.443   8.872   7.008 -0.1269  0.0433 -0.0747
 1216ERGO    R416451  10.376   8.687   7.225 -0.1117 -0.0210 -0.1263
 1216ERGO    R516452  10.441   8.894   7.246 -0.2038  0.0019 -0.0719
 1216ERGO    C116453  10.715   8.719   7.446 -0.1871  0.0830 -0.0235
 1216ERGO    C216454  10.905   8.517   7.677  0.1146  0.2429 -0.0650
 1217ERGO   ROH16455  14.919   4.221   6.224 -0.1370 -0.0580 -0.0130
 1217ERGO    R116456  14.995   4.172   6.492 -0.1160 -0.0702 -0.0214
 1217ERGO    R216457  15.137   4.355   6.643 -0.0598 -0.0991 -0.0417
 1217ERGO    R316458  14.931   4.322   6.817 -0.0451 -0.0523 -0.0149
 1217ERGO    R416459  15.153   4.420   6.982  0.0587 -0.2747 -0.0120
 1217ERGO    R516460  15.035   4.240   7.017 -0.0513 -0.2188 -0.0761
 1217ERGO    C116461  14.969   4.427   7.343  0.1415 -0.3330  0.0305
 1217ERGO    C216462  15.059   4.414   7.765 -0.0762 -0.1345 -0.0739
 1218ERGO   ROH16463   0.518   2.267   6.358 -0.0174  0.1026  0.0937
 1218ERGO    R116464   0.487   2.352   6.626 -0.0791  0.0519  0.1041
 1218ERGO    R216465   0.468   2.175   6.838  0.0719  0.0102  0.0935
 1218ERGO    R316466   0.675   2.321   6.936 -0.0404  0.1711  0.0903
 1218ERGO    R416467   0.515   2.251   7.171  0.0219  0.0750  0.0851
 1218ERGO    R516468   0.578   2.451   7.112 -0.1289  0.1102  0.0774
 1218ERGO    C116469   0.737   2.433   7.458 -0.1125  0.2639  0.0772
 1218ERGO    C216470   0.939   2.345   7.626 -0.2548  0.3285 -0.2209
 1219ERGO   ROH16471   3.663  14.744   6.726  0.0440  0.0153 -0.0707
 1219ERGO    R116472   3.745  14.794   6.992  0.4368 -0.0714 -0.1723
 1219ERGO    R216473   3.580  14.754   7.209  0.4357  0.6986 -0.0209
 1219ERGO    R316474   3.786  14.601   7.298 -0.0332 -0.0017 -0.0532
 1219ERGO    R416475   3.623  14.652   7.536  0.2579  0.7949  0.0360
 1219ERGO    R516476   3.836  14.689   7.515  0.4243  0.0128 -0.1436
 1219ERGO    C116477   3.841  14.448   7.810 -0.2858  0.1937  0.0388
 1219ERGO    C216478   3.759  14.246   8.054 -0.0166 -0.0824 -0.1204
 1220ERGO   ROH16479   8.826   3.253   6.229 -0.0586  0.1187  0.0243
 1220ERGO    R116480   8.829   3.434   6.446 -0.0735  0.0710  0.0649
 1220ERGO    R216481   8.624   3.449   6.631 -0.0095 -0.0860  0.1520
 1220ERGO    R316482   8.826   3.413   6.809  0.0842 -0.0158  0.0616
 1220ERGO    R416483   8.609   3.535   6.965  0.0611 -0.2218  0.1904
 1220ERGO    R516484   8.815   3.606   6.951  0.0073 -0.0765  0.1377
 1220ERGO    C116485   8.790   3.550   7.328  0.1901 -0.2350  0.1280
 1220ERGO    C216486   8.921   3.633   7.570  0.1522  0.0357  0.1165
 1221ERGO   ROH16487  12.261  14.917   6.505 -0.0556 -0.3686 -0.1508
 1221ERGO    R116488  12.209  14.781   6.748 -0.0364 -0.0959  0.0043
 1221ERGO    R216489  12.354  14.829   6.980 -0.0721  0.2129 -0.0582
 1221ERGO    R316490  12.107  14.874   7.084 -0.0867  0.2626 -0.0980
 1221ERGO    R416491  12.238  14.699   7.278 -0.0854  0.2848 -0.0269
 1221ERGO    R516492  12.045  14.666   7.184 -0.0978  0.2689 -0.0503
 1221ERGO    C116493  11.939  14.664   7.550 -0.1068  0.3735 -0.0461
 1221ERGO    C216494  11.900  14.728   7.848 -0.0123 -0.0150 -0.1420
 1222ERGO   ROH16495   0.781   0.490   6.288  0.2804  0.0675  0.1045
 1222ERGO    R116496   0.629   0.462   6.525  0.1080  0.1251  0.0029
 1222ERGO    R216497   0.608   0.222   6.659 -0.0268  0.1453  0.0224
 1222ERGO    R316498   0.693   0.370   6.871 -0.1494  0.1611  0.0615
 1222ERGO    R416499   0.600   0.117   6.989  0.1059  0.0355 -0.0088
 1222ERGO    R516500   0.537   0.318   7.046 -0.0828 -0.0435  0.0607
 1222ERGO    C116501   0.676   0.194   7.379  0.0681 -0.0136  0.0097
 1222ERGO    C216502   0.703   0.092   7.705 -0.1691 -0.0905 -0.1747
 1223ERGO   ROH16503   5.967   8.760   6.415 -0.0440  0.2446 -0.0481
 1223ERGO    R116504   5.854   8.859   6.655 -0.0377  0.1997 -0.0255
 1223ERGO    R216505   5.749   8.694   6.850 -0.0243  0.1607 -0.0460
 1223ERGO    R316506   5.921   8.829   7.012 -0.0196  0.1398 -0.0351
 1223ERGO    R416507   5.712   8.730   7.192  0.0083  0.0949 -0.0360
 1223ERGO    R516508   5.780   8.936   7.172 -0.0077  0.0995 -0.0015
 1223ERGO    C116509   5.852   8.878   7.542  0.0317  0.0369 -0.0198
 1223ERGO    C216510   5.904   8.811   7.891  0.2795 -0.2165  0.1973
 1224ERGO   ROH16511   7.309   9.500   8.455 -0.1898  0.0499 -0.2003
 1224ERGO    R116512   7.033   9.502   8.393 -0.2157  0.0720 -0.0816
 1224ERGO    R216513   6.850   9.654   8.533 -0.1305  0.1284 -0.0412
 1224ERGO    R316514   6.788   9.749   8.286 -0.2313  0.0777 -0.0374
 1224ERGO    R416515   6.530   9.724   8.424 -0.1640  0.2844  0.1485
 1224ERGO    R516516   6.583   9.639   8.230 -0.3408  0.1783  0.1387
 1224ERGO    C116517   6.285   9.854   8.129 -0.2782  0.3276  0.2624
 1224ERGO    C216518   6.045  10.044   7.886 -0.4041 -0.0067 -0.0336
 1225ERGO   ROH16519   9.633  17.924   5.940  0.0523 -0.0001  0.1510
 1225ERGO    R116520   9.585  18.115   6.144  0.0885  0.0747  0.0924
 1225ERGO    R216521   9.484  18.045   6.392 -0.1526  0.1979  0.0419
 1225ERGO    R316522   9.704  18.176   6.482 -0.0831  0.0000  0.1654
 1225ERGO    R416523   9.514  18.186   6.706 -0.2286  0.2715  0.0153
 1225ERGO    R516524   9.616  18.356   6.614  0.0134  0.1329  0.0399
 1225ERGO    C116525   9.738  18.392   6.973 -0.2078  0.1287  0.1158
 1225ERGO    C216526   9.662  18.497   7.278  0.1908  0.3888  0.1222
 1226ERGO   ROH16527   5.290   5.428   6.317  0.1924  0.0590  0.0203
 1226ERGO    R116528   5.154   5.300   6.530  0.0462  0.1550 -0.0129
 1226ERGO    R216529   5.257   5.079   6.660 -0.1968  0.0057 -0.0619
 1226ERGO    R316530   5.219   5.233   6.882 -0.0315 -0.0007 -0.0280
 1226ERGO    R416531   5.243   4.959   6.984 -0.1012 -0.0193 -0.0670
 1226ERGO    R516532   5.080   5.099   7.024 -0.0235  0.0453  0.0213
 1226ERGO    C116533   5.198   5.034   7.380  0.1097 -0.0398 -0.0382
 1226ERGO    C216534   5.318   4.931   7.730  0.0194  0.3041  0.0744
 1227ERGO   ROH16535   5.487  17.855   6.186  0.0117  0.1588 -0.0647
 1227ERGO    R116536   5.601  17.786   6.436  0.0567  0.0555 -0.1113
 1227ERGO    R216537   5.546  17.927   6.668  0.1470  0.0016 -0.0508
 1227ERGO    R316538   5.478  17.682   6.762  0.1077 -0.0106 -0.1145
 1227ERGO    R416539   5.540  17.838   7.002  0.1174 -0.0840 -0.0753
 1227ERGO    R516540   5.625  17.645   6.947  0.0905 -0.0797 -0.1179
 1227ERGO    C116541   5.472  17.555   7.284  0.0633 -0.1456 -0.1494
 1227ERGO    C216542   5.375  17.575   7.555  0.0040 -0.4106 -0.0992
 1228ERGO   ROH16543  12.775   0.646   6.258  0.0074 -0.1585  0.0297
 1228ERGO    R116544  12.703   0.718   6.522 -0.0041 -0.0058 -0.0145
 1228ERGO    R216545  12.733   0.546   6.737 -0.1114  0.0809  0.0685
 1228ERGO    R316546  12.874   0.753   6.842 -0.0407  0.0699 -0.0023
 1228ERGO    R416547  12.788   0.595   7.074 -0.0088  0.1182  0.0470
 1228ERGO    R516548  12.756   0.809   7.043  0.0239  0.1221  0.0235
 1228ERGO    C116549  12.952   0.818   7.370  0.1173  0.1297 -0.0320
 1228ERGO    C216550  13.204   0.870   7.605 -0.0417 -0.1310  0.1876
 1229ERGO   ROH16551  15.838  13.969   6.695 -0.0294 -0.0456  0.1086
 1229ERGO    R116552  15.719  13.949   6.951 -0.0255  0.0746  0.1204
 1229ERGO    R216553  15.840  14.047   7.180  0.0258  0.0897  0.0878
 1229ERGO    R316554  15.605  14.180   7.208  0.0812  0.1939  0.0612
 1229ERGO    R416555  15.724  14.182   7.476  0.1028  0.2414  0.0498
 1229ERGO    R516556  15.524  14.113   7.423  0.0714  0.3027  0.0913
 1229ERGO    C116557  15.436  14.386   7.675  0.1995  0.4274  0.0027
 1229ERGO    C216558  15.400  14.653   7.844 -0.0734  0.0214 -0.0520
 1230ERGO   ROH16559  11.800   0.329   6.325 -0.1907 -0.2285  0.0767
 1230ERGO    R116560  11.656   0.469   6.524 -0.2918 -0.2224  0.0048
 1230ERGO    R216561  11.495   0.342   6.710 -0.1101 -0.2569  0.1637
 1230ERGO    R316562  11.648   0.478   6.888 -0.1931  0.0541 -0.0016
 1230ERGO    R416563  11.404   0.410   7.036 -0.0663 -0.0390  0.1289
 1230ERGO    R516564  11.491   0.609   7.013 -0.2687  0.0156 -0.0746
 1230ERGO    C116565  11.495   0.578   7.394 -0.1187  0.3798 -0.0466
 1230ERGO    C216566  11.316   0.489   7.560 -0.0482  0.0819  0.0023
 1231ERGO   ROH16567  10.699   7.179   6.226  0.0885 -0.1669 -0.0614
 1231ERGO    R116568  10.928   7.180   6.393  0.0578  0.0017 -0.0200
 1231ERGO    R216569  10.970   7.374   6.586 -0.1035  0.0519 -0.0369
 1231ERGO    R316570  10.994   7.159   6.750  0.0090  0.0876 -0.0048
 1231ERGO    R416571  11.132   7.376   6.891 -0.2030  0.2154  0.0166
 1231ERGO    R516572  11.214   7.180   6.844 -0.0341  0.2700  0.0646
 1231ERGO    C116573  11.249   7.175   7.224 -0.1552  0.3441  0.0779
 1231ERGO    C216574  11.328   7.226   7.580  0.0959  0.0073 -0.0762
 1232ERGO   ROH16575   1.201   6.474   6.253 -0.1038  0.0362  0.1824
 1232ERGO    R116576   1.233   6.281   6.458 -0.0114 -0.0293  0.1088
 1232ERGO    R216577   1.344   6.342   6.704  0.0159 -0.0848  0.1150
 1232ERGO    R316578   1.113   6.236   6.799  0.0612 -0.1835  0.1133
 1232ERGO    R416579   1.269   6.300   7.038  0.0150 -0.0979  0.1125
 1232ERGO    R516580   1.180   6.107   6.989  0.1067 -0.1383  0.1238
 1232ERGO    C116581   1.008   6.175   7.322  0.0570 -0.1981  0.1094
 1232ERGO    C216582   0.930   6.222   7.611 -0.0030  0.0808 -0.0017
 1233ERGO   ROH16583  16.106   2.141   5.886 -0.2164  0.0867 -0.2527
 1233ERGO    R116584  15.983   2.241   6.121 -0.0430  0.0782 -0.1563
 1233ERGO    R216585  15.802   2.094   6.268 -0.0333  0.1198 -0.0979
 1233ERGO    R316586  15.972   2.149   6.473  0.1072 -0.0174 -0.1763
 1233ERGO    R416587  15.713   2.105   6.602  0.1470  0.1419 -0.0500
 1233ERGO    R516588  15.842   2.279   6.625  0.2739  0.0515 -0.0935
 1233ERGO    C116589  15.821   2.164   6.988  0.3839  0.0259 -0.0956
 1233ERGO    C216590  15.812   2.358   7.307  0.0319 -0.1051 -0.0464
 1234ERGO   ROH16591   5.521   7.067   6.378 -0.0184  0.0090 -0.0969
 1234ERGO    R116592   5.644   7.024   6.629  0.0262  0.0163 -0.1170
 1234ERGO    R216593   5.741   7.232   6.784 -0.1423  0.0407 -0.0394
 1234ERGO    R316594   5.581   7.121   6.974 -0.0450 -0.1678 -0.0778
 1234ERGO    R416595   5.811   7.223   7.123 -0.0841 -0.1157 -0.0551
 1234ERGO    R516596   5.733   7.020   7.129  0.0401 -0.1672 -0.1607
 1234ERGO    C116597   5.701   7.113   7.498  0.0411 -0.4025 -0.1004
 1234ERGO    C216598   5.866   7.043   7.877 -0.2764  0.2679 -0.0578
 1235ERGO   ROH16599   2.674  16.724   6.627 -0.1233  0.1311 -0.0745
 1235ERGO    R116600   2.545  16.849   6.846 -0.2762 -0.1040 -0.0267
 1235ERGO    R216601   2.409  16.706   7.040  0.0341 -0.3593  0.0166
 1235ERGO    R316602   2.573  16.842   7.209 -0.1411 -0.0735 -0.0374
 1235ERGO    R416603   2.375  16.714   7.384  0.1119 -0.3756  0.0245
 1235ERGO    R516604   2.427  16.926   7.379 -0.2330 -0.2917 -0.0103
 1235ERGO    C116605   2.509  16.847   7.743 -0.0074 -0.1169 -0.0218
 1235ERGO    C216606   2.424  16.767   7.957 -0.1757  0.0447  0.1326
 1236ERGO   ROH16607  15.910  15.739   6.502  0.1573 -0.1536  0.0887
 1236ERGO    R116608  15.854  15.954   6.677  0.1795 -0.1804  0.1287
 1236ERGO    R216609  15.998  15.997   6.910  0.3562 -0.0866  0.0041
 1236ERGO    R316610  16.033  16.245   6.803  0.1161 -0.0679 -0.0373
 1236ERGO    R416611  16.095  16.277   7.088  0.2179  0.0082 -0.0674
 1236ERGO    R516612  15.952  16.394   6.972  0.0738 -0.1133 -0.0167
 1236ERGO    C116613  16.184  16.672   7.091 -0.0882  0.0812 -0.1480
 1236ERGO    C216614  16.279  16.876   7.338  0.1472 -0.3959 -0.1382
 1237ERGO   ROH16615  14.990  10.028   6.278  0.0402  0.1874 -0.1905
 1237ERGO    R116616  14.939   9.942   6.543 -0.1338  0.1540 -0.2344
 1237ERGO    R216617  15.140   9.899   6.727 -0.2291 -0.1878 -0.2067
 1237ERGO    R316618  14.994  10.071   6.879 -0.0315 -0.0473 -0.1717
 1237ERGO    R416619  15.112   9.883   7.071 -0.2213 -0.2098 -0.2065
 1237ERGO    R516620  14.901   9.933   7.052 -0.1719  0.0263 -0.1856
 1237ERGO    C116621  14.960  10.036   7.414 -0.0314 -0.0907 -0.1736
 1237ERGO    C216622  15.120   9.985   7.731 -0.0176  0.1620 -0.0604
 1238ERGO   ROH16623   4.841  15.301   6.718  0.0937 -0.3725  0.0419
 1238ERGO    R116624   4.717  15.367   6.964  0.2600  0.0919  0.0099
 1238ERGO    R216625   4.586  15.180   7.120 -0.2925  0.5202  0.0877
 1238ERGO    R316626   4.755  15.270   7.313 -0.0323  0.1284  0.0543
 1238ERGO    R416627   4.549  15.122   7.458 -0.3497  0.5807  0.0923
 1238ERGO    R516628   4.612  15.327   7.496  0.1306  0.4473  0.0915
 1238ERGO    C116629   4.686  15.172   7.836 -0.1387  0.2482  0.0635
 1238ERGO    C216630   4.559  15.146   8.043 -0.0432 -0.0248  0.0679
 1239ERGO   ROH16631  12.033  18.090   6.581  0.1562  0.0342  0.0306
 1239ERGO    R116632  11.929  18.260   6.782  0.0610 -0.0417  0.0481
 1239ERGO    R216633  11.762  18.169   6.982  0.0438 -0.1394 -0.0021
 1239ERGO    R316634  11.948  18.283   7.145 -0.0199 -0.1203  0.0558
 1239ERGO    R416635  11.709  18.255   7.313 -0.1071  0.0000 -0.0620
 1239ERGO    R516636  11.823  18.437   7.278 -0.0509 -0.0433 -0.0686
 1239ERGO    C116637  11.852  18.411   7.658 -0.2548  0.0991 -0.0425
 1239ERGO    C216638  11.638  18.392   7.930  0.0798  0.1207 -0.0213
 1240ERGO   ROH16639   1.055   4.159   5.898  0.1061  0.1009  0.1174
 1240ERGO    R116640   1.011   4.316   6.130 -0.0907  0.0311  0.1299
 1240ERGO    R216641   0.855   4.229   6.341 -0.0569 -0.1453  0.0900
 1240ERGO    R316642   1.077   4.286   6.486 -0.1352  0.0442  0.1378
 1240ERGO    R416643   0.874   4.215   6.685 -0.0990 -0.1596  0.0914
 1240ERGO    R516644   0.994   4.397   6.681 -0.2670 -0.0525  0.1329
 1240ERGO    C116645   1.093   4.260   7.023 -0.1969  0.0099  0.1371
 1240ERGO    C216646   1.018   4.183   7.280 -0.2857  0.1579  0.2588
 1241ERGO   ROH16647   3.272  11.961   6.392 -0.0230  0.1285 -0.1395
 1241ERGO    R116648   3.168  11.947   6.655 -0.0226  0.0949 -0.1410
 1241ERGO    R216649   3.312  11.843   6.866 -0.0402  0.0220 -0.1636
 1241ERGO    R316650   3.255  12.082   6.982  0.0092  0.0102 -0.1145
 1241ERGO    R416651   3.206  11.884   7.193 -0.3568 -0.0524 -0.2537
 1241ERGO    R516652   3.067  12.036   7.123 -0.1747  0.0795 -0.3333
 1241ERGO    C116653   3.091  12.132   7.491 -0.4947 -0.1068 -0.2601
 1241ERGO    C216654   3.159  11.906   7.772  0.0218 -0.0440 -0.0126
 1242ERGO   ROH16655  11.668   4.871   6.287  0.0329  0.2240 -0.0180
 1242ERGO    R116656  11.686   5.020   6.527  0.1581  0.1719  0.0057
 1242ERGO    R216657  11.700   4.901   6.776  0.0261  0.1197 -0.0120
 1242ERGO    R316658  11.923   5.054   6.801  0.1723 -0.0957  0.0291
 1242ERGO    R416659  11.886   4.932   7.065 -0.1872  0.1906  0.1199
 1242ERGO    R516660  11.908   5.145   7.022  0.0778  0.1308 -0.0667
 1242ERGO    C116661  12.204   5.094   7.257 -0.1743  0.0297  0.2352
 1242ERGO    C216662  12.346   5.003   7.651  0.1812  0.2673 -0.0349
 1243ERGO   ROH16663  15.200   6.076   6.067  0.1473  0.0134 -0.1657
 1243ERGO    R116664  15.374   5.960   6.257 -0.0956 -0.0863 -0.0006
 1243ERGO    R216665  15.595   6.093   6.356  0.1169 -0.3615 -0.1051
 1243ERGO    R316666  15.482   6.035   6.597 -0.0387  0.1004 -0.0574
 1243ERGO    R416667  15.765   6.086   6.658  0.0741 -0.4046 -0.0812
 1243ERGO    R516668  15.650   5.909   6.713 -0.2974 -0.1313  0.0834
 1243ERGO    C116669  15.757   6.029   7.059 -0.0969  0.0039 -0.0225
 1243ERGO    C216670  15.943   6.183   7.328 -0.2387  0.0955  0.2907
 1244ERGO   ROH16671  11.068   1.914   6.294 -0.1733  0.1314 -0.0378
 1244ERGO    R116672  11.023   1.887   6.572 -0.0737  0.0510 -0.0291
 1244ERGO    R216673  11.217   1.942   6.760 -0.0600  0.1646 -0.0769
 1244ERGO    R316674  11.026   2.106   6.863 -0.1539  0.0056  0.0066
 1244ERGO    R416675  11.189   2.027   7.094  0.1103  0.2584 -0.0852
 1244ERGO    R516676  10.972   2.008   7.075  0.1105  0.0257  0.0872
 1244ERGO    C116677  10.993   2.231   7.385  0.1215  0.1637 -0.0116
 1244ERGO    C216678  11.189   2.473   7.515  0.1448 -0.0088  0.0618
 1245ERGO   ROH16679  16.058  16.176   6.244 -0.0903 -0.1593  0.1973
 1245ERGO    R116680  16.168  16.418   6.341  0.0468 -0.1712  0.0775
 1245ERGO    R216681  16.020  16.650   6.363  0.1707 -0.0773 -0.0185
 1245ERGO    R316682  16.107  16.643   6.621  0.1843 -0.0098 -0.0219
 1245ERGO    R416683  16.022  16.921   6.578 -0.0261 -0.0786 -0.0150
 1245ERGO    R516684  16.216  16.854   6.652  0.0241  0.0707 -0.0221
 1245ERGO    C116685  16.104  17.072   6.945 -0.1278 -0.0158 -0.0162
 1245ERGO    C216686  15.916  17.300   7.225  0.1746  0.3710  0.0644
 1246ERGO   ROH16687  12.773  12.057   6.466 -0.0947 -0.0141  0.0267
 1246ERGO    R116688  12.645  12.050   6.719  0.0378 -0.0455  0.0941
 1246ERGO    R216689  12.781  11.991   6.953  0.1902  0.0572  0.0356
 1246ERGO    R316690  12.675  12.228   7.035  0.1091  0.0150  0.0532
 1246ERGO    R416691  12.783  12.106   7.279  0.0302 -0.0230  0.0657
 1246ERGO    R516692  12.580  12.179   7.249  0.0294 -0.0565  0.0006
 1246ERGO    C116693  12.685  12.394   7.546 -0.1390 -0.1094  0.0998
 1246ERGO    C216694  12.842  12.456   7.853  0.0444 -0.2148  0.1437
 1247ERGO   ROH16695   9.557  11.377   6.904 -0.0125  0.1260  0.1491
 1247ERGO    R116696   9.613  11.186   7.106 -0.0501  0.0428  0.0823
 1247ERGO    R216697   9.658  11.257   7.368  0.0318 -0.0530  0.0962
 1247ERGO    R316698   9.460  11.078   7.418 -0.0327  0.0146  0.0807
 1247ERGO    R416699   9.574  11.139   7.682 -0.0425 -0.0119  0.0913
 1247ERGO    R516700   9.547  10.941   7.594 -0.0979 -0.0066  0.0964
 1247ERGO    C116701   9.338  10.902   7.911 -0.1463  0.0755  0.0739
 1247ERGO    C216702   9.243  10.968   8.297 -0.0237 -0.0524  0.2771
 1248ERGO   ROH16703   6.180   4.733   6.512  0.1682 -0.2783 -0.0574
 1248ERGO    R116704   6.286   4.748   6.774  0.1566 -0.1276 -0.0603
 1248ERGO    R216705   6.141   4.674   6.997  0.1430  0.0109 -0.0229
 1248ERGO    R316706   6.356   4.514   7.045  0.1340  0.0289  0.0822
 1248ERGO    R416707   6.225   4.545   7.306  0.0406  0.0704  0.0306
 1248ERGO    R516708   6.435   4.585   7.260  0.0553  0.0713  0.0975
 1248ERGO    C116709   6.476   4.320   7.531 -0.0275  0.1220  0.1606
 1248ERGO    C216710   6.555   4.137   7.891  0.0132 -0.1145 -0.0352
 1249ERGO   ROH16711  16.018  14.976   6.633 -0.1854  0.1716  0.1105
 1249ERGO    R116712  16.132  15.060   6.878 -0.0366  0.0034  0.1029
 1249ERGO    R216713  16.046  14.965   7.123 -0.0298 -0.0175  0.1067
 1249ERGO    R316714  16.308  14.903   7.155 -0.0625 -0.2317 -0.0130
 1249ERGO    R416715  16.187  14.844   7.414  0.0304 -0.0158  0.0757
 1249ERGO    R516716  16.360  14.971   7.378  0.1223 -0.1814 -0.0722
 1249ERGO    C116717  16.515  14.715   7.613  0.0349 -0.2160 -0.0546
 1249ERGO    C216718  16.506  14.677   7.934  0.0587  0.0726 -0.1573
 1250ERGO   ROH16719  15.210  14.310   6.490 -0.0892  0.0746 -0.0507
 1250ERGO    R116720  15.285  14.294   6.763  0.0116  0.1138 -0.0755
 1250ERGO    R216721  15.341  14.517   6.915 -0.0555  0.1442 -0.0951
 1250ERGO    R316722  15.152  14.413   7.080  0.0553  0.0435 -0.0307
 1250ERGO    R416723  15.235  14.661   7.211 -0.1121  0.1465 -0.1165
 1250ERGO    R516724  15.231  14.463   7.301  0.0582  0.1672 -0.0591
 1250ERGO    C116725  14.996  14.647   7.538 -0.0411  0.0534 -0.0685
 1250ERGO    C216726  14.906  14.866   7.783 -0.1787 -0.0509  0.2298
 1251ERGO   ROH16727   9.083   7.520   6.204  0.1302 -0.1536  0.1745
 1251ERGO    R116728   8.856   7.571   6.366  0.0653 -0.0134  0.0389
 1251ERGO    R216729   8.824   7.460   6.617 -0.1605 -0.0073  0.0055
 1251ERGO    R316730   8.791   7.720   6.692 -0.0414  0.0082  0.0113
 1251ERGO    R416731   8.638   7.566   6.888 -0.1338  0.0567  0.0006
 1251ERGO    R516732   8.564   7.732   6.767 -0.0497  0.1035 -0.0048
 1251ERGO    C116733   8.499   7.870   7.116 -0.0063  0.1085  0.0032
 1251ERGO    C216734   8.522   7.788   7.426 -0.0380 -0.0061  0.2592
 1252ERGO   ROH16735  12.248   2.475   6.169  0.0157 -0.0423  0.1234
 1252ERGO    R116736  12.072   2.468   6.391 -0.1270  0.1976  0.0227
 1252ERGO    R216737  12.154   2.391   6.643 -0.4493 -0.2756  0.0001
 1252ERGO    R316738  12.050   2.631   6.715  0.1417 -0.0514  0.1699
 1252ERGO    R416739  12.034   2.468   6.958 -0.4828 -0.2765 -0.0127
 1252ERGO    R516740  11.870   2.576   6.863 -0.1294  0.2744 -0.0288
 1252ERGO    C116741  11.866   2.739   7.208  0.0524 -0.0666  0.1393
 1252ERGO    C216742  12.002   2.727   7.638  0.0111 -0.0824  0.0455
 1253ERGO   ROH16743   5.344  11.819   6.724 -0.0250 -0.1779  0.0922
 1253ERGO    R116744   5.402  11.812   7.001  0.1850 -0.0530  0.0528
 1253ERGO    R216745   5.516  12.026   7.134 -0.0628  0.1497 -0.0608
 1253ERGO    R316746   5.300  11.999   7.296  0.0930 -0.1804  0.1041
 1253ERGO    R416747   5.481  12.178   7.442 -0.1829  0.3666 -0.1784
 1253ERGO    R516748   5.392  11.993   7.518  0.2653  0.2247  0.0552
 1253ERGO    C116749   5.257  12.241   7.774 -0.1066  0.1830 -0.0921
 1253ERGO    C216750   5.399  12.525   8.012 -0.0389  0.1378  0.2424
 1254ERGO   ROH16751   7.011   5.410   5.892  0.0261 -0.1524  0.0185
 1254ERGO    R116752   6.938   5.385   6.164  0.1023 -0.0111  0.0529
 1254ERGO    R216753   7.029   5.179   6.324 -0.0170 -0.0448  0.0795
 1254ERGO    R316754   7.111   5.382   6.485  0.2170 -0.0668 -0.0092
 1254ERGO    R416755   7.022   5.173   6.670 -0.0952  0.1411  0.0820
 1254ERGO    R516756   6.956   5.381   6.667  0.1756  0.2297 -0.0379
 1254ERGO    C116757   7.096   5.361   7.022  0.0789  0.2286  0.0002
 1254ERGO    C216758   7.187   5.357   7.323 -0.2137  0.2548 -0.1811
 1255ERGO   ROH16759   3.169   9.284   6.668 -0.1070  0.0129 -0.1284
 1255ERGO    R116760   3.194   9.383   6.932 -0.0295  0.0299 -0.1418
 1255ERGO    R216761   3.013   9.322   7.131  0.0187  0.0579 -0.0891
 1255ERGO    R316762   3.236   9.242   7.265  0.0482  0.0508 -0.1427
 1255ERGO    R416763   3.068   9.368   7.469  0.1756  0.2096 -0.1342
 1255ERGO    R516764   3.276   9.417   7.424  0.1733  0.1181 -0.2460
 1255ERGO    C116765   3.310   9.320   7.791  0.2947  0.2912 -0.2107
 1255ERGO    C216766   3.434   9.346   8.119  0.1217  0.0816  0.0501
 1256ERGO   ROH16767   1.889   7.133   6.674  0.0571 -0.1699 -0.0526
 1256ERGO    R116768   2.030   7.112   6.919  0.1416 -0.1128 -0.0968
 1256ERGO    R216769   1.920   6.995   7.144  0.1845  0.0302 -0.0067
 1256ERGO    R316770   2.145   6.843   7.135  0.1255 -0.0584 -0.0174
 1256ERGO    R416771   2.052   6.819   7.411  0.1844  0.0787  0.0262
 1256ERGO    R516772   2.251   6.879   7.347  0.1952 -0.0169 -0.0535
 1256ERGO    C116773   2.339   6.573   7.557  0.1290  0.0239  0.0353
 1256ERGO    C216774   2.545   6.388   7.634 -0.2052  0.2935 -0.1699
 1257ERGO   ROH16775   3.610   1.506   6.530  0.1912  0.1547 -0.0988
 1257ERGO    R116776   3.544   1.401   6.785  0.0415  0.1188 -0.1503
 1257ERGO    R216777   3.732   1.286   6.952 -0.1065 -0.1876 -0.1792
 1257ERGO    R316778   3.636   1.467   7.130  0.0970 -0.1459 -0.1134
 1257ERGO    R416779   3.730   1.243   7.295 -0.1430 -0.3010 -0.1944
 1257ERGO    R516780   3.532   1.334   7.300 -0.0414 -0.0882 -0.1567
 1257ERGO    C116781   3.639   1.388   7.662  0.0268 -0.3278 -0.1415
 1257ERGO    C216782   3.714   1.153   7.921  0.1442  0.0927 -0.0893
 1258ERGO   ROH16783   8.123   5.574   6.176 -0.0150 -0.0974 -0.1200
 1258ERGO    R116784   7.983   5.413   6.362 -0.0729 -0.0194 -0.0948
 1258ERGO    R216785   8.091   5.184   6.472 -0.1995 -0.1107 -0.1507
 1258ERGO    R316786   8.030   5.307   6.707 -0.0418 -0.0880 -0.1209
 1258ERGO    R416787   8.148   5.051   6.786 -0.0701 -0.1134 -0.1753
 1258ERGO    R516788   7.955   5.129   6.849 -0.0136 -0.0605 -0.0753
 1258ERGO    C116789   8.123   5.089   7.189  0.1532 -0.0937 -0.1615
 1258ERGO    C216790   8.240   5.304   7.541 -0.0755  0.0740  0.4710
 1259ERGO   ROH16791  12.397   8.169   6.217  0.1980 -0.1308 -0.1047
 1259ERGO    R116792  12.599   8.262   6.392  0.1284 -0.1961  0.0112
 1259ERGO    R216793  12.559   8.470   6.568  0.1027 -0.1657 -0.0333
 1259ERGO    R316794  12.646   8.289   6.752 -0.0798 -0.1827  0.0390
 1259ERGO    R416795  12.720   8.550   6.864  0.1446 -0.2055 -0.0448
 1259ERGO    R516796  12.853   8.380   6.831 -0.0035 -0.3398  0.0276
 1259ERGO    C116797  12.895   8.427   7.208 -0.0023 -0.2447  0.0164
 1259ERGO    C216798  12.961   8.761   7.459 -0.0507  0.0060 -0.0419
 1260ERGO   ROH16799   9.626  13.442   6.630  0.0108  0.1524 -0.0757
 1260ERGO    R116800   9.504  13.360   6.871  0.0687 -0.0098 -0.1008
 1260ERGO    R216801   9.649  13.284   7.094  0.1221  0.0180 -0.1286
 1260ERGO    R316802   9.498  13.474   7.217 -0.0076 -0.1254 -0.0629
 1260ERGO    R416803   9.624  13.326   7.436  0.4581  0.1674 -0.1179
 1260ERGO    R516804   9.411  13.363   7.411  0.3679 -0.1473  0.1020
 1260ERGO    C116805   9.468  13.527   7.751  0.5321  0.1198 -0.0500
 1260ERGO    C216806   9.399  13.708   8.074  0.0305 -0.0230 -0.0663
 1261ERGO   ROH16807  16.400   7.536   6.185 -0.0316  0.0505 -0.1035
 1261ERGO    R116808  16.309   7.621   6.439  0.1207 -0.0237 -0.0251
 1261ERGO    R216809  16.068   7.540   6.546 -0.0107  0.2866 -0.0986
 1261ERGO    R316810  16.223   7.463   6.755 -0.1357 -0.1641 -0.1585
 1261ERGO    R416811  15.947   7.442   6.854 -0.2018  0.6373 -0.0558
 1261ERGO    R516812  16.110   7.552   6.947  0.1763  0.1808 -0.1151
 1261ERGO    C116813  16.021   7.312   7.231 -0.4303  0.4184 -0.0872
 1261ERGO    C216814  15.974   7.081   7.492 -0.0932 -0.0486  0.0829
 1262ERGO   ROH16815   1.508  14.653   6.531  0.0939 -0.2617  0.1005
 1262ERGO    R116816   1.407  14.753   6.775  0.0606 -0.1695  0.0500
 1262ERGO    R216817   1.242  14.604   6.940  0.0684 -0.1241  0.1048
 1262ERGO    R316818   1.429  14.663   7.128  0.0490 -0.0144  0.0894
 1262ERGO    R416819   1.173  14.675   7.271  0.0661 -0.1829  0.1170
 1262ERGO    R516820   1.325  14.831   7.264 -0.0373 -0.0892  0.1097
 1262ERGO    C116821   1.308  14.771   7.640  0.0466 -0.1140  0.1095
 1262ERGO    C216822   1.334  14.874   8.036  0.4461  0.2261 -0.1237
 1263ERGO   ROH16823   8.127   2.772   6.103 -0.0075  0.0826  0.0424
 1263ERGO    R116824   8.035   2.699   6.360  0.1230  0.1038  0.0966
 1263ERGO    R216825   8.194   2.714   6.585  0.1449  0.4218  0.0672
 1263ERGO    R316826   7.989   2.864   6.681 -0.0288  0.2226  0.0154
 1263ERGO    R416827   8.123   2.759   6.920 -0.0256  0.3002  0.0479
 1263ERGO    R516828   7.911   2.743   6.872  0.0059  0.1185 -0.0364
 1263ERGO    C116829   7.889   2.926   7.206 -0.2879  0.0424 -0.0119
 1263ERGO    C216830   7.995   3.128   7.514  0.0093 -0.0276  0.2247
 1264ERGO   ROH16831   3.281  15.652   6.659  0.2839 -0.1252 -0.1718
 1264ERGO    R116832   3.469  15.646   6.870  0.1122 -0.0494 -0.0149
 1264ERGO    R216833   3.691  15.810   6.876  0.1860 -0.1540  0.0303
 1264ERGO    R316834   3.593  15.880   7.120  0.0252  0.0893 -0.0991
 1264ERGO    R416835   3.883  15.924   7.140  0.0547 -0.1634  0.1312
 1264ERGO    R516836   3.760  15.804   7.274 -0.1797  0.0310  0.1008
 1264ERGO    C116837   3.903  16.055   7.523 -0.1728  0.0599  0.0686
 1264ERGO    C216838   4.069  16.156   7.787  0.0935 -0.1456  0.0033
 1265ERGO   ROH16839   3.152   1.481   6.465 -0.2105 -0.2587 -0.1505
 1265ERGO    R116840   3.040   1.428   6.720 -0.0185 -0.5418 -0.1206
 1265ERGO    R216841   3.130   1.223   6.884  0.6360 -0.2465 -0.0852
 1265ERGO    R316842   3.157   1.424   7.064  0.0597 -0.1046 -0.1366
 1265ERGO    R416843   3.137   1.182   7.227  0.7897 -0.1465 -0.0748
 1265ERGO    R516844   3.016   1.361   7.246  0.2504 -0.4859 -0.1095
 1265ERGO    C116845   3.167   1.347   7.596  0.3381  0.0449 -0.1172
 1265ERGO    C216846   3.154   1.215   8.002  0.2301  0.2976  0.1318
 1266ERGO   ROH16847   7.469   1.900   6.432 -0.4017  0.1280  0.0011
 1266ERGO    R116848   7.461   1.898   6.715 -0.3685 -0.0428  0.0015
 1266ERGO    R216849   7.453   1.664   6.862 -0.0034 -0.1415 -0.1287
 1266ERGO    R316850   7.671   1.771   6.985 -0.1468  0.1157 -0.0916
 1266ERGO    R416851   7.551   1.595   7.186  0.0009 -0.0128 -0.1025
 1266ERGO    R516852   7.601   1.806   7.211 -0.2407  0.0524 -0.1067
 1266ERGO    C116853   7.813   1.656   7.490 -0.1311  0.3037 -0.0524
 1266ERGO    C216854   7.925   1.741   7.794  0.0470  0.0083  0.0725
 1267ERGO   ROH16855   7.354  14.203   6.474 -0.1025 -0.0639  0.0070
 1267ERGO    R116856   7.361  14.308   6.737 -0.0770  0.0238 -0.0286
 1267ERGO    R216857   7.378  14.579   6.788 -0.1472  0.0452 -0.1208
 1267ERGO    R316858   7.157  14.532   6.938 -0.1004  0.0281 -0.0563
 1267ERGO    R416859   7.332  14.690   7.112 -0.0539  0.0332 -0.1031
 1267ERGO    R516860   7.241  14.498   7.160 -0.0301  0.0252 -0.0820
 1267ERGO    C116861   7.097  14.711   7.442  0.0444  0.0103 -0.0322
 1267ERGO    C216862   6.871  14.784   7.717 -0.2682  0.0531 -0.1895
 1268ERGO   ROH16863  12.788   1.852   6.232 -0.1251  0.1486  0.0445
 1268ERGO    R116864  12.861   1.672   6.438 -0.0267 -0.0334 -0.1450
 1268ERGO    R216865  13.117   1.569   6.462  0.0790  0.2157 -0.1591
 1268ERGO    R316866  13.099   1.670   6.714 -0.1521 -0.1157 -0.0371
 1268ERGO    R416867  13.354   1.526   6.709  0.1280  0.3697 -0.1781
 1268ERGO    R516868  13.193   1.498   6.853  0.1521 -0.1104 -0.2292
 1268ERGO    C116869  13.476   1.595   7.090 -0.0606  0.1483 -0.0746
 1268ERGO    C216870  13.767   1.599   7.323  0.1322 -0.0120  0.1194
 1269ERGO   ROH16871  17.320  13.583   6.600 -0.2957  0.1354 -0.1267
 1269ERGO    R116872  17.277  13.703   6.853 -0.0789  0.0401 -0.0430
 1269ERGO    R216873  17.144  13.574   7.058 -0.0763  0.0389 -0.0473
 1269ERGO    R316874  17.369  13.633   7.198  0.0376 -0.2063 -0.1206
 1269ERGO    R416875  17.164  13.585   7.403 -0.0019  0.1751 -0.0546
 1269ERGO    R516876  17.291  13.762   7.384  0.2461 -0.0032 -0.1649
 1269ERGO    C116877  17.387  13.647   7.735  0.1483  0.0243 -0.1277
 1269ERGO    C216878  17.521  13.567   8.020 -0.1871  0.2154 -0.0487
 1270ERGO   ROH16879  17.193   1.529   6.283 -0.0542 -0.2248  0.0192
 1270ERGO    R116880  17.308   1.590   6.534  0.0349 -0.3478  0.0098
 1270ERGO    R216881  17.249   1.822   6.672  0.4040 -0.2081 -0.0512
 1270ERGO    R316882  17.188   1.649   6.872  0.1063 -0.0646 -0.0114
 1270ERGO    R416883  17.253   1.899   7.009  0.3622 -0.0937 -0.0765
 1270ERGO    R516884  17.341   1.704   7.048  0.1054 -0.1922  0.0295
 1270ERGO    C116885  17.198   1.780   7.393  0.0583  0.1077 -0.0537
 1270ERGO    C216886  17.276   1.799   7.720 -0.0553 -0.2576  0.2366
 1271ERGO   ROH16887  13.070   6.303   6.355  0.1176  0.2524  0.0896
 1271ERGO    R116888  12.988   6.287   6.625  0.0487  0.2109  0.0660
 1271ERGO    R216889  13.100   6.443   6.824  0.0143  0.1614  0.1201
 1271ERGO    R316890  12.841   6.512   6.871  0.0098  0.1795  0.0731
 1271ERGO    R416891  12.968   6.519   7.134 -0.1148 -0.1830  0.1542
 1271ERGO    R516892  12.788   6.408   7.080 -0.1239 -0.0678 -0.0753
 1271ERGO    C116893  12.648   6.627   7.359 -0.1940 -0.3666  0.1299
 1271ERGO    C216894  12.575   6.803   7.640 -0.1320 -0.1647  0.0464
 1272ERGO   ROH16895   1.886  14.631   6.329  0.1381 -0.3012  0.0335
 1272ERGO    R116896   1.923  14.481   6.566  0.0990 -0.1588  0.1316
 1272ERGO    R216897   2.020  14.593   6.800  0.0387 -0.0119  0.0898
 1272ERGO    R316898   1.793  14.487   6.906  0.0233  0.0323  0.0997
 1272ERGO    R416899   1.947  14.579   7.137  0.0449  0.0076  0.0916
 1272ERGO    R516900   1.865  14.379   7.107  0.0079  0.0237  0.0989
 1272ERGO    C116901   1.692  14.472   7.434  0.0342  0.0605  0.1019
 1272ERGO    C216902   1.654  14.410   7.740 -0.0651  0.0410 -0.3320
 1273ERGO   ROH16903   5.499  15.434   6.514  0.0888  0.0664  0.0200
 1273ERGO    R116904   5.438  15.522   6.776  0.0839  0.0190  0.0357
 1273ERGO    R216905   5.224  15.423   6.921  0.1012 -0.0338  0.0310
 1273ERGO    R316906   5.415  15.373   7.107  0.1156 -0.0338  0.0130
 1273ERGO    R416907   5.166  15.391   7.260  0.0853 -0.3227  0.0022
 1273ERGO    R516908   5.349  15.503   7.297  0.0017 -0.2193  0.1019
 1273ERGO    C116909   5.312  15.325   7.632  0.0896 -0.4910 -0.0313
 1273ERGO    C216910   5.162  15.398   7.991  0.1940 -0.0636  0.1811
 1274ERGO   ROH16911   6.031   7.130   6.455 -0.0616  0.1443 -0.0862
 1274ERGO    R116912   6.206   7.263   6.633 -0.0161  0.0198 -0.0374
 1274ERGO    R216913   6.176   7.529   6.700  0.1752  0.0521 -0.0745
 1274ERGO    R316914   6.178   7.432   6.954  0.0065  0.0733 -0.0636
 1274ERGO    R416915   6.189   7.723   6.986  0.0344  0.0730 -0.0815
 1274ERGO    R516916   6.327   7.578   7.073 -0.0411  0.0584  0.0142
 1274ERGO    C116917   6.198   7.745   7.391 -0.2062  0.1050 -0.0754
 1274ERGO    C216918   6.070   7.931   7.686  0.0272  0.2072  0.0155
 1275ERGO   ROH16919   2.587  10.564   6.573  0.0554  0.0981  0.0196
 1275ERGO    R116920   2.490  10.533   6.837  0.0849  0.0336  0.0223
 1275ERGO    R216921   2.655  10.472   7.050  0.1431  0.2081  0.0257
 1275ERGO    R316922   2.543  10.695   7.159 -0.0647  0.1156  0.0072
 1275ERGO    R416923   2.606  10.523   7.389  0.1281  0.2040  0.0248
 1275ERGO    R516924   2.412  10.611   7.342  0.0333  0.0097  0.0316
 1275ERGO    C116925   2.473  10.761   7.688 -0.0757  0.1149  0.0069
 1275ERGO    C216926   2.284  10.858   7.959  0.2919 -0.2229  0.1894
 1276ERGO   ROH16927  12.986  15.311   6.474  0.3004 -0.0196  0.1028
 1276ERGO    R116928  12.816  15.410   6.678  0.1186 -0.0215 -0.0431
 1276ERGO    R216929  12.562  15.310   6.723  0.1584 -0.1797 -0.1219
 1276ERGO    R316930  12.655  15.276   6.976  0.0572  0.0296 -0.0561
 1276ERGO    R416931  12.365  15.237   6.997  0.1008 -0.3026 -0.1960
 1276ERGO    R516932  12.486  15.375   7.114 -0.1297 -0.1166 -0.1847
 1276ERGO    C116933  12.336  15.163   7.394 -0.0278 -0.1777 -0.1773
 1276ERGO    C216934  12.207  15.057   7.666 -0.0949 -0.2595  0.0140
 1277ERGO   ROH16935   8.151   9.009   6.222  0.2316  0.1611  0.1327
 1277ERGO    R116936   8.191   8.885   6.473  0.3736  0.0984  0.0784
 1277ERGO    R216937   8.376   8.976   6.656 -0.0026  0.4820  0.2751
 1277ERGO    R316938   8.161   8.979   6.823 -0.1530 -0.2039  0.1276
 1277ERGO    R416939   8.388   8.901   6.993  0.0741  0.7373  0.3320
 1277ERGO    R516940   8.199   8.794   6.971  0.4548  0.0013  0.2671
 1277ERGO    C116941   8.194   8.860   7.347 -0.0223  0.2420  0.2266
 1277ERGO    C216942   8.122   8.875   7.619 -0.0741  0.3415  0.1860
 1278ERGO   ROH16943  14.432  17.655   6.744 -0.1322 -0.2315  0.0513
 1278ERGO    R116944  14.528  17.611   7.007  0.0371  0.0456  0.0401
 1278ERGO    R216945  14.633  17.814   7.163 -0.1876  0.2863 -0.1085
 1278ERGO    R316946  14.446  17.729   7.341 -0.0022  0.1108  0.0065
 1278ERGO    R416947  14.626  17.897   7.498  0.0011  0.1749 -0.0762
 1278ERGO    R516948  14.568  17.693   7.543  0.1674  0.1260 -0.0944
 1278ERGO    C116949  14.447  17.866   7.860  0.2849 -0.0544  0.0506
 1278ERGO    C216950  14.492  18.070   8.154  0.0325  0.1503  0.2920
 1279ERGO   ROH16951   6.902   8.587   6.192  0.0655  0.3437  0.0504
 1279ERGO    R116952   6.778   8.634   6.442  0.0313  0.3182  0.0373
 1279ERGO    R216953   6.761   8.440   6.638 -0.0055  0.2981  0.0074
 1279ERGO    R316954   6.878   8.632   6.792 -0.0233  0.2724  0.0546
 1279ERGO    R416955   6.735   8.460   6.982 -0.1606  0.3026 -0.0033
 1279ERGO    R516956   6.717   8.677   6.963 -0.0968  0.3138 -0.0178
 1279ERGO    C116957   6.830   8.651   7.327 -0.2676  0.2811  0.0347
 1279ERGO    C216958   6.765   8.503   7.606 -0.3881 -0.1693  0.1410
 1280ERGO   ROH16959   3.975   9.998   6.509  0.1727 -0.2074  0.0774
 1280ERGO    R116960   3.939  10.135   6.754  0.2038 -0.1433  0.0471
 1280ERGO    R216961   3.725  10.086   6.922  0.1039  0.0568 -0.0158
 1280ERGO    R316962   3.920  10.046   7.107  0.0107 -0.0821  0.0528
 1280ERGO    R416963   3.686  10.132   7.262  0.0896  0.3517 -0.0551
 1280ERGO    R516964   3.885  10.220   7.268  0.2131  0.0826 -0.0776
 1280ERGO    C116965   3.847  10.121   7.634 -0.0061  0.3929 -0.0135
 1280ERGO    C216966   3.663  10.141   7.964 -0.3680 -0.2534 -0.3709
 1281ERGO   ROH16967   8.293  15.731   6.076 -0.2010  0.0242  0.1063
 1281ERGO    R116968   8.139  15.636   6.293 -0.1516 -0.1320  0.0741
 1281ERGO    R216969   8.136  15.370   6.368  0.0903 -0.1400  0.0647
 1281ERGO    R316970   8.204  15.471   6.611 -0.0521 -0.0808  0.0802
 1281ERGO    R416971   8.112  15.198   6.667  0.1014 -0.1347  0.0685
 1281ERGO    R516972   8.039  15.382   6.760 -0.0442 -0.1739  0.0329
 1281ERGO    C116973   8.160  15.194   7.069 -0.0258 -0.0760  0.0853
 1281ERGO    C216974   8.157  15.179   7.559  0.1168  0.0932  0.0932
 1282ERGO   ROH16975   6.710  13.600   6.654 -0.1473  0.3437  0.0446
 1282ERGO    R116976   6.749  13.690   6.919  0.0732  0.2753  0.0360
 1282ERGO    R216977   6.696  13.532   7.139 -0.0806  0.3403  0.0404
 1282ERGO    R316978   6.953  13.592   7.204  0.0325 -0.0322 -0.0350
 1282ERGO    R416979   6.827  13.517   7.459 -0.0978  0.4196  0.0519
 1282ERGO    R516980   6.936  13.702   7.417  0.2202  0.2052 -0.1331
 1282ERGO    C116981   7.144  13.565   7.706 -0.0017  0.1159 -0.0122
 1282ERGO    C216982   7.036  13.592   8.000 -0.0539 -0.2366 -0.0922
 1283ERGO   ROH16983   2.700   0.357   6.395  0.2450 -0.0438  0.0118
 1283ERGO    R116984   2.645   0.347   6.672  0.0805 -0.1517 -0.0247
 1283ERGO    R216985   2.693   0.123   6.826  0.3525 -0.0812 -0.0181
 1283ERGO    R316986   2.835   0.297   6.978 -0.0309  0.1451  0.1008
 1283ERGO    R416987   2.724   0.105   7.170  0.4069 -0.2871 -0.0312
 1283ERGO    R516988   2.705   0.322   7.178 -0.0962 -0.3121  0.1361
 1283ERGO    C116989   2.877   0.258   7.513  0.0786 -0.1947  0.0729
 1283ERGO    C216990   2.948   0.265   7.844 -0.3574  0.0899 -0.0996
 1284ERGO   ROH16991  14.587  15.429   6.678  0.0303  0.1028  0.1192
 1284ERGO    R116992  14.365  15.442   6.853  0.0365  0.1430  0.1248
 1284ERGO    R216993  14.127  15.567   6.784 -0.0063  0.0354  0.0646
 1284ERGO    R316994  14.020  15.327   6.853  0.0704  0.0428  0.2113
 1284ERGO    R416995  13.823  15.523   6.941 -0.0659  0.0223 -0.0549
 1284ERGO    R516996  13.912  15.367   7.062 -0.0556  0.1667  0.1219
 1284ERGO    C116997  13.544  15.272   7.097 -0.0286  0.0216  0.0132
 1284ERGO    C216998  13.190  15.278   7.061 -0.0118  0.0763  0.1616
 1285ERGO   ROH16999   4.749  13.273   6.280 -0.1238  0.1870 -0.0079
 1285ERGO    R117000   4.859  13.214   6.535 -0.1134  0.0329 -0.0469
 1285ERGO    R217001   5.125  13.257   6.595 -0.0811 -0.1275 -0.0716
 1285ERGO    R317002   5.022  13.401   6.801  0.0249 -0.1523 -0.0002
 1285ERGO    R417003   5.311  13.440   6.822  0.0142  0.1792 -0.3884
 1285ERGO    R517004   5.179  13.371   6.979  0.2920  0.0985 -0.1841
 1285ERGO    C117005   5.323  13.682   7.147  0.1690  0.3345 -0.5059
 1285ERGO    C217006   5.196  13.948   7.429  0.4113 -0.1747  0.1391
 1286ERGO   ROH17007   4.653   6.222   6.809  0.2569 -0.2277 -0.0948
 1286ERGO    R117008   4.563   6.128   7.060  0.1708 -0.1422 -0.0927
 1286ERGO    R217009   4.488   5.865   7.102  0.1154 -0.1189 -0.0389
 1286ERGO    R317010   4.671   5.880   7.303  0.0621 -0.0920  0.0075
 1286ERGO    R417011   4.515   5.638   7.361  0.0974 -0.1262 -0.0437
 1286ERGO    R517012   4.552   5.804   7.497  0.0294 -0.1261 -0.0262
 1286ERGO    C117013   4.702   5.519   7.700  0.0368 -0.1052 -0.0029
 1286ERGO    C217014   4.857   5.232   7.784 -0.0226 -0.1825 -0.2542
 1287ERGO   ROH17015   0.856  13.325   6.312  0.0175  0.0351  0.0509
 1287ERGO    R117016   0.939  13.526   6.493 -0.3137  0.2112  0.0172
 1287ERGO    R217017   0.762  13.662   6.656 -0.5144 -0.3343  0.2894
 1287ERGO    R317018   0.929  13.578   6.853 -0.0195  0.0389  0.0522
 1287ERGO    R417019   0.758  13.781   6.980 -0.5130 -0.5526  0.3705
 1287ERGO    R517020   0.977  13.777   6.979 -0.4839  0.1162  0.1172
 1287ERGO    C117021   0.913  13.772   7.355 -0.0477 -0.3294  0.1950
 1287ERGO    C217022   0.784  13.832   7.648 -0.0301  0.1600  0.1412
 1288ERGO   ROH17023  17.548   0.348   6.366 -0.1888 -0.0240  0.1618
 1288ERGO    R117024  17.584   0.215   6.614 -0.1410 -0.1016  0.1135
 1288ERGO    R217025  17.796   0.269   6.782 -0.0484 -0.2334  0.0385
 1288ERGO    R317026  17.599   0.310   6.965  0.0452 -0.1973  0.1330
 1288ERGO    R417027  17.847   0.371   7.108  0.1307 -0.2748  0.0249
 1288ERGO    R517028  17.691   0.232   7.171  0.1214 -0.2405  0.0843
 1288ERGO    C117029  17.691   0.470   7.470  0.3228 -0.2651  0.1056
 1288ERGO    C217030  17.513   0.679   7.760  0.1807 -0.1227  0.1237
 1289ERGO   ROH17031   8.821   1.591   7.384 -0.0021  0.1294  0.1081
 1289ERGO    R117032   8.951   1.626   7.633  0.0519 -0.2517  0.1390
 1289ERGO    R217033   8.869   1.812   7.819  0.4615 -0.1031  0.1795
 1289ERGO    R317034   8.862   1.597   7.985 -0.0719 -0.1488  0.1177
 1289ERGO    R417035   8.800   1.826   8.158  0.5616 -0.0127  0.1968
 1289ERGO    R517036   8.957   1.677   8.190  0.1896 -0.4458  0.1236
 1289ERGO    C117037   8.755   1.631   8.510  0.1191 -0.0030  0.1489
 1289ERGO    C217038   8.739   1.580   8.860  0.2029  0.0055 -0.0012
 1290ERGO   ROH17039  18.076  14.985   6.534  0.0177  0.0766 -0.1643
 1290ERGO    R117040  18.009  15.030   6.805  0.0745 -0.0770 -0.1229
 1290ERGO    R217041  18.193  15.003   7.010  0.1583 -0.0538 -0.1867
 1290ERGO    R317042  18.115  15.256   7.070  0.0238 -0.1234 -0.0647
 1290ERGO    R417043  18.264  15.167   7.306  0.2807 -0.0635 -0.2113
 1290ERGO    R517044  18.062  15.249   7.303  0.2220 -0.2100 -0.0249
 1290ERGO    C117045  18.233  15.500   7.534  0.2256 -0.1346 -0.1111
 1290ERGO    C217046  18.239  15.766   7.701 -0.0813 -0.1356  0.1984
 1291ERGO   ROH17047   5.918   9.975   6.497  0.0725  0.2898  0.1060
 1291ERGO    R117048   5.880  10.007   6.776 -0.3136  0.0203  0.0926
 1291ERGO    R217049   5.685   9.871   6.917 -0.0627 -0.6629 -0.1824
 1291ERGO    R317050   5.895   9.796   7.072  0.0275 -0.1188 -0.0196
 1291ERGO    R417051   5.672   9.826   7.259 -0.1112 -0.3549 -0.1404
 1291ERGO    R517052   5.868   9.921   7.274 -0.2884  0.0330 -0.1484
 1291ERGO    C117053   5.862   9.729   7.604 -0.0546  0.3352  0.0370
 1291ERGO    C217054   5.803   9.626   7.998  0.0182  0.1647 -0.2278
 1292ERGO   ROH17055   5.187  15.118   6.452  0.1500 -0.0364 -0.1037
 1292ERGO    R117056   5.157  14.956   6.682  0.3197  0.0311 -0.0335
 1292ERGO    R217057   5.315  14.985   6.906  0.1696  0.4184  0.0255
 1292ERGO    R317058   5.076  15.008   7.033  0.0701  0.0787 -0.0958
 1292ERGO    R417059   5.271  14.972   7.249  0.0704  0.6640  0.0239
 1292ERGO    R517060   5.091  14.854   7.216  0.3038  0.2769  0.0602
 1292ERGO    C117061   5.021  14.986   7.567 -0.0808  0.4881 -0.0907
 1292ERGO    C217062   5.071  14.853   7.944 -0.0993  0.0395 -0.4502
 1293ERGO   ROH17063  15.735  12.684   6.554  0.0642 -0.1044  0.0110
 1293ERGO    R117064  15.717  12.594   6.822  0.1490 -0.0890  0.0234
 1293ERGO    R217065  15.875  12.390   6.921  0.1632 -0.1061 -0.0186
 1293ERGO    R317066  15.940  12.575   7.109  0.2511 -0.0998 -0.0576
 1293ERGO    R417067  16.066  12.327   7.202 -0.0558 -0.1911  0.1124
 1293ERGO    R517068  15.932  12.455   7.316  0.0141 -0.0074 -0.0143
 1293ERGO    C117069  16.239  12.464   7.542 -0.1009 -0.2345  0.1520
 1293ERGO    C217070  16.406  12.499   7.761  0.0665 -0.0469  0.0629
 1294ERGO   ROH17071  10.426   6.021   6.245  0.0155  0.0754  0.0838
 1294ERGO    R117072  10.309   6.162   6.461 -0.0061  0.0641  0.0787
 1294ERGO    R217073  10.314   6.066   6.720 -0.0304  0.0525  0.0715
 1294ERGO    R317074  10.423   6.310   6.773 -0.0389  0.0514  0.0980
 1294ERGO    R417075  10.409   6.176   7.034 -0.1947  0.0808  0.1134
 1294ERGO    R517076  10.329   6.372   6.984 -0.1536  0.0846  0.0414
 1294ERGO    C117077  10.568   6.468   7.266 -0.2986  0.0962  0.1626
 1294ERGO    C217078  10.663   6.409   7.577 -0.1501  0.0723  0.1119
 1295ERGO   ROH17079  14.038  11.461   6.339  0.3633  0.0565 -0.0308
 1295ERGO    R117080  14.176  11.641   6.509  0.2088  0.1660 -0.0173
 1295ERGO    R217081  14.161  11.915   6.480 -0.0240  0.1611 -0.0011
 1295ERGO    R317082  14.087  11.907   6.741 -0.0249  0.0782 -0.0050
 1295ERGO    R417083  14.329  12.072   6.737  0.1725 -0.2092  0.1024
 1295ERGO    R517084  14.294  11.896   6.861 -0.0343 -0.2486 -0.0142
 1295ERGO    C117085  14.357  12.156   7.133  0.2861 -0.5027  0.1590
 1295ERGO    C217086  14.520  12.360   7.332 -0.1978  0.1252 -0.4103
 1296ERGO   ROH17087   1.837   0.743   6.449 -0.0446 -0.1624  0.1835
 1296ERGO    R117088   1.755   0.937   6.639 -0.0475 -0.0967  0.1151
 1296ERGO    R217089   1.501   0.940   6.748 -0.0600 -0.0354  0.0801
 1296ERGO    R317090   1.638   0.936   6.983 -0.0927  0.0205  0.1010
 1296ERGO    R417091   1.385   1.070   7.046 -0.1189  0.0045  0.0405
 1296ERGO    R517092   1.586   1.145   7.086 -0.1315  0.0342  0.0564
 1296ERGO    C117093   1.446   1.142   7.441 -0.1840  0.0803  0.0369
 1296ERGO    C217094   1.254   1.048   7.601  0.3153  0.0751  0.4359
 1297ERGO   ROH17095   4.876  16.336   6.851 -0.0958 -0.0455  0.0395
 1297ERGO    R117096   4.842  16.257   7.121 -0.1963 -0.0768  0.0183
 1297ERGO    R217097   4.911  16.421   7.333  0.0727 -0.2417  0.0620
 1297ERGO    R317098   4.654  16.375   7.409  0.0026  0.1292  0.0674
 1297ERGO    R417099   4.811  16.354   7.656  0.0057 -0.2452  0.0409
 1297ERGO    R517100   4.672  16.205   7.577 -0.2455  0.0114 -0.0193
 1297ERGO    C117101   4.511  16.272   7.917 -0.0990  0.1010  0.0337
 1297ERGO    C217102   4.454  16.316   8.162  0.2319  0.0526 -0.0916
 1298ERGO   ROH17103   5.281   0.824   6.590 -0.3075 -0.0250 -0.0069
 1298ERGO    R117104   5.154   0.778   6.839 -0.1504  0.0638  0.0920
 1298ERGO    R217105   5.233   0.577   7.011 -0.1560  0.0058  0.0324
 1298ERGO    R317106   5.250   0.782   7.190  0.1248 -0.0018  0.0181
 1298ERGO    R417107   5.289   0.539   7.350 -0.0705 -0.0269  0.0148
 1298ERGO    R517108   5.144   0.697   7.387  0.1107  0.1257  0.0619
 1298ERGO    C117109   5.338   0.708   7.715  0.2430 -0.0530 -0.0090
 1298ERGO    C217110   5.448   0.741   8.055 -0.0093 -0.1528  0.2361
 1299ERGO   ROH17111   0.469  16.327   6.479 -0.1966  0.0357  0.1276
 1299ERGO    R117112   0.630  16.397   6.701 -0.1630  0.0999  0.0839
 1299ERGO    R217113   0.525  16.451   6.951 -0.1145  0.0188  0.1261
 1299ERGO    R317114   0.701  16.259   7.030  0.0129  0.1020  0.0471
 1299ERGO    R417115   0.653  16.420   7.271  0.0076  0.0402  0.0795
 1299ERGO    R517116   0.846  16.371   7.184  0.0027  0.1548  0.0137
 1299ERGO    C117117   0.892  16.222   7.531  0.1984  0.1307 -0.0216
 1299ERGO    C217118   1.082  16.251   7.775  0.0209  0.1580  0.0757
 1300ERGO   ROH17119  14.912   7.282   6.068 -0.0450  0.1936 -0.0457
 1300ERGO    R117120  14.813   7.450   6.274  0.0530  0.1948  0.0002
 1300ERGO    R217121  14.758   7.356   6.528  0.0812  0.1758 -0.0025
 1300ERGO    R317122  14.924   7.557   6.604  0.1597  0.1142 -0.0083
 1300ERGO    R417123  14.890   7.394   6.845 -0.0585  0.2368  0.0497
 1300ERGO    R517124  14.857   7.609   6.828  0.0732  0.2513 -0.0631
 1300ERGO    C117125  15.123   7.605   7.101 -0.0663  0.2144  0.0745
 1300ERGO    C217126  15.111   7.408   7.415  0.3195  0.1914 -0.1991
 1301ERGO   ROH17127   5.972   5.791   6.525  0.1986 -0.1429 -0.0431
 1301ERGO    R117128   6.081   5.763   6.785  0.1136 -0.1647 -0.0103
 1301ERGO    R217129   5.953   5.859   7.011  0.1241 -0.0260 -0.0666
 1301ERGO    R317130   5.984   5.602   7.096 -0.0778 -0.0303  0.0027
 1301ERGO    R417131   5.917   5.754   7.338  0.0917  0.1047 -0.0268
 1301ERGO    R517132   6.089   5.623   7.310 -0.0196 -0.0526 -0.0206
 1301ERGO    C117133   5.924   5.452   7.609 -0.1167  0.1767  0.0615
 1301ERGO    C217134   5.835   5.354   7.828 -0.0652  0.3220 -0.3513
 1302ERGO   ROH17135   7.875   7.193   6.294 -0.3487  0.0019 -0.1142
 1302ERGO    R117136   7.732   7.148   6.533 -0.2486 -0.0877 -0.0706
 1302ERGO    R217137   7.580   6.921   6.575 -0.0752 -0.1965 -0.0135
 1302ERGO    R317138   7.733   6.898   6.799  0.0063 -0.0736 -0.0563
 1302ERGO    R417139   7.527   6.692   6.829  0.1006 -0.1492  0.0669
 1302ERGO    R517140   7.577   6.848   6.973  0.0839 -0.0901  0.0079
 1302ERGO    C117141   7.641   6.538   7.187  0.2794 -0.0062  0.0734
 1302ERGO    C217142   7.690   6.445   7.556 -0.0336  0.1672  0.0816
 1303ERGO   ROH17143  10.428  17.552   6.169 -0.1416  0.0146 -0.0252
 1303ERGO    R117144  10.482  17.596   6.443 -0.3229  0.1460 -0.0097
 1303ERGO    R217145  10.285  17.588   6.637 -0.3853 -0.1882 -0.0859
 1303ERGO    R317146  10.452  17.407   6.752 -0.0950  0.1220  0.0004
 1303ERGO    R417147  10.304  17.524   6.976 -0.4215 -0.1312 -0.0722
 1303ERGO    R517148  10.520  17.511   6.957 -0.3778  0.2687  0.0272
 1303ERGO    C117149  10.471  17.317   7.282 -0.1698  0.1936  0.0168
 1303ERGO    C217150  10.590  17.257   7.633 -0.1506 -0.2107  0.1289
 1304ERGO   ROH17151   6.711  11.176   6.830 -0.0224  0.0787  0.1258
 1304ERGO    R117152   6.822  11.281   7.068 -0.0190  0.0905  0.1174
 1304ERGO    R217153   6.763  11.535   7.160 -0.0525  0.0722  0.1267
 1304ERGO    R317154   6.697  11.402   7.388 -0.0066  0.0612  0.1355
 1304ERGO    R417155   6.747  11.679   7.474  0.1092  0.0472  0.1486
 1304ERGO    R517156   6.839  11.498   7.556  0.0905  0.0043  0.0937
 1304ERGO    C117157   6.675  11.638   7.871  0.2465  0.0223  0.1697
 1304ERGO    C217158   6.529  11.807   8.102 -0.0766 -0.0481 -0.0677
 1305ERGO   ROH17159  11.802  11.199   6.367 -0.2701  0.0354 -0.0562
 1305ERGO    R117160  11.810  11.317   6.624 -0.3160 -0.0587 -0.0109
 1305ERGO    R217161  11.760  11.175   6.856 -0.0565 -0.2170 -0.0492
 1305ERGO    R317162  12.003  11.272   6.929 -0.1428  0.0468 -0.1026
 1305ERGO    R417163  11.878  11.187   7.180  0.0592 -0.2318 -0.0899
 1305ERGO    R517164  11.961  11.383   7.137 -0.1983 -0.1033 -0.0309
 1305ERGO    C117165  12.174  11.286   7.439  0.0456  0.0072 -0.1637
 1305ERGO    C217166  12.325  11.179   7.763  0.4629 -0.0297 -0.0409
 1306ERGO   ROH17167   9.918  15.066   6.450 -0.0360 -0.2323 -0.0717
 1306ERGO    R117168   9.858  15.029   6.724 -0.0291  0.0178 -0.0342
 1306ERGO    R217169   9.944  14.809   6.867 -0.3665 -0.0597  0.0607
 1306ERGO    R317170  10.046  14.997   7.034  0.0035 -0.1372 -0.0699
 1306ERGO    R417171   9.991  14.767   7.207 -0.3359  0.0475  0.0699
 1306ERGO    R517172   9.922  14.971   7.237  0.0174  0.1851 -0.0172
 1306ERGO    C117173  10.115  14.920   7.561  0.0292  0.0372 -0.0473
 1306ERGO    C217174  10.116  14.849   7.858  0.1105 -0.1176  0.0466
 1307ERGO   ROH17175  16.016  11.454   6.431 -0.0330 -0.0698 -0.1307
 1307ERGO    R117176  16.046  11.300   6.666 -0.1233 -0.2108 -0.2113
 1307ERGO    R217177  16.082  11.414   6.915  0.2310 -0.3618 -0.1925
 1307ERGO    R317178  15.867  11.260   6.981  0.0217 -0.0425 -0.1044
 1307ERGO    R417179  16.019  11.289   7.231  0.3949 -0.5781 -0.2419
 1307ERGO    R517180  15.954  11.102   7.139 -0.0625 -0.3752 -0.3741
 1307ERGO    C117181  15.780  11.073   7.477  0.2938 -0.4043 -0.1879
 1307ERGO    C217182  15.768  11.065   7.817  0.3867  0.1017  0.4068
 1308ERGO   ROH17183  11.647   3.840   6.116  0.0850 -0.0372 -0.0565
 1308ERGO    R117184  11.755   3.843   6.378  0.1042 -0.0727 -0.0633
 1308ERGO    R217185  11.641   3.987   6.584  0.1817 -0.0091 -0.0599
 1308ERGO    R317186  11.644   3.747   6.710  0.0807 -0.0060 -0.0526
 1308ERGO    R417187  11.741   3.937   6.911  0.1249 -0.0405 -0.0480
 1308ERGO    R517188  11.840   3.753   6.847  0.0648 -0.0756 -0.0302
 1308ERGO    C117189  11.802   3.681   7.220 -0.0031 -0.0559 -0.0341
 1308ERGO    C217190  11.713   3.702   7.579 -0.1061  0.3370 -0.3822
 1309ERGO   ROH17191   8.986  14.727   6.736 -0.1215  0.1137  0.0129
 1309ERGO    R117192   8.944  14.830   6.997  0.0477  0.0242  0.0766
 1309ERGO    R217193   8.856  14.673   7.206  0.0251 -0.0107  0.0364
 1309ERGO    R317194   9.078  14.769   7.330  0.1364 -0.2146  0.0009
 1309ERGO    R417195   8.897  14.693   7.549  0.0431  0.0519  0.0309
 1309ERGO    R517196   8.992  14.887   7.520  0.2612 -0.0561 -0.0348
 1309ERGO    C117197   9.129  14.795   7.864  0.1580 -0.1029 -0.0056
 1309ERGO    C217198   8.943  14.567   8.094  0.2862 -0.1277  0.0925
 1310ERGO   ROH17199   4.056  12.399   6.565  0.0637 -0.0018  0.0404
 1310ERGO    R117200   4.105  12.419   6.843 -0.0310 -0.1169  0.0655
 1310ERGO    R217201   4.107  12.660   6.978  0.1484 -0.1518  0.1215
 1310ERGO    R317202   3.924  12.536   7.136 -0.0372 -0.0116  0.0212
 1310ERGO    R417203   4.040  12.743   7.307  0.2814 -0.3092  0.1898
 1310ERGO    R517204   4.025  12.531   7.352 -0.0327 -0.3343  0.0195
 1310ERGO    C117205   3.829  12.674   7.646  0.1845 -0.2694  0.1355
 1310ERGO    C217206   3.786  12.709   7.920  0.0585 -0.3101 -0.3122
 1311ERGO   ROH17207   4.061  11.057   6.711 -0.0843  0.1905  0.1033
 1311ERGO    R117208   4.152  11.174   6.952 -0.1394  0.1411  0.1483
 1311ERGO    R217209   3.985  11.311   7.124 -0.1905  0.0536  0.1685
 1311ERGO    R317210   4.082  11.135   7.308 -0.1734  0.0224  0.1294
 1311ERGO    R417211   3.907  11.315   7.461 -0.1733 -0.0121  0.1732
 1311ERGO    R517212   4.116  11.268   7.504 -0.1682 -0.0124  0.1529
 1311ERGO    C117213   3.953  11.152   7.829 -0.1472 -0.0796  0.1393
 1311ERGO    C217214   3.854  11.152   8.110 -0.1710 -0.2073  0.2084
 1312ERGO   ROH17215  14.020   4.402   6.479 -0.1782 -0.1927 -0.0411
 1312ERGO    R117216  13.962   4.229   6.696 -0.1414 -0.1050  0.0401
 1312ERGO    R217217  14.158   4.133   6.866 -0.0827 -0.1920 -0.0709
 1312ERGO    R317218  13.996   4.238   7.058  0.1157 -0.0396  0.0154
 1312ERGO    R417219  14.147   4.029   7.196  0.0278 -0.1421 -0.0516
 1312ERGO    R517220  13.931   4.051   7.191  0.0430  0.0310  0.0764
 1312ERGO    C117221  13.990   4.068   7.567  0.2784  0.0301  0.0406
 1312ERGO    C217222  13.776   3.972   7.823 -0.4076 -0.0350  0.4987
 1313ERGO   ROH17223   8.137   1.737   5.880 -0.0070 -0.1866  0.0124
 1313ERGO    R117224   8.172   1.819   6.149  0.0268 -0.1091 -0.0134
 1313ERGO    R217225   7.961   1.839   6.326  0.0150  0.1259 -0.0369
 1313ERGO    R317226   8.115   1.674   6.478 -0.1270  0.0570  0.0309
 1313ERGO    R417227   7.983   1.851   6.671  0.1563  0.3399 -0.0522
 1313ERGO    R517228   8.197   1.814   6.654  0.0997  0.0786 -0.0995
 1313ERGO    C117229   8.140   1.702   7.014  0.1052  0.3998  0.0024
 1313ERGO    C217230   8.306   1.586   7.265  0.2499  0.0264 -0.0728
 1314ERGO   ROH17231   4.336   9.797   6.673 -0.3025 -0.0413  0.0113
 1314ERGO    R117232   4.194   9.784   6.918 -0.1857 -0.1488  0.0741
 1314ERGO    R217233   4.276   9.626   7.129  0.0766 -0.0199  0.0702
 1314ERGO    R317234   4.262   9.860   7.267 -0.1195 -0.0071  0.0317
 1314ERGO    R417235   4.254   9.652   7.473  0.1400  0.0168  0.0721
 1314ERGO    R517236   4.111   9.814   7.447 -0.0298 -0.1273  0.0791
 1314ERGO    C117237   4.228   9.886   7.803 -0.0072  0.0501  0.0369
 1314ERGO    C217238   4.245   9.982   8.100 -0.1284  0.0559 -0.1213
 1315ERGO   ROH17239  14.733  14.333   6.775  0.1236  0.3046 -0.1074
 1315ERGO    R117240  14.587  14.344   7.017  0.0591  0.1297 -0.1369
 1315ERGO    R217241  14.690  14.455   7.248  0.0379 -0.1310  0.0014
 1315ERGO    R317242  14.463  14.604   7.239  0.0987 -0.0321  0.0785
 1315ERGO    R417243  14.535  14.595   7.523  0.1045 -0.1987  0.0738
 1315ERGO    R517244  14.342  14.540   7.436  0.0782 -0.0778  0.0521
 1315ERGO    C117245  14.231  14.815   7.676  0.2003 -0.1452  0.1883
 1315ERGO    C217246  14.120  15.069   7.843 -0.0628 -0.2919  0.0326
 1316ERGO   ROH17247   3.632  12.140   6.682  0.1223  0.2281 -0.1138
 1316ERGO    R117248   3.687  12.225   6.947  0.1217  0.1722 -0.0960
 1316ERGO    R217249   3.535  12.417   7.076  0.1165  0.1385 -0.0535
 1316ERGO    R317250   3.512  12.224   7.266  0.1248  0.0966 -0.0944
 1316ERGO    R417251   3.482  12.475   7.413  0.1786  0.0642 -0.0298
 1316ERGO    R517252   3.622  12.315   7.458  0.1669  0.0373 -0.0904
 1316ERGO    C117253   3.428  12.329   7.787  0.2226 -0.0186 -0.0544
 1316ERGO    C217254   3.461  12.380   8.152  0.2824 -0.2299 -0.0827
 1317ERGO   ROH17255  15.110  11.889   6.644 -0.0105  0.4276 -0.0254
 1317ERGO    R117256  15.013  11.768   6.881 -0.0392  0.1250 -0.1876
 1317ERGO    R217257  14.994  11.905   7.120  0.0623 -0.2183  0.0156
 1317ERGO    R317258  14.735  11.822   7.110  0.0174 -0.0752 -0.0669
 1317ERGO    R417259  14.777  11.902   7.389  0.1040 -0.4519  0.0496
 1317ERGO    R517260  14.701  11.710   7.320 -0.0051 -0.3336 -0.1970
 1317ERGO    C117261  14.408  11.823   7.537  0.0860 -0.4536 -0.0079
 1317ERGO    C217262  14.066  12.030   7.723  0.1780 -0.1487  0.0372
 1318ERGO   ROH17263  10.545   8.717   6.405 -0.0368 -0.0746 -0.1153
 1318ERGO    R117264  10.612   8.681   6.678 -0.0246 -0.0313 -0.1133
 1318ERGO    R217265  10.511   8.472   6.830  0.0417 -0.0463 -0.0988
 1318ERGO    R317266  10.774   8.423   6.878  0.0564  0.0362 -0.0886
 1318ERGO    R417267  10.635   8.316   7.112  0.0444 -0.2532 -0.2112
 1318ERGO    R517268  10.799   8.459   7.113 -0.0193 -0.1683 -0.0426
 1318ERGO    C117269  10.954   8.180   7.322  0.0599 -0.2965 -0.2672
 1318ERGO    C217270  10.850   8.046   7.550 -0.0570  0.1371 -0.0370
 1319ERGO   ROH17271   2.899   6.989   6.537  0.0192  0.0597  0.0765
 1319ERGO    R117272   3.009   6.831   6.744 -0.1218 -0.0941  0.0374
 1319ERGO    R217273   2.957   6.560   6.768 -0.0694 -0.1397 -0.2505
 1319ERGO    R317274   3.228   6.541   6.766 -0.0606 -0.0512 -0.0308
 1319ERGO    R417275   3.135   6.278   6.857 -0.0283 -0.0186  0.0596
 1319ERGO    R517276   3.279   6.407   6.958 -0.1530  0.0889  0.0871
 1319ERGO    C117277   3.493   6.095   6.908  0.0040  0.1350  0.4466
 1319ERGO    C217278   3.759   5.951   6.722 -0.0632  0.2683 -0.1924
 1320ERGO   ROH17279  16.994   6.826   5.996  0.0255 -0.2957 -0.1363
 1320ERGO    R117280  16.940   6.862   6.271 -0.0933 -0.1321 -0.1809
 1320ERGO    R217281  16.700   6.790   6.387 -0.0488 -0.2943 -0.2009
 1320ERGO    R317282  16.860   6.649   6.555  0.0506  0.0073 -0.0317
 1320ERGO    R417283  16.617   6.702   6.710 -0.0936 -0.1816 -0.1791
 1320ERGO    R517284  16.821   6.747   6.770 -0.1695  0.1080 -0.1104
 1320ERGO    C117285  16.719   6.517   7.057 -0.0261  0.1673 -0.0076
 1320ERGO    C217286  16.813   6.372   7.319  0.2099 -0.1261  0.1683
 1321ERGO   ROH17287  14.318   1.038   5.919  0.1427 -0.1627  0.0213
 1321ERGO    R117288  14.368   0.926   6.174  0.1288 -0.1331  0.0373
 1321ERGO    R217289  14.622   0.856   6.259  0.1262 -0.1185  0.0629
 1321ERGO    R317290  14.561   1.017   6.469  0.1076 -0.0953  0.0385
 1321ERGO    R417291  14.784   0.853   6.564  0.1715 -0.0000  0.0405
 1321ERGO    R517292  14.591   0.878   6.661  0.1811 -0.0423  0.0632
 1321ERGO    C117293  14.821   1.002   6.939  0.1804  0.0907  0.0046
 1321ERGO    C217294  14.782   1.212   7.175  0.0508  0.1010  0.0168
 1322ERGO   ROH17295   8.973  10.396   6.817  0.0623  0.2721  0.1624
 1322ERGO    R117296   8.935  10.230   7.043 -0.0707  0.1368  0.0439
 1322ERGO    R217297   9.098  10.244   7.266 -0.0500 -0.1626  0.0532
 1322ERGO    R317298   8.861  10.278   7.396 -0.0193 -0.0562  0.0815
 1322ERGO    R417299   9.044  10.172   7.600 -0.0326 -0.0971  0.0699
 1322ERGO    R517300   8.849  10.091   7.546 -0.0698 -0.0305  0.1081
 1322ERGO    C117301   8.791  10.162   7.916  0.0063  0.0408  0.1062
 1322ERGO    C217302   8.869  10.023   8.213 -0.1920  0.1268 -0.0643
 1323ERGO   ROH17303   0.528   8.135   6.621 -0.1638 -0.0522 -0.0347
 1323ERGO    R117304   0.578   8.166   6.898 -0.0153 -0.1418 -0.0511
 1323ERGO    R217305   0.375   8.181   7.085  0.0769  0.0879  0.0285
 1323ERGO    R317306   0.511   7.976   7.201 -0.1268 -0.0923 -0.0431
 1323ERGO    R417307   0.346   8.089   7.417  0.0579  0.0736  0.0233
 1323ERGO    R517308   0.562   8.057   7.421  0.0287 -0.1802 -0.0421
 1323ERGO    C117309   0.456   7.844   7.719 -0.1444 -0.1039 -0.0470
 1323ERGO    C217310   0.400   7.581   7.976 -0.1490  0.0169 -0.0057
 1324ERGO   ROH17311  17.737   7.665   6.140  0.1912  0.0966  0.1056
 1324ERGO    R117312  17.641   7.600   6.399  0.1762  0.0765  0.0941
 1324ERGO    R217313  17.756   7.403   6.555  0.2119  0.1174  0.1116
 1324ERGO    R317314  17.774   7.604   6.738  0.1284  0.1245  0.1140
 1324ERGO    R417315  17.723   7.363   6.897  0.0807  0.1153  0.0999
 1324ERGO    R517316  17.609   7.549   6.903  0.0633  0.1127  0.0514
 1324ERGO    C117317  17.720   7.528   7.267 -0.0741  0.1207  0.0954
 1324ERGO    C217318  17.681   7.593   7.546  0.1900 -0.1479 -0.0014
 1325ERGO   ROH17319   5.056  12.261   6.563 -0.0028 -0.0663 -0.0650
 1325ERGO    R117320   5.038  12.200   6.839  0.0150  0.0035 -0.0464
 1325ERGO    R217321   5.193  12.326   7.030  0.0394  0.0462 -0.0831
 1325ERGO    R317322   4.952  12.379   7.143  0.0484  0.0878 -0.0884
 1325ERGO    R417323   5.147  12.437   7.354  0.0262 -0.2811  0.0291
 1325ERGO    R517324   4.975  12.305   7.370 -0.0667 -0.1775 -0.1647
 1325ERGO    C117325   4.894  12.552   7.649  0.0270 -0.4327  0.0896
 1325ERGO    C217326   4.778  12.596   8.004  0.0780  0.1701  0.0349
 1326ERGO   ROH17327   8.199  10.755   6.870 -0.0936 -0.1889  0.0517
 1326ERGO    R117328   8.052  10.755   7.111  0.0075 -0.2154  0.1137
 1326ERGO    R217329   8.166  10.695   7.356  0.1710  0.0181  0.0959
 1326ERGO    R317330   8.062  10.935   7.427 -0.0372 -0.0476  0.0213
 1326ERGO    R417331   8.055  10.776   7.673  0.0393 -0.0051  0.0562
 1326ERGO    R517332   7.887  10.881   7.582 -0.0286 -0.1567 -0.0038
 1326ERGO    C117333   7.892  11.049   7.924 -0.2327 -0.0803 -0.0369
 1326ERGO    C217334   8.005  11.136   8.339 -0.1460 -0.2968 -0.0653
 1327ERGO   ROH17335  16.126  15.464   6.731 -0.0642  0.0088 -0.1052
 1327ERGO    R117336  16.085  15.527   7.004 -0.1292  0.0172 -0.1162
 1327ERGO    R217337  15.893  15.402   7.158 -0.0062 -0.1525 -0.0925
 1327ERGO    R317338  16.104  15.350   7.322  0.0497  0.0908 -0.0857
 1327ERGO    R417339  15.873  15.226   7.455  0.1775 -0.1028 -0.0504
 1327ERGO    R517340  16.013  15.369   7.543  0.0400  0.0531 -0.0887
 1327ERGO    C117341  16.060  15.076   7.782  0.3368  0.1546 -0.0195
 1327ERGO    C217342  15.878  14.960   8.107 -0.0670  0.1505 -0.0403
 1328ERGO   ROH17343  17.640  12.432   6.407  0.2808  0.0036 -0.1341
 1328ERGO    R117344  17.465  12.384   6.624  0.3376 -0.0399 -0.0977
 1328ERGO    R217345  17.548  12.392   6.888  0.3499  0.1721 -0.1058
 1328ERGO    R317346  17.344  12.570   6.913  0.1918  0.0062 -0.1871
 1328ERGO    R417347  17.405  12.487   7.187  0.2274  0.1437 -0.1543
 1328ERGO    R517348  17.210  12.482   7.091  0.2436 -0.0543 -0.1782
 1328ERGO    C117349  17.131  12.710   7.386  0.0074 -0.0288 -0.2589
 1328ERGO    C217350  17.097  12.746   7.591  0.1010 -0.1432 -0.0986
 1329ERGO   ROH17351   7.854   4.955   6.023  0.1229  0.1240 -0.0149
 1329ERGO    R117352   7.782   4.786   6.238 -0.1098  0.0834 -0.1221
 1329ERGO    R217353   7.963   4.703   6.430 -0.2609 -0.1556 -0.0834
 1329ERGO    R317354   7.780   4.807   6.602 -0.2470 -0.0854 -0.1102
 1329ERGO    R417355   7.950   4.636   6.768 -0.1896  0.0192 -0.0448
 1329ERGO    R517356   7.733   4.629   6.753 -0.1965 -0.0169 -0.0065
 1329ERGO    C117357   7.770   4.695   7.127 -0.1350  0.1869 -0.0474
 1329ERGO    C217358   7.688   4.634   7.469 -0.1133 -0.2434  0.1423
 1330ERGO   ROH17359   2.793   7.748   6.717 -0.1520  0.2693  0.0766
 1330ERGO    R117360   2.837   7.759   6.997 -0.0284  0.2088  0.0593
 1330ERGO    R217361   2.733   7.960   7.156 -0.0782  0.0917  0.1673
 1330ERGO    R317362   2.632   7.751   7.297  0.1183 -0.0136  0.1577
 1330ERGO    R417363   2.624   7.977   7.483 -0.4097  0.0705  0.0633
 1330ERGO    R517364   2.716   7.783   7.519 -0.1294  0.2206  0.2282
 1330ERGO    C117365   2.466   7.791   7.807 -0.4184 -0.0406 -0.0063
 1330ERGO    C217366   2.267   7.508   8.046 -0.1111 -0.1633  0.1015
 1331ERGO   ROH17367  10.468   0.788   6.068 -0.0576  0.0860  0.0859
 1331ERGO    R117368  10.540   0.716   6.332 -0.1403  0.0283  0.0931
 1331ERGO    R217369  10.705   0.872   6.489 -0.0003 -0.1194  0.0955
 1331ERGO    R317370  10.498   0.856   6.665 -0.0275  0.0829  0.0847
 1331ERGO    R417371  10.717   0.977   6.818  0.0631 -0.0669  0.0768
 1331ERGO    R517372  10.602   0.801   6.873 -0.0867  0.0363  0.1022
 1331ERGO    C117373  10.530   1.023   7.175  0.0745  0.1536  0.0557
 1331ERGO    C217374  10.491   1.205   7.569  0.1840 -0.0977 -0.2735
 1332ERGO   ROH17375   9.602  16.951   6.316 -0.1229  0.0646  0.0041
 1332ERGO    R117376   9.414  17.003   6.522 -0.0585 -0.0040  0.0801
 1332ERGO    R217377   9.384  16.838   6.742  0.1226  0.0101  0.1109
 1332ERGO    R317378   9.426  17.069   6.879  0.0637  0.0473  0.0688
 1332ERGO    R417379   9.221  16.926   7.033 -0.1375  0.1578 -0.0743
 1332ERGO    R517380   9.208  17.130   6.959 -0.0021  0.1413 -0.1631
 1332ERGO    C117381   9.165  17.194   7.332 -0.3442  0.2785 -0.2217
 1332ERGO    C217382   9.255  17.037   7.631 -0.1534 -0.1124  0.1444
 1333ERGO   ROH17383  11.776   3.360   6.142 -0.2243  0.1520  0.0421
 1333ERGO    R117384  11.690   3.384   6.411 -0.0765  0.1508  0.0899
 1333ERGO    R217385  11.637   3.164   6.570 -0.0748  0.1526  0.0885
 1333ERGO    R317386  11.814   3.283   6.738  0.0552  0.0655  0.0156
 1333ERGO    R417387  11.658   3.104   6.909 -0.0496  0.2264  0.1005
 1333ERGO    R517388  11.691   3.317   6.940  0.1208  0.2151  0.0348
 1333ERGO    C117389  11.837   3.180   7.265  0.0870  0.1876  0.0391
 1333ERGO    C217390  11.897   3.217   7.562  0.1830  0.0035 -0.1672
 1334ERGO   ROH17391  11.276  15.411   6.445  0.0111 -0.2492  0.0140
 1334ERGO    R117392  11.385  15.354   6.700  0.2528  0.0912 -0.0053
 1334ERGO    R217393  11.522  15.543   6.849 -0.1642  0.4939 -0.1026
 1334ERGO    R317394  11.340  15.477   7.040  0.0556  0.0760 -0.0256
 1334ERGO    R417395  11.507  15.682   7.166 -0.2493  0.3338 -0.0355
 1334ERGO    R517396  11.463  15.484   7.245  0.1568  0.2132 -0.0918
 1334ERGO    C117397  11.328  15.701   7.529 -0.0924 -0.1519  0.0757
 1334ERGO    C217398  11.420  15.781   7.830  0.0738  0.0162 -0.1140
 1335ERGO   ROH17399   1.799  13.194   6.110 -0.2483  0.3005 -0.0687
 1335ERGO    R117400   1.890  13.200   6.378 -0.2328  0.0908 -0.0673
 1335ERGO    R217401   1.982  13.432   6.499 -0.0926 -0.0328  0.0647
 1335ERGO    R317402   1.794  13.371   6.685 -0.1201 -0.0317  0.0376
 1335ERGO    R417403   2.017  13.482   6.839 -0.1927  0.0958  0.0567
 1335ERGO    R517404   1.919  13.290   6.873 -0.1384  0.0732  0.0970
 1335ERGO    C117405   1.860  13.454   7.212 -0.2768  0.1718  0.0266
 1335ERGO    C217406   1.900  13.541   7.583 -0.1105 -0.2657 -0.2120
 1336ERGO   ROH17407  16.650   4.084   6.259 -0.2152  0.2604 -0.0391
 1336ERGO    R117408  16.501   4.197   6.472 -0.1973  0.1737  0.0201
 1336ERGO    R217409  16.488   4.081   6.723 -0.1704  0.0757 -0.0238
 1336ERGO    R317410  16.572   4.326   6.805 -0.1688  0.0454  0.0646
 1336ERGO    R417411  16.557   4.167   7.050 -0.2869 -0.0117  0.0242
 1336ERGO    R517412  16.462   4.359   7.015 -0.2475  0.0104  0.0305
 1336ERGO    C117413  16.676   4.447   7.318 -0.3533 -0.0909  0.1351
 1336ERGO    C217414  16.815   4.424   7.651 -0.1354 -0.0303  0.0474
 1337ERGO   ROH17415  15.580  16.823   6.466 -0.3796 -0.1374  0.0778
 1337ERGO    R117416  15.662  16.697   6.705 -0.0999  0.0056  0.0621
 1337ERGO    R217417  15.757  16.837   6.923 -0.1950  0.1713  0.0050
 1337ERGO    R317418  15.563  16.702   7.056  0.0404 -0.0805  0.1023
 1337ERGO    R417419  15.747  16.793   7.266 -0.0779  0.3140  0.0275
 1337ERGO    R517420  15.679  16.588   7.232  0.2458  0.1892  0.1400
 1337ERGO    C117421  15.558  16.641   7.590  0.2114  0.1609  0.1321
 1337ERGO    C217422  15.556  16.696   7.915  0.1841 -0.0202 -0.2378
 1338ERGO   ROH17423   5.129  14.551   6.295 -0.1490 -0.0811 -0.1610
 1338ERGO    R117424   5.052  14.486   6.560  0.0500 -0.2625 -0.1434
 1338ERGO    R217425   5.202  14.320   6.722  0.4097 -0.0281 -0.2117
 1338ERGO    R317426   5.190  14.530   6.894  0.0875 -0.0631 -0.1863
 1338ERGO    R417427   5.276  14.304   7.059  0.2367  0.0205 -0.1709
 1338ERGO    R517428   5.107  14.436   7.098  0.0770 -0.1706 -0.2466
 1338ERGO    C117429   5.309  14.492   7.417 -0.1666  0.0161 -0.1235
 1338ERGO    C217430   5.497  14.694   7.606  0.1266 -0.0067  0.1279
 1339ERGO   ROH17431  13.873   9.404   6.284 -0.1780  0.1933  0.0779
 1339ERGO    R117432  14.013   9.310   6.512 -0.0817  0.1778  0.0132
 1339ERGO    R217433  14.018   9.449   6.751  0.0605  0.1882  0.0088
 1339ERGO    R317434  13.930   9.212   6.852  0.0666  0.2071  0.0575
 1339ERGO    R417435  14.068   9.342   7.076  0.1428  0.2051  0.0017
 1339ERGO    R517436  14.105   9.141   6.999  0.0979  0.1986  0.0107
 1339ERGO    C117437  14.014   9.057   7.360  0.1963  0.2328  0.0434
 1339ERGO    C217438  13.983   8.841   7.697  0.1806  0.2496  0.2163
 1340ERGO   ROH17439   4.512   1.745   6.886 -0.0951  0.0162  0.0965
 1340ERGO    R117440   4.644   1.670   7.125 -0.0485  0.0468  0.0803
 1340ERGO    R217441   4.554   1.746   7.375 -0.1319 -0.1159  0.1016
 1340ERGO    R317442   4.562   1.479   7.424  0.0925 -0.1262  0.0094
 1340ERGO    R417443   4.621   1.603   7.682 -0.0911 -0.1663  0.0686
 1340ERGO    R517444   4.741   1.452   7.581  0.0711 -0.0231  0.0490
 1340ERGO    C117445   4.668   1.269   7.907  0.1434 -0.2053 -0.0371
 1340ERGO    C217446   4.691   1.224   8.179  0.0534  0.1356  0.2909
 1341ERGO   ROH17447  17.580   3.095   6.222  0.1599  0.1455 -0.0639
 1341ERGO    R117448  17.433   3.107   6.463  0.0737  0.2004 -0.1201
 1341ERGO    R217449  17.483   2.940   6.677 -0.2232  0.0221 -0.1901
 1341ERGO    R317450  17.504   3.174   6.814  0.0109 -0.0749 -0.0511
 1341ERGO    R417451  17.452   2.970   7.020  0.0645 -0.1889 -0.1402
 1341ERGO    R517452  17.339   3.155   6.988  0.1338 -0.1021  0.0686
 1341ERGO    C117453  17.453   3.207   7.348  0.4518 -0.4028  0.0193
 1341ERGO    C217454  17.333   3.196   7.692  0.2334  0.0472 -0.0346
 1342ERGO   ROH17455   6.290  10.386   6.705 -0.1118  0.0300 -0.0752
 1342ERGO    R117456   6.456  10.535   6.879  0.0134 -0.0051 -0.1627
 1342ERGO    R217457   6.406  10.798   6.944 -0.0051 -0.0504  0.0117
 1342ERGO    R317458   6.418  10.706   7.199  0.2695 -0.1695 -0.0412
 1342ERGO    R417459   6.500  10.988   7.217 -0.0267 -0.0855  0.0437
 1342ERGO    R517460   6.611  10.815   7.292  0.2157 -0.0057 -0.1184
 1342ERGO    C117461   6.567  11.011   7.616  0.2186 -0.2179  0.0127
 1342ERGO    C217462   6.681  11.171   7.844 -0.3184  0.4725  0.2948
 1343ERGO   ROH17463  12.652   3.397   6.339 -0.1996 -0.2236 -0.0704
 1343ERGO    R117464  12.592   3.320   6.605 -0.1268 -0.2976 -0.0751
 1343ERGO    R217465  12.729   3.120   6.737  0.1347 -0.1060 -0.0527
 1343ERGO    R317466  12.766   3.314   6.924 -0.1532 -0.0455 -0.0530
 1343ERGO    R417467  12.785   3.062   7.073  0.3041 -0.0304 -0.0666
 1343ERGO    R517468  12.655   3.230   7.119  0.0238 -0.2470 -0.0329
 1343ERGO    C117469  12.853   3.210   7.444  0.1325  0.0704 -0.0750
 1343ERGO    C217470  12.857   3.426   7.702  0.0510  0.1684  0.0831
 1344ERGO   ROH17471  11.370   9.062   6.289 -0.2076 -0.2073  0.0562
 1344ERGO    R117472  11.545   9.097   6.509 -0.0948 -0.1953 -0.0350
 1344ERGO    R217473  11.495   9.279   6.711  0.0474 -0.1324 -0.0602
 1344ERGO    R317474  11.524   9.062   6.871  0.0685 -0.0968 -0.0142
 1344ERGO    R417475  11.478   9.284   7.056 -0.0198 -0.0659 -0.0637
 1344ERGO    R517476  11.644   9.143   7.061  0.0154 -0.0286 -0.0061
 1344ERGO    C117477  11.495   9.082   7.407 -0.0391  0.0061 -0.0224
 1344ERGO    C217478  11.542   8.968   7.610  0.0919 -0.0543 -0.0780
 1345W        W17479  10.551   5.998   3.471 -0.1183  0.1417 -0.0031
 1346W        W17480  14.699  13.388   1.047  0.1128 -0.0969 -0.1387
 1347W        W17481  10.958  11.411   0.850  0.0406 -0.0767 -0.0927
 1348W        W17482  13.466  13.624   3.154  0.0859  0.0756 -0.0498
 1349W        W17483   7.081   4.257   4.723 -0.0610 -0.2253 -0.1671
 1350W        W17484  16.296  16.587   4.377  0.0508 -0.1660 -0.1921
 1351W        W17485   3.746  18.062  13.301  0.1279  0.2745  0.1059
 1352W        W17486  16.562   6.325   0.906 -0.0015 -0.1026 -0.1329
 1353W        W17487  16.378   4.294   3.098  0.0218 -0.0358  0.1113
 1354W        W17488  18.027  15.395   3.033  0.0284  0.0982 -0.1682
 1355W        W17489  15.423  14.752  11.729 -0.0754  0.0334 -0.0380
 1356W        W17490  12.454   3.124  15.857 -0.0410  0.1640 -0.0467
 1357W        W17491  14.467  12.049  14.760 -0.0798  0.0415 -0.3047
 1358W        W17492   3.915   6.256  11.446  0.1049 -0.4325 -0.3375
 1359W        W17493  11.910   3.284   0.966  0.1796  0.2067  0.0842
 1360W        W17494   8.128   7.558   3.270  0.3072  0.0910  0.1149
 1361W        W17495   5.207   3.781   1.301 -0.3519  0.1797 -0.0909
 1362W        W17496  17.100   5.332  10.161  0.3189 -0.2445 -0.2397
 1363W        W17497   3.544  17.101   5.192  0.1131  0.1324  0.3043
 1364W        W17498   5.046  17.287   4.932  0.2532 -0.0368  0.2104
 1365W        W17499   8.670   2.884   3.045  0.0557 -0.1475 -0.0118
 1366W        W17500   8.539  15.887   1.719 -0.0397 -0.1250  0.1823
 1367W        W17501  14.206  13.865  11.281  0.1388 -0.1745 -0.0312
 1368W        W17502   0.829  10.698  16.183  0.1719 -0.0312  0.3747
 1369W        W17503   8.668  14.185  12.268 -0.1684  0.0552  0.2289
 1370W        W17504  11.112   3.872  11.504  0.2994  0.1527 -0.1371
 1371W        W17505  15.283  14.382  14.350 -0.0003 -0.1961 -0.1665
 1372W        W17506   3.280  17.782  15.551 -0.4536 -0.1635  0.0340
 1373W        W17507   5.248   5.051  13.163  0.5555  0.2639 -0.1580
 1374W        W17508   9.045   2.427   4.897 -0.1488 -0.3048 -0.0394
 1375W        W17509  16.356   4.305   1.262  0.2202  0.1614 -0.1101
 1376W        W17510  17.303  10.512   1.937  0.1277  0.2035  0.0438
 1377W        W17511  16.970  11.286  14.295  0.0027 -0.2424 -0.1983
 1378W        W17512  12.899  12.464   5.581 -0.0049  0.2828 -0.0064
 1379W        W17513   6.728   9.968   2.236  0.3207  0.1213 -0.2184
 1380W        W17514   3.863   1.849  15.235  0.1266  0.1964  0.1350
 1381W        W17515  11.012  17.988   1.395 -0.1043  0.2174 -0.0932
 1382W        W17516   9.070   8.398  15.217  0.0365  0.0282  0.0017
 1383W        W17517   1.521   0.146  15.326 -0.1478  0.2305 -0.0666
 1384W        W17518   9.533   5.640  13.603 -0.1415  0.2097 -0.1266
 1385W        W17519  16.497   3.835  13.015 -0.2108  0.0291 -0.0381
 1386W        W17520   2.747   4.103   5.214  0.0451 -0.1980 -0.0819
 1387W        W17521  13.747  10.836   1.242 -0.0348  0.2238 -0.2684
 1388W        W17522   4.966  15.989  12.827  0.0699  0.2017  0.0062
 1389W        W17523  15.332  11.412  13.816 -0.2778 -0.1560 -0.0521
 1390W        W17524   0.910   7.827   4.183  0.1526 -0.0430 -0.0599
 1391W        W17525   3.217   9.921   1.247 -0.0842 -0.0819  0.0043
 1392W        W17526  12.262  15.336   1.282 -0.0416 -0.0396 -0.1732
 1393W        W17527   9.098   5.943  12.827 -0.3901 -0.0221 -0.1222
 1394W        W17528   7.140   4.824  13.514  0.2151  0.1432  0.1648
 1395W        W17529   1.625   0.817   1.608 -0.0484  0.1247 -0.3445
 1396W        W17530   5.000  10.134   4.370 -0.1445  0.0645 -0.3139
 1397W        W17531  10.933  14.938   5.651 -0.0519  0.0504 -0.1838
 1398W        W17532  11.575   3.064  15.828  0.1499  0.1643  0.1080
 1399W        W17533  12.680  10.996   0.636  0.0508 -0.2221  0.4229
 1400W        W17534  15.970   3.514  12.850 -0.3369 -0.1960  0.1603
 1401W        W17535   9.164  17.395  15.468  0.0091 -0.3334  0.0496
 1402W        W17536  16.483   5.819  14.900 -0.0733  0.2017  0.2360
 1403W        W17537   3.759   7.525  16.058 -0.0323 -0.0746  0.3114
 1404W        W17538   1.259  17.496  12.857  0.1932  0.0124  0.0568
 1405W        W17539  14.263   8.936   3.310  0.1591  0.0273  0.0556
 1406W        W17540   1.172   6.659  13.083 -0.0921  0.0768  0.0100
 1407W        W17541   0.921   0.877  13.539 -0.0628 -0.0427 -0.1229
 1408W        W17542   3.709   7.280   5.198  0.3473  0.2777 -0.1015
 1409W        W17543  15.568   1.704   1.390  0.2108 -0.0886 -0.0118
 1410W        W17544  15.178   0.318  13.950  0.2851 -0.0947 -0.3653
 1411W        W17545  17.987  13.044   4.446  0.1264  0.2008  0.0706
 1412W        W17546  13.434   5.172  16.036  0.1004  0.0163 -0.2542
 1413W        W17547   3.918  16.402  12.912 -0.1358 -0.0618  0.1311
 1414W        W17548  16.114  10.389   4.581 -0.2511  0.1368 -0.0653
 1415W        W17549   7.441  15.917   5.093 -0.1257 -0.1930  0.0939
 1416W        W17550   5.351  16.689  14.804  0.1920 -0.0647  0.2462
 1417W        W17551  13.001   2.563   1.871  0.0401  0.1193  0.3247
 1418W        W17552   2.911  13.424  12.142 -0.0260 -0.2818 -0.4927
 1419W        W17553   7.010   0.920  11.887 -0.0117 -0.0625 -0.1655
 1420W        W17554  15.643   2.951   1.021  0.3791 -0.0680  0.0888
 1421W        W17555  13.553   8.853   5.621 -0.2752  0.1979 -0.3028
 1422W        W17556   6.843   3.856   1.339  0.1526  0.0596  0.0807
 1423W        W17557   6.129   8.578   0.044  0.0941  0.0692 -0.0453
 1424W        W17558  10.169   4.082   0.148  0.2651 -0.3219  0.2487
 1425W        W17559  10.732  15.299   0.791 -0.0773  0.1461  0.1845
 1426W        W17560  12.371   1.870  12.526 -0.0265 -0.0254 -0.1310
 1427W        W17561   1.980  15.415   2.278  0.1324  0.2807 -0.1222
 1428W        W17562  16.941   3.578   4.700 -0.1935 -0.0559 -0.0982
 1429W        W17563  13.743   6.294  11.829  0.3851  0.2647  0.1836
 1430W        W17564   2.257  13.301  16.315  0.1425  0.1599  0.1227
 1431W        W17565  12.946   3.131  15.977  0.1826 -0.1052  0.1707
 1432W        W17566  13.300   9.785   4.811  0.1097  0.2452 -0.0534
 1433W        W17567   7.841  16.447   2.321 -0.3277  0.2747 -0.0568
 1434W        W17568   8.877   9.842  15.070 -0.0588  0.2158  0.0152
 1435W        W17569  15.955  13.436   4.324  0.0734  0.2428 -0.0144
 1436W        W17570  12.737  17.215   5.376 -0.1743  0.1013 -0.0396
 1437W        W17571   0.453   2.554  15.896 -0.0095 -0.0232 -0.2857
 1438W        W17572   5.906   4.503  14.773  0.2360 -0.0715 -0.0899
 1439W        W17573  11.463   7.473   4.925  0.2104 -0.0955 -0.0711
 1440W        W17574  11.527   0.682   1.911 -0.1033  0.0023 -0.1633
 1441W        W17575  11.372   0.272   4.200 -0.0459 -0.2687 -0.0102
 1442W        W17576   9.407   0.028  12.042 -0.0849 -0.4060  0.0292
 1443W        W17577   7.177   0.598   1.689 -0.1105  0.4022  0.1087
 1444W        W17578  12.416  13.498  13.204  0.0184 -0.0664  0.0123
 1445W        W17579   4.159  17.793   4.058  0.1519  0.0660  0.1073
 1446W        W17580   6.654   4.150  16.017 -0.2430  0.0257 -0.2777
 1447W        W17581  16.196   3.845  11.573  0.0267  0.2361  0.0881
 1448W        W17582  10.095   6.500   2.187  0.0836  0.0931  0.0662
 1449W        W17583   0.778   5.352  13.089 -0.0313 -0.0601  0.0382
 1450W        W17584  16.662   8.763   2.557 -0.1137 -0.1158  0.3240
 1451W        W17585   2.097   8.299  15.908 -0.0560  0.0538  0.3824
 1452W        W17586  12.174  14.808   0.445  0.0109 -0.2392 -0.0298
 1453W        W17587  13.000   2.293  14.065 -0.0546 -0.0899  0.0740
 1454W        W17588   9.262  15.298   3.938 -0.2653  0.0706 -0.0355
 1455W        W17589  10.630   0.406  15.757 -0.2366 -0.1009  0.1705
 1456W        W17590   4.521  18.041  12.275  0.2048  0.1267  0.0986
 1457W        W17591  15.538  15.613   2.901 -0.2438 -0.1668  0.0037
 1458W        W17592  12.093  10.577   4.641  0.1082  0.2072 -0.1116
 1459W        W17593  13.717   8.232  14.438  0.0732 -0.2130  0.1543
 1460W        W17594  11.458   1.306  14.449  0.2344  0.1215  0.0802
 1461W        W17595  10.516   9.486  13.462 -0.2001 -0.0218 -0.3702
 1462W        W17596  13.137   1.973   3.084 -0.0929 -0.0803  0.0536
 1463W        W17597  12.575  17.679   0.748  0.1897  0.0235 -0.2344
 1464W        W17598  12.979   2.832  14.113 -0.1266  0.0573  0.2770
 1465W        W17599  15.979   1.072   1.754 -0.2113 -0.0104 -0.0740
 1466W        W17600  10.259   0.996   0.421  0.3961  0.0973 -0.0449
 1467W        W17601   1.637  11.542  15.947  0.1077 -0.1430 -0.2397
 1468W        W17602  11.518  14.972   0.921  0.0704  0.1169  0.1070
 1469W        W17603   7.048  13.420   3.882 -0.2403  0.3366 -0.2759
 1470W        W17604  10.955  10.697   0.256  0.0819 -0.4386  0.3628
 1471W        W17605  13.386  16.582   2.478  0.1685  0.1366  0.1689
 1472W        W17606   0.962  13.534  15.555 -0.5366  0.0523  0.0616
 1473W        W17607   8.812  10.335   3.742 -0.0715  0.1858 -0.1743
 1474W        W17608   8.885   3.484   1.594  0.3223  0.1625 -0.1586
 1475W        W17609   5.890  10.971   5.447 -0.0714 -0.0173 -0.2401
 1476W        W17610   6.796  17.532   0.309  0.4182 -0.0334  0.0637
 1477W        W17611   1.828   6.286   5.299 -0.1616  0.3971  0.1324
 1478W        W17612   7.802  14.151   2.820 -0.0676  0.0638  0.1038
 1479W        W17613  15.790   4.833   0.114 -0.0079 -0.2313 -0.3010
 1480W        W17614   1.671   4.761   1.160 -0.0369  0.0816  0.1193
 1481W        W17615  17.228   3.154   0.793 -0.0415  0.0055 -0.1813
 1482W        W17616   5.072  14.989   0.206 -0.2895  0.1791 -0.2193
 1483W        W17617   6.379   7.233   1.271  0.0982  0.1034  0.0632
 1484W        W17618  13.827   5.222  13.524  0.1378 -0.2193  0.0847
 1485W        W17619  13.573   0.063  11.846 -0.0638  0.0010 -0.2450
 1486W        W17620   2.356   4.841  10.762  0.1497  0.3061 -0.0820
 1487W        W17621   3.661   4.823  14.132  0.0450  0.1651  0.0296
 1488W        W17622   4.652  16.818  14.026 -0.0441  0.3477  0.2254
 1489W        W17623  13.643   6.529  13.113  0.0676 -0.2512 -0.2430
 1490W        W17624   1.696  15.714  14.188 -0.0476 -0.1995  0.2559
 1491W        W17625  12.008  14.796  15.000  0.0390 -0.1555 -0.1145
 1492W        W17626  15.576  12.698   3.738 -0.3607 -0.0629  0.3726
 1493W        W17627   4.602   9.040   5.623 -0.0100 -0.0674 -0.0766
 1494W        W17628  15.494   5.798  15.145  0.0221  0.0149  0.1392
 1495W        W17629   4.365   8.524   5.061 -0.0501  0.1144 -0.0823
 1496W        W17630   6.965   7.362  15.078  0.1110  0.0475  0.2787
 1497W        W17631   1.978   3.935  13.415  0.0229  0.2263  0.0960
 1498W        W17632   4.080  12.865  11.368  0.1522  0.0107  0.2753
 1499W        W17633   1.248  16.972  11.690  0.0599 -0.3395  0.1360
 1500W        W17634   7.673  11.481   0.318  0.1121 -0.0078 -0.1640
 1501W        W17635  11.426  12.865   2.994  0.1945 -0.1902  0.1114
 1502W        W17636  14.222   5.952  15.496 -0.2713  0.1568 -0.1149
 1503W        W17637   1.479   0.717   3.647 -0.2263 -0.2203  0.0370
 1504W        W17638   1.385   4.920   4.086 -0.0450 -0.1517  0.0656
 1505W        W17639  15.690  16.652  11.533 -0.1512 -0.0884 -0.0875
 1506W        W17640   7.120   5.882   6.156 -0.2449  0.0920  0.1327
 1507W        W17641  11.449   2.959   1.238 -0.0096 -0.1732 -0.0271
 1508W        W17642  13.782   6.984  16.204  0.1726 -0.1062 -0.3261
 1509W        W17643   9.685  14.335   4.593  0.2151 -0.0554 -0.1830
 1510W        W17644  11.600   2.539  10.916 -0.4384  0.1406 -0.1772
 1511W        W17645   8.931  15.001   3.070  0.0351 -0.1318  0.1075
 1512W        W17646   4.413  15.843  14.497 -0.0896  0.3110 -0.0335
 1513W        W17647   6.836  15.791   0.928 -0.1281 -0.0937  0.2658
 1514W        W17648  11.667   5.296   5.408  0.0970 -0.1927  0.2480
 1515W        W17649   7.249  13.782  16.336  0.0599  0.1571 -0.4045
 1516W        W17650   4.214   8.023  12.069  0.1110  0.1492 -0.0022
 1517W        W17651   1.096   6.047  12.363  0.0682 -0.1199 -0.0158
 1518W        W17652   3.669   3.591  13.984 -0.2755  0.3967 -0.0089
 1519W        W17653  14.618   1.927   1.431  0.1336 -0.0749  0.1286
 1520W        W17654  15.068  14.550  13.887  0.0073 -0.0553  0.2162
 1521W        W17655  14.593  13.028  15.766  0.2636  0.0695 -0.0550
 1522W        W17656   2.738   1.729   3.105 -0.0918  0.1449  0.0665
 1523W        W17657   5.637   7.375  15.425 -0.0717 -0.1159  0.0545
 1524W        W17658   7.575   4.227   2.359  0.0246 -0.0304 -0.1010
 1525W        W17659   2.877   9.046  15.810  0.1987 -0.1504  0.0872
 1526W        W17660  12.120   6.491  14.723 -0.4652 -0.1282 -0.0414
 1527W        W17661   8.336  12.051   1.071 -0.3192 -0.0842 -0.0534
 1528W        W17662  15.210  12.216  14.117  0.0065 -0.0405  0.0813
 1529W        W17663  17.882   5.866   3.042 -0.1522 -0.0775  0.0514
 1530W        W17664  14.394   8.794   2.542 -0.2974 -0.1565  0.0725
 1531W        W17665   0.547   4.502   0.951 -0.2069  0.0392 -0.0260
 1532W        W17666  15.260   1.318  16.072 -0.0108 -0.1796 -0.0970
 1533W        W17667   3.229  11.259   0.991  0.0609  0.0168  0.0602
 1534W        W17668   6.014   4.827   2.511  0.0516  0.0912 -0.0754
 1535W        W17669  13.977  14.031  12.218 -0.1979 -0.0281  0.0790
 1536W        W17670  11.272   1.620   1.741 -0.1159 -0.0198  0.0023
 1537W        W17671   2.308   6.142  13.733  0.1546  0.1778  0.0937
 1538W        W17672  11.659  11.006  14.409  0.2250  0.0378  0.0302
 1539W        W17673  13.474  13.310  13.296  0.0898 -0.0176 -0.0054
 1540W        W17674  17.812  13.895   5.365  0.2996 -0.1920  0.0997
 1541W        W17675  14.642   6.440  16.353  0.1440 -0.1836 -0.0594
 1542W        W17676   0.297   8.764   5.236 -0.0668 -0.0365 -0.2369
 1543W        W17677  13.587  11.664  12.484 -0.0961  0.0811 -0.0311
 1544W        W17678   2.374   0.950   5.683  0.1180  0.1753 -0.1011
 1545W        W17679  14.597  16.887  12.261  0.0643  0.0078  0.0943
 1546W        W17680   3.377   4.964   0.564  0.0158  0.0558  0.4382
 1547W        W17681  13.145   8.042  12.913 -0.0692 -0.0371  0.0113
 1548W        W17682   1.276   5.370  16.318  0.3659 -0.2855 -0.0034
 1549W        W17683   5.476   0.682   4.630 -0.0303 -0.0997 -0.2817
 1550W        W17684  15.670  15.929   5.379 -0.0416 -0.1708 -0.3076
 1551W        W17685   7.405   2.180   1.799 -0.0765  0.0579  0.1004
 1552W        W17686  10.945   3.441  16.338  0.3377  0.1052 -0.0626
 1553W        W17687   2.249  14.074  13.178  0.1723 -0.2609 -0.3367
 1554W        W17688   9.236   2.318  15.368  0.1551  0.1931  0.1707
 1555W        W17689  10.881   3.064  10.443 -0.3666 -0.2015  0.0161
 1556W        W17690  13.085   1.672   1.341 -0.1484 -0.3089  0.0043
 1557W        W17691   4.794   3.622   2.404  0.0718 -0.0372 -0.0224
 1558W        W17692   7.145  17.436  13.478  0.0685  0.0007 -0.1071
 1559W        W17693   0.202   5.700   3.454  0.1274 -0.1769  0.2652
 1560W        W17694   6.321  10.254  13.408  0.0273 -0.2574  0.0234
 1561W        W17695   7.772   2.665  11.301 -0.1805 -0.0628 -0.1419
 1562W        W17696   8.659  11.877  11.815  0.3114 -0.0778 -0.2258
 1563W        W17697   2.189   1.900   5.563  0.1126 -0.2493 -0.2801
 1564W        W17698  16.081   4.706  11.986  0.1401  0.1102 -0.3715
 1565W        W17699   6.091  12.816   5.254  0.2690  0.0288  0.0457
 1566W        W17700   7.058  14.760  13.096 -0.0056  0.2073 -0.0659
 1567W        W17701   6.084   3.271  14.378  0.0308  0.1539 -0.0686
 1568W        W17702   6.301   1.018   4.458 -0.1756  0.1000  0.0261
 1569W        W17703   2.551   7.665   3.163  0.2049 -0.0656 -0.0553
 1570W        W17704  15.158  15.073   0.055 -0.1016  0.1824  0.0873
 1571W        W17705   1.322  13.274  15.282 -0.0556  0.1257 -0.0558
 1572W        W17706   9.723   6.883   5.179 -0.0210  0.2298  0.2696
 1573W        W17707   6.017   5.204  14.936 -0.2782 -0.0522  0.3111
 1574W        W17708  12.383   8.516  11.642 -0.2507 -0.0775  0.2951
 1575W        W17709   3.356   5.194   3.367  0.1578 -0.2905 -0.0292
 1576W        W17710   1.746  15.298  12.778 -0.0471  0.0738 -0.1702
 1577W        W17711   0.959  14.122  13.476  0.2123 -0.0876 -0.1217
 1578W        W17712   5.628  15.922   5.467  0.1200  0.1772  0.0735
 1579W        W17713  17.534   5.165   5.388 -0.0348  0.2835 -0.4800
 1580W        W17714  18.038   9.280  11.219 -0.2079  0.0183 -0.2715
 1581W        W17715  11.753  14.201   3.310  0.4374 -0.0304 -0.0238
 1582W        W17716   2.666   6.353  12.707  0.1036 -0.1190 -0.3263
 1583W        W17717  16.460   8.661  13.584 -0.1884 -0.2568 -0.0283
 1584W        W17718  15.194  10.074   1.614 -0.1628  0.0113 -0.1253
 1585W        W17719  13.005  14.252   5.364 -0.1400 -0.0927 -0.1280
 1586W        W17720   6.873   2.698   2.678  0.1727 -0.1231 -0.0484
 1587W        W17721  10.203   0.846   1.342 -0.1843 -0.1049 -0.0026
 1588W        W17722   6.384  10.665   2.963  0.1224 -0.2020 -0.3079
 1589W        W17723   9.227  15.387   1.746 -0.0976 -0.0629  0.0777
 1590W        W17724  16.327  11.838  15.510  0.0690  0.0062 -0.3177
 1591W        W17725   0.952   2.261   1.728  0.1051  0.0183 -0.1674
 1592W        W17726   0.062  16.055  14.220  0.1039  0.0682 -0.1277
 1593W        W17727  15.741   6.391   4.129 -0.0526  0.4676 -0.1930
 1594W        W17728   5.142  16.851   4.032 -0.1815 -0.0407 -0.0227
 1595W        W17729   0.635   1.632   3.471 -0.5166 -0.2565 -0.1842
 1596W        W17730   8.534  10.413   6.003 -0.1077  0.1843 -0.0957
 1597W        W17731   6.832   1.036  15.234 -0.2008 -0.0345 -0.3844
 1598W        W17732   4.816   8.812   0.575 -0.1302 -0.2814  0.1757
 1599W        W17733   7.604  17.411   2.190 -0.1141 -0.0055  0.1794
 1600W        W17734   1.600   7.440  16.004 -0.4246  0.0135 -0.1608
 1601W        W17735  16.218   8.103  12.157 -0.0875  0.0353 -0.0606
 1602W        W17736  11.533   3.935   4.793 -0.1223 -0.2854 -0.0277
 1603W        W17737  14.166   6.117  14.462 -0.1361 -0.6537  0.2323
 1604W        W17738   1.309  16.908  16.390  0.1395  0.0894 -0.0780
 1605W        W17739  15.402  14.908  12.745 -0.1139  0.1286 -0.2793
 1606W        W17740   5.727   0.049  13.669  0.1071 -0.1961 -0.1630
 1607W        W17741  17.410   2.702   2.142 -0.0960  0.0303 -0.2603
 1608W        W17742  14.954   2.075   0.069  0.3885 -0.0776 -0.0868
 1609W        W17743   6.709  13.189  14.366  0.0240  0.2395 -0.0239
 1610W        W17744   0.910   0.725   4.894  0.3639  0.0794  0.1910
 1611W        W17745  14.131  14.844   1.160 -0.1058  0.2126  0.0290
 1612W        W17746  18.010   4.821  13.881 -0.2358  0.0389  0.2051
 1613W        W17747  14.456   6.668   0.464 -0.1699 -0.2079 -0.0076
 1614W        W17748  10.068   0.514   1.016  0.1872 -0.2437 -0.1952
 1615W        W17749   2.901   9.274   4.072 -0.0179  0.1310  0.2942
 1616W        W17750  17.453   4.634  15.916  0.1550  0.2289 -0.1841
 1617W        W17751  11.952  17.415   1.512 -0.4202 -0.1947 -0.1797
 1618W        W17752  15.192   5.261   4.886 -0.0674 -0.1163 -0.0093
 1619W        W17753   8.779   2.445  11.007  0.1345  0.1410  0.1124
 1620W        W17754  15.837   4.594   5.856 -0.0151  0.2213 -0.0464
 1621W        W17755   7.592  10.046   3.330  0.1353  0.2523  0.1579
 1622W        W17756   1.695   0.209   0.994  0.0632  0.2064  0.2420
 1623W        W17757  12.263  13.112   1.162  0.1701 -0.0815  0.1780
 1624W        W17758   5.826  12.553  14.167 -0.0473 -0.2269  0.1271
 1625W        W17759  15.002  12.221  14.735  0.0307  0.0068  0.0419
 1626W        W17760  10.470   1.963   4.964  0.1798  0.2351  0.1496
 1627W        W17761  11.844   7.914  14.851 -0.1417  0.0353 -0.0141
 1628W        W17762  17.196   7.005  15.688  0.2514 -0.0694 -0.0051
 1629W        W17763  12.912  16.085   1.650  0.0823  0.1768 -0.0434
 1630W        W17764   8.600   8.606  15.337 -0.1275 -0.1049 -0.2412
 1631W        W17765  10.334  14.048   0.789 -0.0543 -0.0678 -0.3649
 1632W        W17766   6.149   3.932  14.056 -0.0425 -0.1704 -0.0207
 1633W        W17767   6.649  14.383  12.960 -0.0617  0.0973  0.0678
 1634W        W17768  16.404   7.782  11.333 -0.1024  0.2244 -0.2341
 1635W        W17769  17.410   6.727   0.365 -0.0146  0.2801 -0.4048
 1636W        W17770  14.500   8.110  15.657 -0.4454  0.2445  0.4183
 1637W        W17771  12.011   6.379   0.761 -0.0006 -0.3076  0.0629
 1638W        W17772   1.884   2.344  13.720 -0.2792 -0.1165  0.0732
 1639W        W17773   3.814   2.402   1.400  0.0952 -0.0250  0.0529
 1640W        W17774  10.253  16.864  15.237 -0.0280 -0.1905 -0.0129
 1641W        W17775   7.030   4.230  13.874 -0.1675  0.2173 -0.0804
 1642W        W17776  11.555  17.872   3.900 -0.0144  0.2199  0.0073
 1643W        W17777   2.906  10.390  12.984 -0.0588 -0.0673 -0.2899
 1644W        W17778   6.206   4.059   4.128 -0.0790  0.0718  0.2481
 1645W        W17779  16.920  17.237  11.642 -0.0440  0.2016  0.3096
 1646W        W17780  18.005   3.887   4.372  0.0756  0.2322 -0.2872
 1647W        W17781   5.481   8.666   4.271 -0.0542  0.0466 -0.2816
 1648W        W17782  13.568   1.004  15.976  0.1789 -0.1049 -0.0755
 1649W        W17783   3.182   2.382  13.341  0.0660  0.2236 -0.1694
 1650W        W17784   7.982   2.474   4.556  0.0426 -0.3082  0.2401
 1651W        W17785  16.896   6.081  15.836  0.2165 -0.1574  0.5700
 1652W        W17786  17.761   6.102  11.754 -0.0881 -0.2626 -0.1366
 1653W        W17787   2.125   3.133  16.163 -0.1254 -0.0173  0.4729
 1654W        W17788   4.286   8.159  15.321 -0.0466  0.2431  0.3612
 1655W        W17789  16.071  11.214  15.912  0.2276 -0.0511  0.2251
 1656W        W17790   2.981   5.594  14.084 -0.1256 -0.4276 -0.0345
 1657W        W17791   2.849   7.791  16.345  0.0762  0.0730 -0.0142
 1658W        W17792  14.485   0.517  12.919 -0.2175 -0.0551 -0.1546
 1659W        W17793   0.405  11.301   3.848 -0.0095  0.0057 -0.0468
 1660W        W17794  17.297   7.608  12.440 -0.0451  0.1203  0.0387
 1661W        W17795  13.243  15.643  11.306 -0.1472 -0.1296 -0.1009
 1662W        W17796   8.321  18.011  11.669 -0.0417 -0.2589  0.3050
 1663W        W17797   8.112   6.932   5.036 -0.1399  0.1972 -0.1074
 1664W        W17798  15.782   9.262   5.771 -0.1702 -0.1846 -0.0813
 1665W        W17799  14.802  14.142  14.954 -0.1775 -0.0000 -0.2955
 1666W        W17800  11.478   9.934  14.308  0.2394  0.1570 -0.1014
 1667W        W17801   3.745   9.935   3.826  0.4183 -0.0568 -0.0073
 1668W        W17802   6.955  16.483  15.598 -0.2234 -0.0344  0.0620
 1669W        W17803  16.340  14.131   4.983 -0.1802  0.2532 -0.0054
 1670W        W17804  14.470  14.080  12.341  0.2761 -0.0809 -0.0014
 1671W        W17805   5.330   1.371  11.858  0.2190  0.0164  0.2320
 1672W        W17806   2.857  17.990  16.367  0.3328  0.0699  0.0338
 1673W        W17807   8.815   7.108  14.190 -0.1826 -0.2153  0.2661
 1674W        W17808  16.180  10.103   2.774  0.1159  0.3505  0.0807
 1675W        W17809   0.645   9.162   1.621  0.0719  0.0484  0.1978
 1676W        W17810   2.975   7.663   4.057  0.0244 -0.2456  0.0376
 1677W        W17811  10.193  11.697   0.347 -0.1068 -0.0353 -0.1991
 1678W        W17812   3.771   2.293   0.819 -0.2262 -0.2111  0.1522
 1679W        W17813  14.584   9.455   2.109  0.1348  0.2299 -0.3799
 1680W        W17814   7.163  17.649   1.253  0.0691 -0.1793  0.0642
 1681W        W17815  10.585  14.063   4.056  0.4011  0.2928 -0.2462
 1682W        W17816   2.849  15.733  11.450 -0.2631  0.3768  0.0309
 1683W        W17817   3.842  15.014  16.308  0.1138 -0.0352 -0.0323
 1684W        W17818  10.162   9.586   5.157 -0.1198  0.0087  0.3120
 1685W        W17819   5.425   0.109  13.200  0.1010 -0.2292 -0.1593
 1686W        W17820   5.857  16.957  14.700  0.0108 -0.3570  0.3725
 1687W        W17821  16.035  18.066   5.170 -0.1668 -0.0890 -0.0777
 1688W        W17822  15.863   6.650  12.260 -0.0995  0.2247 -0.1840
 1689W        W17823   3.161  18.002  12.820  0.1908  0.1617 -0.3060
 1690W        W17824  14.427  12.911   0.322  0.1547 -0.0807  0.0516
 1691W        W17825  14.373   1.648  14.454  0.2961 -0.1562 -0.3245
 1692W        W17826   4.674  17.933   2.032 -0.0397 -0.0522 -0.4603
 1693W        W17827  12.984   4.298   2.073  0.3211  0.0199  0.0024
 1694W        W17828  13.970  10.429  12.666 -0.1202  0.0568 -0.0310
 1695W        W17829   1.312   0.445   1.843 -0.2698  0.0771 -0.0440
 1696W        W17830   3.716   6.338   3.728  0.1020  0.1775  0.0701
 1697W        W17831  11.983   9.865   1.616  0.2107 -0.2157 -0.0020
 1698W        W17832  11.249   6.916   4.107  0.4901  0.1182 -0.3131
 1699W        W17833   8.769  16.971  15.463  0.0148  0.1682  0.3410
 1700W        W17834   2.653  16.462   0.415  0.1716 -0.1880  0.3535
 1701W        W17835  13.887   1.647  11.761  0.2175  0.1447 -0.2481
 1702W        W17836  12.633   4.313   0.673  0.0632 -0.2010  0.4814
 1703W        W17837   8.884   9.054  13.001  0.1469 -0.1492 -0.2708
 1704W        W17838   2.580  14.246   0.891  0.1535  0.2090  0.1318
 1705W        W17839   5.236   8.015  14.839 -0.0212  0.0478 -0.0027
 1706W        W17840   3.427  13.025   6.334  0.1151 -0.2282  0.2368
 1707W        W17841   7.219   9.536   1.137 -0.0057 -0.2852  0.3657
 1708W        W17842   5.316  11.768   1.693 -0.1126 -0.3216 -0.0542
 1709W        W17843   8.535  17.335  12.974 -0.2720 -0.0570 -0.2231
 1710W        W17844   5.637   0.662  12.135 -0.0934 -0.1594  0.0003
 1711W        W17845  12.686   7.987  11.784 -0.1309  0.1656 -0.0175
 1712W        W17846   7.020  14.913   2.625 -0.1210 -0.3374 -0.1489
 1713W        W17847  14.691   2.660   4.195 -0.0205 -0.1193  0.0266
 1714W        W17848   6.035   3.577  14.823 -0.0031  0.0382 -0.2638
 1715W        W17849  13.074   6.500   0.160 -0.1204  0.2147 -0.0117
 1716W        W17850   9.096  12.767   3.107 -0.4570 -0.3191 -0.0231
 1717W        W17851   8.474   2.420  13.366  0.1786  0.0902 -0.0004
 1718W        W17852   4.846   6.011  15.129  0.1457 -0.3075  0.1842
 1719W        W17853  16.360   2.435   1.528  0.1034 -0.0010  0.2221
 1720W        W17854  15.749   5.475   2.281  0.0226 -0.0431  0.0570
 1721W        W17855  17.457   3.296  14.996  0.0139 -0.2032  0.2372
 1722W        W17856  13.728   9.887  15.827 -0.2646  0.1069 -0.2632
 1723W        W17857   3.432  18.063  13.711  0.0814 -0.1937  0.0949
 1724W        W17858   9.331   3.509   0.175  0.1349 -0.2584 -0.2384
 1725W        W17859  13.723  13.202   0.340 -0.2170  0.4653 -0.3807
 1726W        W17860  14.818   9.682  10.679  0.0982 -0.1735  0.1815
 1727W        W17861   2.392  11.454   2.685  0.0145  0.0350  0.0702
 1728W        W17862  10.243  13.631  11.495 -0.1601  0.0711  0.0758
 1729W        W17863  15.019  13.090  11.738  0.0070  0.0625  0.0228
 1730W        W17864  16.383  13.772   4.241 -0.0069 -0.0605 -0.1083
 1731W        W17865   0.382  12.625   5.147 -0.0742  0.1425 -0.2241
 1732W        W17866   4.039  15.028   1.780  0.1213 -0.0885 -0.0549
 1733W        W17867  10.379  15.318  15.510 -0.3480 -0.0398 -0.0696
 1734W        W17868  14.666   9.699   0.235 -0.2031 -0.1431 -0.0830
 1735W        W17869   1.089   0.657   2.844  0.3060 -0.1033 -0.2400
 1736W        W17870   8.026   7.790  14.549 -0.3572 -0.0535  0.0468
 1737W        W17871   0.795   9.579  15.241  0.0484  0.1867  0.0028
 1738W        W17872   3.275  16.159   3.410  0.0534  0.0976 -0.2785
 1739W        W17873   7.507  10.659   0.270  0.2097  0.1274 -0.0307
 1740W        W17874  15.040  17.914  13.777 -0.0553 -0.1364 -0.0281
 1741W        W17875   1.669   4.091  15.150  0.1491 -0.0288  0.1110
 1742W        W17876   9.236   1.734   1.987  0.0735  0.0314 -0.0244
 1743W        W17877  16.761  11.971   4.934 -0.3305 -0.2748  0.3670
 1744W        W17878   5.633  14.082  14.313  0.1516 -0.2094 -0.0162
 1745W        W17879  16.468   8.984  12.282  0.0977 -0.0030  0.1058
 1746W        W17880  11.944   9.949  12.486  0.0117 -0.1659 -0.0001
 1747W        W17881  16.131   9.715   1.480  0.1850  0.2574  0.1612
 1748W        W17882   1.616  16.984  13.801  0.2106  0.1947 -0.0893
 1749W        W17883  13.854  12.222  14.912 -0.3200 -0.2445 -0.0438
 1750W        W17884   0.785   6.385  15.732  0.1252 -0.3593 -0.2932
 1751W        W17885   4.628  14.262  13.637 -0.3270  0.2482 -0.1080
 1752W        W17886   2.974   9.031   0.704  0.2458 -0.1898 -0.1716
 1753W        W17887  17.671   3.175   4.455  0.0314  0.0438 -0.1620
 1754W        W17888   8.948  12.919  16.226 -0.3806  0.0918 -0.0322
 1755W        W17889   7.784   4.396   0.903 -0.1132 -0.2982  0.0413
 1756W        W17890  13.037  12.888   1.106 -0.2292 -0.0412  0.0267
 1757W        W17891  16.697   2.340  15.180  0.2894  0.0599  0.0846
 1758W        W17892   0.837  17.544   4.095 -0.0579  0.0317 -0.2819
 1759W        W17893  11.215   2.832  11.683 -0.1376  0.0623 -0.0439
 1760W        W17894  11.519  10.187   1.626  0.0905 -0.0134 -0.1136
 1761W        W17895  13.113   6.859  14.295  0.1868 -0.0915  0.0102
 1762W        W17896  15.357   1.382   3.486  0.2007 -0.0343 -0.1005
 1763W        W17897   0.586   6.983   1.134 -0.0536  0.0473 -0.0181
 1764W        W17898   7.884  17.085   1.646 -0.2706 -0.1175  0.1182
 1765W        W17899  16.208   4.793   3.059  0.0704  0.1654 -0.0914
 1766W        W17900   4.179   5.546   4.889 -0.0064  0.1131  0.0120
 1767W        W17901  17.173   5.785   4.916  0.1843 -0.0878  0.2268
 1768W        W17902   9.068   9.960   1.458 -0.0372 -0.0503  0.3256
 1769W        W17903   9.354   9.226   1.648  0.1490 -0.1595  0.1092
 1770W        W17904   5.603  10.266   3.371 -0.2128  0.0754  0.1172
 1771W        W17905   8.864   9.888  12.432 -0.0342 -0.1339 -0.5577
 1772W        W17906   0.230   0.744   3.347  0.0816  0.3079 -0.1091
 1773W        W17907   6.098   1.896   4.988 -0.0348 -0.1007 -0.0953
 1774W        W17908  17.333   2.012   1.009 -0.0998  0.0723  0.0235
 1775W        W17909  10.925   9.709  12.880  0.0008 -0.0249  0.0546
 1776W        W17910   0.435   1.726  12.717 -0.2586 -0.1498 -0.0281
 1777W        W17911   1.655   7.483  14.683  0.1675 -0.0339 -0.0643
 1778W        W17912   8.668   5.151  13.759 -0.1529  0.1097  0.1135
 1779W        W17913  16.651   9.547   2.138 -0.1348 -0.1997  0.1486
 1780W        W17914   5.065  10.364  12.128  0.2914  0.3241  0.1416
 1781W        W17915  14.966   1.156   3.994  0.0992  0.0864 -0.0010
 1782W        W17916  16.204  14.724  14.122 -0.2459  0.0949  0.0316
 1783W        W17917  11.593   6.642   0.540  0.0428  0.1164  0.3628
 1784W        W17918   7.771  12.715  15.234 -0.1866  0.0877 -0.2124
 1785W        W17919  15.314   4.447   2.399 -0.2603 -0.0014  0.1579
 1786W        W17920  14.650   8.583   3.054 -0.1164 -0.2814  0.0873
 1787W        W17921   2.994   8.771  16.233  0.2078 -0.0966  0.0574
 1788W        W17922  11.228   0.910  11.272  0.0525  0.0139  0.0965
 1789W        W17923   4.899   0.205   1.362 -0.0498 -0.2252  0.0951
 1790W        W17924   1.904  16.115   4.866 -0.2151  0.1798  0.0534
 1791W        W17925   4.000  11.499   1.189 -0.1010  0.2900  0.0936
 1792W        W17926  17.258   2.182  11.380 -0.1479  0.3282 -0.0089
 1793W        W17927  11.484   6.029  16.337  0.0580 -0.0266  0.0350
 1794W        W17928   1.578   0.288   0.488 -0.0721 -0.0996 -0.1579
 1795W        W17929  12.925   9.073  14.872  0.2851  0.0354 -0.1742
 1796W        W17930  12.680   9.086  12.782 -0.1054  0.1342  0.1644
 1797W        W17931  12.169   5.022   3.247  0.0414  0.0710 -0.1000
 1798W        W17932  17.008  14.459  14.878 -0.0061  0.2587  0.0339
 1799W        W17933   3.381   5.189   2.742 -0.0407  0.0411  0.1385
 1800W        W17934   2.337  17.939  12.731 -0.0481  0.3044 -0.0637
 1801W        W17935   8.719   4.644   5.211 -0.2174 -0.2914  0.1758
 1802W        W17936   9.705   9.995  13.012 -0.0462 -0.0615  0.1411
 1803W        W17937  12.336  15.166  16.145 -0.0574  0.0082 -0.1077
 1804W        W17938   6.515   4.296   3.710 -0.3021  0.1892  0.0817
 1805W        W17939   9.069   0.997   4.552 -0.1912 -0.0843  0.0760
 1806W        W17940   3.288   5.875  14.324  0.0522  0.2408  0.2966
 1807W        W17941   9.436   5.709  12.046 -0.0376 -0.1925 -0.4564
 1808W        W17942  10.865   5.026   3.585  0.1275  0.0733  0.0823
 1809W        W17943  10.361   6.313   5.227  0.0926 -0.3699  0.1741
 1810W        W17944   9.556   3.886   4.031  0.2527  0.1629  0.0099
 1811W        W17945  12.862   7.506  11.691 -0.0934  0.2310 -0.1554
 1812W        W17946   6.597   3.344   2.793  0.3298  0.2040 -0.0301
 1813W        W17947   7.143  12.309  12.742  0.1081  0.1423  0.1825
 1814W        W17948  14.855   6.114   3.700 -0.1685 -0.0450  0.2897
 1815W        W17949  15.206   6.658  15.066  0.0781  0.0897 -0.3791
 1816W        W17950  13.396  11.870   0.088 -0.2519 -0.2045 -0.1990
 1817W        W17951   3.502  12.507   2.557  0.0410  0.1870 -0.2311
 1818W        W17952  11.146   1.302   5.570 -0.2854  0.0552  0.2983
 1819W        W17953   8.773  10.105   4.678 -0.0388 -0.1454  0.3170
 1820W        W17954  17.977   2.033  14.481 -0.2139 -0.1367 -0.3007
 1821W        W17955   0.356   2.438   2.399 -0.1239  0.0657  0.1020
 1822W        W17956   6.561  10.461   2.414 -0.1188  0.0241  0.0767
 1823W        W17957   1.350   8.643   1.587  0.2571  0.1309 -0.1330
 1824W        W17958  13.477  11.189  11.808 -0.2549 -0.0720 -0.0150
 1825W        W17959   8.698   7.589  14.191  0.4304  0.0718  0.0800
 1826W        W17960  17.313  14.831   1.356 -0.0983 -0.0265  0.0009
 1827W        W17961   0.394   6.593  12.326  0.0188  0.2133  0.3008
 1828W        W17962   4.071  12.977   0.024  0.1176  0.0651  0.2631
 1829W        W17963  15.666  13.788   0.223 -0.0820 -0.2997 -0.0555
 1830W        W17964   5.735   8.483   0.308 -0.0658  0.2403 -0.3263
 1831W        W17965   0.318   3.094  13.553 -0.0893 -0.2506  0.2013
 1832W        W17966  17.992  17.963  13.644 -0.4791 -0.2155  0.0039
 1833W        W17967   4.278   9.382  13.430 -0.0503  0.0058 -0.0552
 1834W        W17968  10.228  12.735  12.511  0.3327 -0.3110  0.3285
 1835W        W17969  16.442   3.059  16.128 -0.0435 -0.3140  0.1198
 1836W        W17970   9.677   2.972   5.907 -0.3634  0.2335 -0.1684
 1837W        W17971   9.332   1.406  15.331  0.2112 -0.0832  0.0589
 1838W        W17972   3.670   7.064   0.869  0.3329  0.2999  0.0917
 1839W        W17973   1.326   9.610   1.987  0.0063 -0.0652  0.3103
 1840W        W17974  10.182   1.019  15.812  0.2318  0.3753  0.0461
 1841W        W17975   5.731   4.075   3.946  0.0965 -0.0162 -0.1357
 1842W        W17976  17.872   4.403   4.549 -0.1847  0.0008  0.0947
 1843W        W17977   9.727   3.910  16.322  0.0134 -0.2838  0.3421
 1844W        W17978   7.373  12.114  10.425 -0.0276 -0.1963  0.0073
 1845W        W17979   7.320   2.333   2.733 -0.1446 -0.1945 -0.1206
 1846W        W17980   6.312   8.583  15.129 -0.0081  0.0224 -0.3149
 1847W        W17981   9.571   6.596  14.539 -0.0354  0.0725 -0.1139
 1848W        W17982   1.547   1.101   4.079  0.1013 -0.0242 -0.2052
 1849W        W17983  11.243   5.278  14.761 -0.0681 -0.0381 -0.0700
 1850W        W17984   7.180   4.020   4.263 -0.2065  0.2264  0.3229
 1851W        W17985  12.478   6.249   3.386  0.1565  0.1026 -0.2019
 1852W        W17986   1.982   3.503   0.587  0.1479 -0.0668  0.0432
 1853W        W17987   9.032  17.159   3.882  0.0511 -0.2210  0.2009
 1854W        W17988   9.500  15.123  13.109 -0.2122  0.0298  0.1243
 1855W        W17989  17.781   0.149  12.897  0.0139 -0.0393 -0.2863
 1856W        W17990   7.395  11.001  15.842 -0.0526 -0.0339 -0.0954
 1857W        W17991  16.072   1.993  13.578 -0.2970  0.0498 -0.2370
 1858W        W17992   2.955   6.084   1.072 -0.0830 -0.0899 -0.1608
 1859W        W17993  13.342  11.614  15.081  0.0165  0.4401 -0.2980
 1860W        W17994   0.913   6.042   1.550  0.1351  0.1128 -0.0633
 1861W        W17995   9.390  17.699   5.167 -0.0691 -0.0105  0.1739
 1862W        W17996  14.151   4.233   3.245  0.1232 -0.0951 -0.0591
 1863W        W17997  15.133   5.694   3.062  0.3297 -0.1286  0.1265
 1864W        W17998   4.559  17.134   0.284  0.0616  0.1625  0.0468
 1865W        W17999   4.914  15.620   3.695 -0.1921  0.0827  0.0358
 1866W        W18000   6.807   2.820   0.923 -0.0206 -0.1835  0.0324
 1867W        W18001   9.886   0.108   4.414  0.2179  0.0106 -0.1301
 1868W        W18002  11.389   7.751   0.340 -0.2492  0.2045 -0.0607
 1869W        W18003  16.767  14.622   1.663 -0.0111 -0.1029  0.2844
 1870W        W18004  12.093   4.586   2.191 -0.0072  0.3240 -0.1553
 1871W        W18005   7.936   5.671   0.278 -0.2084 -0.0935 -0.2621
 1872W        W18006   5.119  11.797  11.390  0.1115 -0.0856  0.1412
 1873W        W18007  18.029   0.352  13.260 -0.1973 -0.0756 -0.4091
 1874W        W18008   4.075  15.834  11.329 -0.0156  0.0098 -0.0774
 1875W        W18009  12.071   2.421  13.964 -0.2085  0.0230 -0.1096
 1876W        W18010   8.345   5.463  15.344 -0.1626 -0.4142  0.1249
 1877W        W18011  11.222   3.832   1.751  0.1742  0.2409  0.2876
 1878W        W18012   3.728   1.839  14.734 -0.2372 -0.0364  0.0690
 1879W        W18013   8.716  11.421  11.623  0.1754 -0.0800 -0.1475
 1880W        W18014   2.129  15.809  14.517  0.0254 -0.0970 -0.1598
 1881W        W18015  10.516  10.676  16.306 -0.1393  0.2270  0.0292
 1882W        W18016  17.554  13.036  14.005  0.0431  0.2897  0.1947
 1883W        W18017  15.001   7.109  13.220 -0.0876 -0.0009  0.1126
 1884W        W18018   3.366  14.033  15.429 -0.2564  0.0348 -0.3986
 1885W        W18019   0.323   5.635  11.197  0.1031 -0.1430  0.0398
 1886W        W18020   4.670  11.621   2.290  0.2609 -0.2836  0.0563
 1887W        W18021   2.874  10.033   3.602 -0.0173 -0.0121  0.5068
 1888W        W18022  17.482   1.032   4.302  0.1466  0.2368 -0.0784
 1889W        W18023  13.478  15.608   4.408 -0.1248  0.1676  0.1896
 1890W        W18024   2.480  15.087  14.307 -0.2325  0.1784 -0.0232
 1891W        W18025  11.503  15.092  13.329 -0.1803 -0.0859 -0.1315
 1892W        W18026  10.248  13.918  12.311  0.2878 -0.0597 -0.1382
 1893W        W18027   8.651   0.804   5.242  0.1706  0.1481  0.0238
 1894W        W18028  10.063   7.779  13.061  0.1877 -0.0142  0.2220
 1895W        W18029  15.743  17.394  15.224 -0.0599 -0.0452  0.0107
 1896W        W18030  17.372  15.300  15.046 -0.1168  0.0623 -0.0130
 1897W        W18031   2.770   7.310   0.769 -0.0488 -0.0803  0.1942
 1898W        W18032  17.626   6.192  12.729  0.3624 -0.1384 -0.0101
 1899W        W18033   7.513  12.508   2.164  0.0497 -0.2130  0.1835
 1900W        W18034   9.391   7.418  12.340 -0.2486 -0.0582  0.2894
 1901W        W18035  10.910  14.172  15.331 -0.1376 -0.1740  0.0085
 1902W        W18036   1.180   7.699  11.466  0.1611  0.1213 -0.1500
 1903W        W18037   1.889   6.918  14.861  0.0862  0.0276  0.1303
 1904W        W18038   2.418   2.239  13.154 -0.3128 -0.2020  0.1708
 1905W        W18039   9.738  14.582   5.045  0.0166  0.1872 -0.1183
 1906W        W18040  15.301   0.292  13.427 -0.0041  0.0410 -0.3233
 1907W        W18041   3.912   9.696   0.270 -0.1155 -0.1278  0.0906
 1908W        W18042   5.137  15.806  12.070 -0.0724  0.0301  0.0437
 1909W        W18043   4.653   5.954   4.137  0.0552  0.0165  0.2593
 1910W        W18044  17.700  16.538   2.808  0.0221  0.4622  0.2490
 1911W        W18045   0.977  11.786   1.576  0.0376 -0.0903 -0.2325
 1912W        W18046   4.674   9.299   0.567 -0.0934 -0.3511 -0.1081
 1913W        W18047   5.496   8.711  12.938 -0.1227 -0.3897 -0.0928
 1914W        W18048   1.642   6.019  12.174 -0.0194 -0.1156  0.4059
 1915W        W18049   5.555   7.764   0.700 -0.1362  0.1205  0.1586
 1916W        W18050   7.980   6.857   0.986 -0.2031  0.0587 -0.1475
 1917W        W18051   1.751   5.167   0.849 -0.0672  0.0130  0.1839
 1918W        W18052   8.783  16.573  11.656  0.1693  0.1048 -0.0713
 1919W        W18053  14.939   9.862  13.347 -0.0088 -0.2157 -0.1692
 1920W        W18054   0.946   3.049   3.110  0.0829  0.4337  0.0739
 1921W        W18055  10.284  12.727   2.915 -0.1792  0.1441  0.5616
 1922W        W18056   0.993  15.931  13.557  0.0917  0.0491 -0.1522
 1923W        W18057   5.144  17.265  15.279  0.0813  0.1638 -0.0624
 1924W        W18058   4.082  14.423   1.482  0.2958  0.1046  0.2162
 1925W        W18059   4.534  17.861   3.193 -0.0821 -0.0993 -0.1862
 1926W        W18060   1.100  12.168   1.282  0.0351 -0.0427 -0.0534
 1927W        W18061   1.494  14.868  14.424  0.2199 -0.0929  0.1896
 1928W        W18062   1.492  16.150   2.623 -0.0229  0.0336 -0.1837
 1929W        W18063   0.819   5.689  15.483  0.2266  0.1478  0.0698
 1930W        W18064   3.659  12.791  13.461  0.3480  0.2733  0.2599
 1931W        W18065   8.622   5.087  12.009  0.0365 -0.2046 -0.1024
 1932W        W18066   7.881   5.172  13.196  0.0619  0.0193  0.1375
 1933W        W18067   1.801   7.121   1.559 -0.2091 -0.1232 -0.2639
 1934W        W18068   7.794  14.517  13.857 -0.1872 -0.2036 -0.1393
 1935W        W18069  16.877   0.661  14.016  0.1288  0.0395  0.0570
 1936W        W18070   1.526   1.718   2.612 -0.0594 -0.2172 -0.1394
 1937W        W18071  16.440   6.710   3.379  0.0099 -0.0163  0.0822
 1938W        W18072  12.934   2.417   2.827  0.1881  0.0155  0.2026
 1939W        W18073  13.873  16.487   2.235  0.0639  0.2008  0.0955
 1940W        W18074   4.191  16.616  12.416  0.1384 -0.1619 -0.2633
 1941W        W18075   1.470  12.906   0.762  0.1125 -0.1283 -0.2044
 1942W        W18076   3.433  11.904  14.709  0.0503 -0.2453  0.0568
 1943W        W18077   7.223  12.865   0.677  0.0834 -0.0822 -0.2003
 1944W        W18078  14.825  12.284   4.199  0.1177  0.0749  0.1086
 1945W        W18079  17.384  13.255  14.524 -0.1025 -0.0285 -0.0690
 1946W        W18080  16.055   7.086  14.061 -0.2143 -0.3063  0.0424
 1947W        W18081  17.392  13.358  15.399 -0.0757 -0.1252 -0.2048
 1948W        W18082   6.169   4.061  14.861 -0.0681 -0.2591  0.0283
 1949W        W18083   7.343  15.645   5.580 -0.0895 -0.1234  0.1764
 1950W        W18084  11.069  16.744  13.744 -0.1069  0.0494 -0.0097
 1951W        W18085  10.120  10.937   2.528  0.0335  0.0237  0.1671
 1952W        W18086  10.902   0.462  10.354 -0.0799  0.4436  0.2355
 1953W        W18087   7.356   9.494  13.650 -0.0796 -0.1574  0.4330
 1954W        W18088   9.893   2.406   0.500 -0.3578 -0.0743 -0.0943
 1955W        W18089  17.232   3.075  11.458 -0.1179  0.0219 -0.3315
 1956W        W18090   4.780  13.924  11.880  0.0672  0.0748  0.1075
 1957W        W18091  14.809  11.071   2.189 -0.0990 -0.1192 -0.0031
 1958W        W18092   9.136   3.582  11.028 -0.1056 -0.3158 -0.3338
 1959W        W18093   3.736  12.201  12.988  0.1832  0.2503 -0.2558
 1960W        W18094  13.967   0.457   0.358 -0.1852 -0.3405 -0.0244
 1961W        W18095   0.189   1.777  16.321 -0.2229 -0.4579 -0.1146
 1962W        W18096   8.269   7.908  12.668  0.0804 -0.2179  0.2931
 1963W        W18097   9.166   2.766   2.271  0.5201  0.0133  0.0676
 1964W        W18098  10.246   7.063  14.942  0.0750  0.0480 -0.2143
 1965W        W18099   2.015   7.108   0.425 -0.0019  0.2493 -0.1377
 1966W        W18100  12.083   3.822  14.444 -0.0872  0.1388 -0.1338
 1967W        W18101  14.735  15.801  13.279 -0.0400  0.0597 -0.2786
 1968W        W18102  12.419   1.951  13.044 -0.0770 -0.1064 -0.2590
 1969W        W18103  11.735   4.392  15.708 -0.0770 -0.3353  0.1175
 1970W        W18104   2.597  12.789   5.054 -0.0405  0.0227 -0.0038
 1971W        W18105  11.632   8.449  12.308  0.4739  0.0506  0.1513
 1972W        W18106  16.647  17.691  10.271 -0.1942 -0.1123 -0.4146
 1973W        W18107   8.553   6.111   0.719  0.2208 -0.0640 -0.2273
 1974W        W18108   0.461  12.679  15.207  0.0838 -0.2953  0.1903
 1975W        W18109  16.550   8.162  13.963  0.1480  0.0410 -0.2312
 1976W        W18110  10.551   1.488   0.291  0.1004 -0.0831 -0.0367
 1977W        W18111   6.109  16.691   3.921 -0.0105 -0.0518  0.0411
 1978W        W18112   2.560   8.499   4.667  0.1689  0.0638  0.1739
 1979W        W18113   4.625   7.873   3.731 -0.0303 -0.1165 -0.1219
 1980W        W18114   8.459  16.470   0.888 -0.2196  0.2589 -0.4100
 1981W        W18115   0.012   8.742   4.133 -0.2583 -0.1443 -0.0504
 1982W        W18116  13.667   7.456   5.226  0.0386  0.1856  0.2367
 1983W        W18117   1.505   6.435  12.538 -0.0842  0.0801 -0.0091
 1984W        W18118  12.215  12.051   5.069  0.1897  0.1886 -0.1333
 1985W        W18119  13.205   0.467  11.941 -0.0302  0.2714  0.0415
 1986W        W18120   1.426   7.676  12.040 -0.0572 -0.3512  0.1629
 1987W        W18121   7.090   3.199  11.697  0.3066 -0.0962 -0.3275
 1988W        W18122   9.949   4.898   2.362 -0.0460  0.2748  0.0953
 1989W        W18123  12.401   7.976  14.205 -0.1669  0.1530  0.0313
 1990W        W18124   4.794   2.633   5.385  0.1905 -0.2384 -0.0341
 1991W        W18125   8.952   8.901   3.376  0.1117  0.0563  0.3945
 1992W        W18126   0.268  14.256  16.165 -0.5112  0.3583  0.1013
 1993W        W18127   4.957   9.900  13.274 -0.0078 -0.1785  0.2377
 1994W        W18128  11.871  17.632   2.946  0.1358 -0.0478 -0.3865
 1995W        W18129  10.565  13.874   1.238  0.0106 -0.2095  0.0234
 1996W        W18130  14.857  13.174  10.138  0.1076 -0.1769  0.0190
 1997W        W18131   3.981   8.445   1.405 -0.0632 -0.1798  0.3042
 1998W        W18132  10.258  10.848   5.801 -0.0850 -0.0307  0.0290
 1999W        W18133   0.562   2.692   4.485  0.3634 -0.1937  0.1968
 2000W        W18134  11.043  14.476  12.742 -0.0623  0.2314  0.0601
 2001W        W18135   5.873   7.006  15.089  0.0642  0.0825  0.3799
 2002W        W18136   6.175   5.188   2.163 -0.3735  0.1721  0.0375
 2003W        W18137  10.237   4.083  15.132  0.4164 -0.0123  0.4050
 2004W        W18138  14.197   4.214   1.230 -0.1151 -0.2489 -0.2001
 2005W        W18139   9.529  15.075  15.737  0.0383  0.0944  0.1353
 2006W        W18140   8.784  11.706  15.175  0.2039 -0.1044 -0.2382
 2007W        W18141   0.772  16.844  13.817  0.1305 -0.2728 -0.0129
 2008W        W18142  13.210   2.988  11.852  0.0716  0.1916  0.3863
 2009W        W18143   4.594   0.142  15.391 -0.0973  0.1546  0.1323
 2010W        W18144  10.314  14.680   2.813 -0.0188  0.0548 -0.0090
 2011W        W18145   5.114   3.382  14.278 -0.3401  0.0799 -0.2048
 2012W        W18146  16.319   4.846   4.893 -0.3267 -0.3194  0.0145
 2013W        W18147  10.569   0.310   1.889  0.0524 -0.0240 -0.0349
 2014W        W18148   6.510  16.756   4.866  0.0684  0.1016  0.0333
 2015W        W18149  12.469   2.487   5.250 -0.3781 -0.0163 -0.0102
 2016W        W18150  13.541  15.795  12.074 -0.0345  0.1094 -0.1564
 2017W        W18151  10.807   3.328   1.686 -0.2289 -0.1970  0.2997
 2018W        W18152   7.533  17.076  11.144 -0.0257 -0.2378 -0.1720
 2019W        W18153  11.767   1.060  15.319 -0.1954  0.1046  0.2744
 2020W        W18154  13.180   4.069   3.938 -0.0385  0.0989  0.2450
 2021W        W18155   4.482   3.861  16.134  0.0127  0.2172  0.0730
 2022W        W18156  12.171   5.368   1.640 -0.1541  0.0598  0.1319
 2023W        W18157  10.189  16.544  14.846  0.1644  0.0419  0.0266
 2024W        W18158   0.163   7.433  15.904 -0.1412  0.0551  0.2351
 2025W        W18159   5.531   5.314  11.435  0.2685 -0.2824  0.3146
 2026W        W18160  17.193   7.370  13.721  0.0319  0.1624 -0.1114
 2027W        W18161  12.152  14.033   3.563 -0.2351  0.0287 -0.2121
 2028W        W18162  11.962   0.218   0.059  0.0777  0.1774 -0.1789
 2029W        W18163   5.501  17.780   1.611  0.3672  0.1818 -0.0472
 2030W        W18164   7.610   0.019  13.622  0.1630  0.3225  0.0782
 2031W        W18165  15.744   0.283   3.618 -0.1545 -0.1919 -0.3410
 2032W        W18166   7.769  12.275  15.584  0.1501  0.1918  0.0005
 2033W        W18167  11.904   1.500  15.389  0.1359 -0.3340 -0.0253
 2034W        W18168  16.601  10.197  14.514 -0.0307 -0.3348  0.0766
 2035W        W18169  11.866   7.958  11.090 -0.1060  0.0671 -0.2165
 2036W        W18170   4.718   2.021   4.095  0.0157  0.2058  0.1333
 2037W        W18171  14.525  16.612  15.332 -0.0804  0.3283 -0.1429
 2038W        W18172  17.474   5.446   4.014  0.0994 -0.0910 -0.2546
 2039W        W18173   9.531   2.652  15.627 -0.0122  0.1588 -0.1628
 2040W        W18174  14.260  14.612   1.960  0.1887  0.0481  0.3006
 2041W        W18175   6.250  12.190  12.895 -0.2239  0.2777 -0.1297
 2042W        W18176   5.969   6.865   0.874 -0.3847 -0.0241  0.2883
 2043W        W18177   6.317   3.151  13.005  0.0325  0.1846  0.3503
 2044W        W18178   5.198  13.832  10.337 -0.2731  0.2089 -0.3510
 2045W        W18179  13.152  16.452  13.618 -0.2597 -0.0970  0.1768
 2046W        W18180   5.559  14.921   4.666 -0.0270  0.0458  0.0119
 2047W        W18181   7.885  18.013   4.665 -0.0345  0.0082  0.1837
 2048W        W18182  16.459  16.220   0.117  0.0944 -0.3059  0.2665
 2049W        W18183   3.083   7.872   0.787 -0.0867  0.1042 -0.1844
 2050W        W18184  12.801   6.208  12.027 -0.2274  0.1589  0.1542
 2051W        W18185  17.121   5.140  16.225 -0.2773 -0.0222 -0.2899
 2052W        W18186   7.984   3.825  11.984  0.2167 -0.1608 -0.0854
 2053W        W18187   9.730   1.350   2.898  0.0092 -0.0664  0.0229
 2054W        W18188  17.836  14.310  12.169 -0.0024 -0.2561 -0.1255
 2055W        W18189   1.344  12.191   4.279 -0.0013 -0.1372 -0.1141
 2056W        W18190  11.728  10.715  11.579 -0.0154  0.0191 -0.0850
 2057W        W18191   5.146  13.522  14.855 -0.0918  0.3274  0.0532
 2058W        W18192   9.110  15.839   5.432 -0.3457 -0.1189  0.2510
 2059W        W18193   4.388   4.737  14.948 -0.3961 -0.1998 -0.0709
 2060W        W18194   7.154   5.968  12.605 -0.1699 -0.1507  0.3062
 2061W        W18195   0.722  14.641  13.243 -0.0551 -0.0422  0.1580
 2062W        W18196   1.909  17.882   1.366  0.0885  0.0110  0.1911
 2063W        W18197  14.995   1.428   1.910 -0.2459  0.0093  0.0882
 2064W        W18198   9.022  17.708   2.464 -0.3839  0.2030 -0.0931
 2065W        W18199   0.710   9.524  15.721  0.3073  0.1539 -0.1390
 2066W        W18200   5.092   1.268   6.490 -0.2724  0.0031  0.0656
 2067W        W18201   0.996   4.493  13.926 -0.1092 -0.1054 -0.2916
 2068W        W18202   9.846   6.043   3.010  0.1812 -0.0289  0.1181
 2069W        W18203   9.141   4.995  15.974  0.0080 -0.1588  0.2104
 2070W        W18204  13.674  17.685   3.084 -0.0632  0.2120  0.1158
 2071W        W18205   0.114   1.639   4.064  0.1113  0.2713 -0.1057
 2072W        W18206  11.521   3.044   5.111  0.0388  0.0522 -0.1192
 2073W        W18207  15.974   6.378  15.465  0.0232  0.2362 -0.1185
 2074W        W18208   4.966  17.394  11.773 -0.1308  0.1562  0.2873
 2075W        W18209   7.916  17.961  11.024 -0.0116 -0.1217 -0.0528
 2076W        W18210  16.553   5.796   4.056  0.3283 -0.0986  0.2096
 2077W        W18211  16.087   5.149   1.019 -0.0332  0.0417  0.0891
 2078W        W18212  11.094   9.882  16.377  0.0051  0.0537  0.1572
 2079W        W18213   7.468  14.401   3.157  0.1932 -0.0332  0.0018
 2080W        W18214   6.933   7.729  16.119 -0.0080 -0.1428 -0.1690
 2081W        W18215  16.074   7.475  14.881  0.0603  0.5103 -0.0898
 2082W        W18216   7.142  15.756  14.385  0.2009 -0.4138  0.0844
 2083W        W18217  12.614  15.646  12.524  0.1104 -0.2896 -0.2136
 2084W        W18218  17.786  17.312  14.965 -0.2501 -0.0413  0.0537
 2085W        W18219  14.511  13.847   5.208  0.2541 -0.0196 -0.2493
 2086W        W18220  12.143  13.985   3.063 -0.1696  0.0948 -0.3254
 2087W        W18221   0.908   2.373   4.234 -0.0213 -0.1925  0.1643
 2088W        W18222  16.343   8.012   1.349 -0.0290 -0.0129  0.1601
 2089W        W18223  10.840   3.943   5.806 -0.1080 -0.0200 -0.0141
 2090W        W18224   7.387  13.665  15.925 -0.0475 -0.2144  0.1295
 2091W        W18225  12.778  14.153  11.109 -0.2998 -0.0041  0.0336
 2092W        W18226  17.736   6.660   4.684 -0.0352 -0.0561 -0.0348
 2093W        W18227  11.421   2.262  12.930 -0.0537  0.1167  0.1832
 2094W        W18228   1.423   2.616   3.355 -0.1053 -0.0684 -0.1570
 2095W        W18229   3.175   7.321   4.540  0.2413  0.2108  0.0531
 2096W        W18230  17.928   2.472   2.276  0.0656  0.2893  0.2294
 2097W        W18231   1.097   2.090  15.561 -0.0617  0.1739  0.1608
 2098W        W18232  13.878   0.036   3.819 -0.2575 -0.1708  0.2377
 2099W        W18233   4.890   1.795  13.584  0.0933  0.0998  0.3589
 2100W        W18234   1.303  12.615   3.870 -0.1280  0.1050  0.1963
 2101W        W18235  16.256   5.431  15.742 -0.1063 -0.0367 -0.2166
 2102W        W18236  15.142  13.343  12.197  0.0579  0.0250  0.0062
 2103W        W18237   9.764  12.765   1.900  0.2908  0.1314  0.1669
 2104W        W18238  11.432   6.426  15.376  0.0241 -0.3059 -0.0315
 2105W        W18239  14.128   8.448   2.286 -0.2274 -0.0181  0.1429
 2106W        W18240  16.262  14.717   2.981 -0.1045  0.2467 -0.2142
 2107W        W18241  16.824  14.738  14.456  0.2876 -0.1185 -0.0876
 2108W        W18242  12.909  10.888   4.701 -0.1366 -0.4330 -0.4109
 2109W        W18243  12.113   3.367  14.260  0.0866  0.0398 -0.2384
 2110W        W18244  16.531   4.479  12.031 -0.1779 -0.1200  0.2755
 2111W        W18245  16.805   0.623   0.721 -0.0579  0.0577 -0.0044
 2112W        W18246   4.684   4.936   0.733  0.1144  0.2040  0.1274
 2113W        W18247   9.296   6.292   3.635 -0.2160 -0.1000 -0.0267
 2114W        W18248   0.345  11.079   2.367 -0.1712  0.1545  0.1692
 2115W        W18249   1.886   5.661  11.856  0.0723  0.1568  0.2515
 2116W        W18250  12.852   0.338   2.197  0.0571 -0.3564  0.1918
 2117W        W18251   3.604   7.842   0.583 -0.0437 -0.2043 -0.2360
 2118W        W18252   4.972   8.517   1.648  0.1694  0.0684  0.1679
 2119W        W18253   9.101   8.751   0.135  0.0642 -0.1611  0.1412
 2120W        W18254  10.275   3.156  13.506  0.1621  0.2015  0.2957
 2121W        W18255   5.562   0.697  16.315  0.0671 -0.1031  0.1832
 2122W        W18256  15.599   5.532   2.778  0.0268  0.2201  0.0194
 2123W        W18257   5.939   8.524   3.491  0.0633  0.0009 -0.2860
 2124W        W18258   0.881   4.674  15.793  0.1367 -0.0816  0.3691
 2125W        W18259   4.731  10.199   3.958  0.0490 -0.0475 -0.1476
 2126W        W18260  15.885   5.503  14.926 -0.3974 -0.2926  0.0105
 2127W        W18261  16.633  14.372   3.587 -0.0836 -0.0088  0.4157
 2128W        W18262   6.460  10.516  14.429 -0.0468 -0.1846 -0.0480
 2129W        W18263   1.756   3.206   4.195 -0.2171  0.2890  0.3121
 2130W        W18264   4.023  14.596   0.088  0.1096 -0.1086 -0.2473
 2131W        W18265   5.521   7.996   0.277 -0.3455 -0.0246  0.3307
 2132W        W18266   6.909   9.918  13.849  0.2430  0.2547  0.0307
 2133W        W18267  14.763   0.274   0.195  0.0255  0.0498  0.2216
 2134W        W18268   2.001  17.700  16.406  0.0162  0.0153 -0.2503
 2135W        W18269  10.164   2.015   0.326  0.1769  0.3097 -0.0363
 2136W        W18270   5.556   5.691   3.660  0.0093 -0.0231  0.2460
 2137W        W18271  13.765   9.159   3.855 -0.1210 -0.0162  0.2245
 2138W        W18272  13.661   8.930  13.788  0.1348  0.0433  0.2945
 2139W        W18273   2.255  13.744  15.807  0.1276  0.0162 -0.0160
 2140W        W18274  12.737   3.520  16.221 -0.1402 -0.1315 -0.2942
 2141W        W18275  17.145   2.109   3.326 -0.2393  0.2334 -0.0334
 2142W        W18276   4.190  12.149  13.943  0.0214  0.0386  0.1900
 2143W        W18277   9.253  16.558   3.393  0.2141 -0.0675  0.1409
 2144W        W18278  15.499  12.295   5.718  0.1431  0.0517  0.2322
 2145W        W18279  15.082   6.688   5.269 -0.1473  0.0732 -0.0841
 2146W        W18280  12.414   6.058  15.069 -0.0242  0.1441  0.2054
 2147W        W18281   8.034   7.650   2.447 -0.0298 -0.0080  0.0745
 2148W        W18282  16.034   2.438  13.339  0.1235  0.1058  0.1339
 2149W        W18283  14.591   0.120  15.315 -0.2866  0.0923  0.4387
 2150W        W18284   0.047   1.085  10.869  0.1260 -0.1366 -0.0942
 2151W        W18285  11.740  11.580  13.714  0.1918  0.4365 -0.0546
 2152W        W18286   9.453   0.518  11.634 -0.1990 -0.0539 -0.0516
 2153W        W18287   0.202  12.795   3.136 -0.0755  0.2680  0.0259
 2154W        W18288   7.587   3.240  13.498 -0.1721  0.1034  0.2027
 2155W        W18289  15.627   6.457   2.270 -0.1920  0.0553 -0.0949
 2156W        W18290  16.981   9.465   3.598 -0.0945  0.3047 -0.4505
 2157W        W18291   3.527   2.797   1.428  0.5228 -0.1334 -0.0046
 2158W        W18292  14.947  10.234   2.808 -0.0410 -0.0974 -0.1964
 2159W        W18293   3.289  14.434  15.861  0.0294 -0.2297  0.0346
 2160W        W18294  15.532  13.771  16.096 -0.0393 -0.0619  0.6252
 2161W        W18295   9.486  16.079   5.733  0.1307  0.1598 -0.0792
 2162W        W18296  14.496   2.497   2.042  0.1655 -0.1482  0.0567
 2163W        W18297   5.761  16.952   0.754 -0.0899  0.3297  0.1767
 2164W        W18298  17.804   0.936   2.628 -0.0133  0.0766  0.2179
 2165W        W18299  10.295   9.838  11.150  0.2415  0.5561 -0.2844
 2166W        W18300   2.191   5.941  11.474 -0.1950  0.0602 -0.0684
 2167W        W18301  16.349  15.900   2.678  0.1470 -0.1478  0.1782
 2168W        W18302   5.990   1.014  15.807  0.1219 -0.0745  0.1190
 2169W        W18303   2.407   9.387   5.841  0.2425 -0.0255  0.0318
 2170W        W18304  13.433  11.695   1.294  0.0606 -0.0838 -0.0142
 2171W        W18305  12.050   8.590   4.786 -0.0208  0.4011 -0.2835
 2172W        W18306   7.589   8.893  14.426  0.1456 -0.1183  0.4017
 2173W        W18307  15.704   9.954  14.033 -0.1654  0.1063 -0.1785
 2174W        W18308   8.770  15.131   3.593  0.4034 -0.1027 -0.2867
 2175W        W18309   6.084   5.050  12.522 -0.1714  0.0095  0.0647
 2176W        W18310   6.196   5.553  15.389  0.1640 -0.3071 -0.0736
 2177W        W18311  14.171   6.397  11.234 -0.1873  0.1442  0.1554
 2178W        W18312   4.530   8.979  11.930  0.2171  0.0461 -0.0223
 2179W        W18313  16.484  17.836   3.053  0.3253  0.2087 -0.0596
 2180W        W18314   7.065  13.941  11.572  0.1087  0.1317 -0.0222
 2181W        W18315   5.880   4.605   5.103 -0.1553  0.1245 -0.3523
 2182W        W18316   0.918   0.205   3.071  0.1592  0.0354  0.0475
 2183W        W18317   6.081   9.324  11.589 -0.1190  0.2732 -0.2503
 2184W        W18318  10.678  13.149   4.715  0.0471 -0.1107 -0.3218
 2185W        W18319   8.775  11.002   4.195  0.2369  0.0315 -0.1990
 2186W        W18320   1.148   0.448  15.877  0.3902  0.2003  0.0296
 2187W        W18321   9.481  10.567  15.170 -0.3098 -0.2989  0.1889
 2188W        W18322  14.068   8.156  13.236  0.2285  0.1827 -0.2554
 2189W        W18323  16.932  16.129  12.587  0.0027  0.0356 -0.2176
 2190W        W18324  11.218  16.707  14.795 -0.1749 -0.2624  0.0371
 2191W        W18325  16.078   4.765   3.852  0.2614 -0.3026 -0.0739
 2192W        W18326   2.557  13.202  14.979  0.1112  0.0683  0.0712
 2193W        W18327   9.340  10.602  13.827 -0.1628 -0.0920 -0.0823
 2194W        W18328   1.795   1.832   2.185 -0.1671  0.2735 -0.1069
 2195W        W18329   6.652   2.295   6.166 -0.0467  0.3002 -0.2204
 2196W        W18330  15.548  10.436  10.970  0.3673 -0.0961  0.0300
 2197W        W18331   4.692   2.946  11.165  0.1208  0.0881  0.1600
 2198W        W18332   0.744  12.291   0.836 -0.3307 -0.1631 -0.0774
 2199W        W18333   0.589  14.406  15.504  0.2228  0.2046 -0.3365
 2200W        W18334  10.067   4.784  11.074  0.1756  0.0280 -0.0589
 2201W        W18335  15.051   2.578   0.633 -0.1200 -0.2980 -0.3574
 2202W        W18336   2.216   5.310   4.588 -0.3036 -0.2455  0.2043
 2203W        W18337  10.165   7.375  10.709  0.1427 -0.0857  0.0255
 2204W        W18338   4.679   6.260   0.547 -0.0175 -0.0031 -0.0082
 2205W        W18339  16.953  15.310   4.771 -0.1235 -0.3056  0.1813
 2206W        W18340   9.487  14.380   1.807  0.0868 -0.3589  0.1218
 2207W        W18341   3.848   2.710   2.361 -0.4646  0.4689 -0.0784
 2208W        W18342   6.951  13.586  12.409  0.0564 -0.0485  0.0981
 2209W        W18343  16.105   1.136  13.947  0.0043  0.1401  0.0543
 2210W        W18344  17.025  14.252  13.844 -0.1330 -0.2925 -0.1543
 2211W        W18345   1.527   1.928   0.110 -0.1649 -0.1261  0.0275
 2212W        W18346  11.221   8.961   4.852 -0.1455  0.4951 -0.0690
 2213W        W18347   8.901   1.372  11.956  0.1200  0.2398 -0.0220
 2214W        W18348   2.912  15.214   1.752 -0.0965 -0.0965  0.0023
 2215W        W18349   2.608   1.266  15.740 -0.0772  0.0443 -0.0994
 2216W        W18350  10.730  11.270  15.733 -0.1323  0.1256  0.0183
 2217W        W18351  13.115  10.000  14.640  0.1286 -0.3043 -0.2514
 2218W        W18352   1.195   7.404   2.706  0.3175 -0.3156 -0.1594
 2219W        W18353   5.284   8.999   5.975  0.0488  0.1135  0.0347
 2220W        W18354  12.690  12.403   4.228 -0.1686 -0.3793 -0.1554
 2221W        W18355   0.964   3.565   4.453 -0.0428  0.0140  0.0306
 2222W        W18356   1.292   9.115   4.686  0.4955  0.3707 -0.0524
 2223W        W18357  13.204  15.252   3.612 -0.1605  0.0046  0.0143
 2224W        W18358   5.379  16.328   1.790 -0.2145  0.0888  0.2861
 2225W        W18359   7.211  14.934   5.377 -0.1430  0.0422 -0.1434
 2226W        W18360   5.337  13.374  16.300 -0.0895  0.0821 -0.1692
 2227W        W18361   0.214  11.659   0.320  0.0373 -0.3266 -0.0965
 2228W        W18362   4.134   9.482   2.911 -0.0781  0.2462 -0.2104
 2229W        W18363   9.421   3.647  14.435  0.0681  0.0173  0.2018
 2230W        W18364   5.065   7.559  14.996 -0.0129  0.1456 -0.0624
 2231W        W18365  12.292   2.349  12.714  0.2669 -0.0814  0.0382
 2232W        W18366   2.019   1.404   3.905 -0.3818 -0.3609 -0.0406
 2233W        W18367  13.210  14.813   3.859 -0.0744 -0.0732 -0.2724
 2234W        W18368   0.535   6.698  14.474 -0.1556  0.0559  0.0165
 2235W        W18369   4.183   8.843  15.263  0.3110  0.1596 -0.0802
 2236W        W18370  10.556  15.043   4.498 -0.0170 -0.3696 -0.1127
 2237W        W18371   5.718  14.419   1.210 -0.0122 -0.3615 -0.0060
 2238W        W18372  10.679  11.834   0.787 -0.5470  0.2686 -0.0570
 2239W        W18373  16.845   6.621  15.552 -0.2750  0.0627 -0.1380
 2240W        W18374   2.315   1.446   1.083  0.2358  0.0173  0.0485
 2241W        W18375  17.571   5.731   1.585  0.0582  0.0044  0.0921
 2242W        W18376  17.224  12.411  10.249 -0.0055 -0.2077 -0.2616
 2243W        W18377   6.930  13.835   2.700  0.1709  0.1564  0.2269
 2244W        W18378   8.136   2.197   0.775 -0.0388  0.2958  0.0616
 2245W        W18379   1.263   5.662  15.869  0.0259  0.2238  0.0666
 2246W        W18380  14.049  15.139  13.504  0.2328 -0.0595 -0.1871
 2247W        W18381   1.458  17.090  12.586 -0.2721 -0.0914  0.1206
 2248W        W18382   3.091  14.146  13.493 -0.1677  0.2252 -0.2335
 2249W        W18383  11.048  16.425   1.425  0.0473 -0.2505 -0.1661
 2250W        W18384  15.846   4.680   3.408 -0.0777 -0.1348 -0.2338
 2251W        W18385  14.701   4.861  12.816 -0.2633 -0.0974 -0.1407
 2252W        W18386  14.374   5.425  13.242 -0.2996  0.2619  0.1040
 2253W        W18387   4.953  10.460  15.984 -0.2667  0.2194 -0.0733
 2254W        W18388  17.423  17.565   3.602  0.0062 -0.3750  0.2161
 2255W        W18389  10.795  13.205  13.831  0.0572  0.0335 -0.0016
 2256W        W18390   9.453   3.170  11.005  0.0331 -0.2758 -0.1157
 2257W        W18391   4.625  16.848   4.251 -0.0145 -0.0290 -0.2302
 2258W        W18392   4.708   3.760  11.810  0.2334 -0.1251 -0.2599
 2259W        W18393   9.424  12.362  14.347  0.1110  0.4370  0.3510
 2260W        W18394   1.400   8.498  11.238 -0.4135 -0.0718  0.0232
 2261W        W18395  12.279  11.109  10.985 -0.1096 -0.1908  0.0054
 2262W        W18396   5.413  16.788   1.132  0.3264  0.0302  0.5504
 2263W        W18397   2.241  11.508   4.263 -0.3053  0.1404 -0.0275
 2264W        W18398   6.884  16.247  11.899  0.3682 -0.0161 -0.1355
 2265W        W18399   0.536   8.047  15.501  0.2788 -0.0137  0.0441
 2266W        W18400   2.635   1.784  12.073 -0.1179 -0.1073 -0.1434
 2267W        W18401   3.616  13.670   1.726  0.0162  0.0331 -0.1064
 2268W        W18402  15.842   2.964   4.887 -0.1175 -0.0765  0.1684
 2269W        W18403  11.417  10.347  15.086  0.0904  0.2134 -0.0239
 2270W        W18404  16.193  16.917   4.823 -0.2915  0.2323  0.0346
 2271W        W18405  13.860  15.420  14.269 -0.1884  0.1847 -0.1370
 2272W        W18406   1.601   5.154  14.023  0.1835 -0.1465 -0.0754
 2273W        W18407   9.621   0.196   3.945 -0.0783  0.1958 -0.0727
 2274W        W18408   9.616   5.140  13.532 -0.0007 -0.0056 -0.2399
 2275W        W18409   9.760   3.815  12.756 -0.0853  0.0581  0.0236
 2276W        W18410  15.810   9.871   3.779  0.1096  0.1509  0.0134
 2277W        W18411  11.523   7.122  12.438 -0.0769  0.0658 -0.0388
 2278W        W18412   3.144   1.364   2.418  0.0664 -0.1562 -0.0079
 2279W        W18413  16.500  12.203  12.222  0.0303  0.0197 -0.0861
 2280W        W18414  18.066  15.496  14.762  0.0746  0.1285  0.0960
 2281W        W18415   0.331  10.763  13.094  0.1411  0.0345 -0.1765
 2282W        W18416   5.616  15.759  10.402 -0.0977  0.4082 -0.0757
 2283W        W18417   6.126  10.299   6.225 -0.2281 -0.3772  0.0480
 2284W        W18418   0.747  11.663  11.676  0.2013  0.3421  0.2527
 2285W        W18419  11.431   1.380  11.191  0.2060  0.1314  0.3442
 2286W        W18420   8.635  10.900  16.336  0.0795  0.0008  0.0021
 2287W        W18421  17.790  11.787   4.662  0.0382 -0.2275  0.1330
 2288W        W18422   8.710  12.870   1.503  0.0688  0.1805 -0.0603
 2289W        W18423   5.309   5.817   5.220  0.2553  0.5240 -0.1060
 2290W        W18424  14.891   7.247   3.988 -0.1519  0.2452  0.1725
 2291W        W18425  17.048   8.078   3.405 -0.0997 -0.0997 -0.1923
 2292W        W18426  11.453  15.871   0.660  0.0064 -0.0096  0.2025
 2293W        W18427  11.269   1.680  11.534  0.0056 -0.0304 -0.1964
 2294W        W18428   1.310  11.817  15.640  0.1320 -0.0004  0.1432
 2295W        W18429   6.552   4.146   5.555  0.1947 -0.2850 -0.3025
 2296W        W18430  14.615   9.624  11.656 -0.2542 -0.0749 -0.1156
 2297W        W18431  15.497  14.509   2.433 -0.1512 -0.0405  0.0794
 2298W        W18432   4.441  12.295  14.341  0.1096  0.0593 -0.0465
 2299W        W18433  12.552   1.862   3.573  0.0238 -0.1489  0.1503
 2300W        W18434  13.506  13.947   4.271  0.1351  0.0453  0.0316
 2301W        W18435   2.431   8.707  14.938 -0.0689  0.0724  0.0052
 2302W        W18436  14.735  13.021   3.539  0.2520 -0.1705 -0.1229
 2303W        W18437   5.448   4.454   3.933  0.0749 -0.2409 -0.0955
 2304W        W18438  12.932   1.073   3.917 -0.3077  0.1781 -0.0217
 2305W        W18439  10.071  15.226   2.761  0.0110  0.3925  0.1840
 2306W        W18440   4.487   1.153   2.173  0.1605  0.0331 -0.0017
 2307W        W18441   6.646  13.888  12.978  0.1388 -0.0315  0.1270
 2308W        W18442  14.620   1.350   2.248  0.0464 -0.0395  0.1244
 2309W        W18443  10.043   2.373   2.228  0.1934 -0.1052 -0.0769
 2310W        W18444   4.507  14.361  11.894 -0.1574 -0.0315 -0.1709
 2311W        W18445  16.679   2.937   3.004  0.2199  0.0035 -0.2436
 2312W        W18446   1.433   7.138  13.076 -0.1680  0.0736 -0.1258
 2313W        W18447   7.776  15.298  15.488 -0.1780 -0.2205  0.0052
 2314W        W18448  10.565   1.566   3.587 -0.0600  0.2156  0.0099
 2315W        W18449  12.978   8.395   4.473 -0.1359  0.0389 -0.1112
 2316W        W18450  14.807  14.286  14.437  0.1874  0.0007 -0.0632
 2317W        W18451   0.324   6.392  15.506  0.0727 -0.0723  0.0936
 2318W        W18452   4.876   9.090   1.014 -0.2855  0.0686  0.0603
 2319W        W18453   2.583  10.363   2.417  0.0290  0.0982 -0.1216
 2320W        W18454  17.109  14.237   4.876  0.2257  0.2905 -0.1780
 2321W        W18455   9.144   9.926  13.242 -0.3019 -0.1278  0.1472
 2322W        W18456   0.400  15.871   6.159  0.0287 -0.0176 -0.1186
 2323W        W18457   9.383  17.161   1.317  0.2493  0.1322 -0.2043
 2324W        W18458   6.567  12.845  12.209 -0.0927  0.0413  0.2834
 2325W        W18459   5.192  13.368   2.577  0.1965 -0.0451 -0.2330
 2326W        W18460   1.398  16.687   2.503 -0.1493  0.1453  0.1807
 2327W        W18461   8.463  10.065  15.908  0.0889  0.1686  0.1883
 2328W        W18462   7.998   0.173  13.365  0.5053 -0.2210  0.0024
 2329W        W18463  13.468   9.419  13.872 -0.1222 -0.0241 -0.3357
 2330W        W18464   8.438   6.100   1.820  0.0722  0.0368  0.0462
 2331W        W18465   0.781   6.052  13.848 -0.2451  0.0377 -0.0109
 2332W        W18466  12.724   5.854  13.911 -0.4507 -0.0546  0.2040
 2333W        W18467   5.052   1.280  12.709 -0.1238  0.1905 -0.0877
 2334W        W18468  10.731  16.273   1.753 -0.0216 -0.1165  0.2389
 2335W        W18469  15.310   7.480  13.373  0.0995  0.1860  0.2142
 2336W        W18470   7.021   2.629   3.993  0.1253  0.0278  0.0719
 2337W        W18471   8.864  15.932  13.135  0.1126 -0.1337 -0.1252
 2338W        W18472   5.725  16.493  12.949 -0.1144 -0.1013  0.0465
 2339W        W18473   1.628  10.256  14.397  0.2881  0.3145  0.1531
 2340W        W18474   3.133  11.261   4.528  0.2064  0.0120 -0.1199
 2341W        W18475   6.202  11.399   4.987  0.2486  0.0862  0.0810
 2342W        W18476  12.451  12.106   0.175  0.2665  0.1991 -0.1583
 2343W        W18477   1.653   5.565   1.102 -0.2417 -0.0912 -0.1768
 2344W        W18478  11.030   7.003  10.635 -0.0881 -0.1170  0.2046
 2345W        W18479  13.091   1.569  15.513 -0.0754 -0.0678  0.3914
 2346W        W18480  17.817  15.582  11.831 -0.0746 -0.0571  0.0053
 2347W        W18481   8.454   5.551   4.262  0.0779  0.1303 -0.0525
 2348W        W18482  12.437  17.048   3.429  0.0623 -0.1022  0.0701
 2349W        W18483   4.314   6.665  14.799  0.0847  0.2241 -0.0669
 2350W        W18484  14.677  15.010   6.337  0.0619  0.1523 -0.0539
 2351W        W18485   5.132   7.561  15.687  0.1587  0.1282 -0.0727
 2352W        W18486  13.551  15.247  14.702  0.1762  0.0232 -0.0345
 2353W        W18487  10.687   1.020  12.799  0.0320 -0.0049  0.1642
 2354W        W18488  15.787  16.283   0.396 -0.2094 -0.1725  0.0807
 2355W        W18489   7.772   8.373  16.270 -0.3337  0.0812  0.0873
 2356W        W18490  16.132  17.940  11.789 -0.0739 -0.1841 -0.1063
 2357W        W18491  16.077  11.706  13.073 -0.2533 -0.0628 -0.0125
 2358W        W18492  16.280  11.995   1.811 -0.2107  0.1844  0.0012
 2359W        W18493   1.267   9.474   0.552 -0.0040  0.3134 -0.3274
 2360W        W18494   1.967   4.442   4.626 -0.0651  0.0332 -0.2048
 2361W        W18495   0.975  12.986   4.172  0.2003 -0.2583  0.0905
 2362W        W18496   1.918   8.333  13.719 -0.2275  0.0570  0.3976
 2363W        W18497   5.326   4.596  11.931  0.0595 -0.1474  0.1826
 2364W        W18498   2.047   4.840  14.849 -0.3230 -0.4787  0.2824
 2365W        W18499   5.055  17.544   5.351  0.1765  0.2638  0.0043
 2366W        W18500   3.004   2.649   1.582  0.3884  0.0111  0.0843
 2367W        W18501  13.541   6.691  11.646  0.0625 -0.0022  0.3693
 2368W        W18502  14.508   2.168  15.144  0.2842  0.2673  0.4036
 2369W        W18503   8.124   8.983   4.128  0.0986 -0.1194 -0.0973
 2370W        W18504   6.205  11.743  12.550  0.0042 -0.0289 -0.0062
 2371W        W18505  11.112  12.805   2.452 -0.1213 -0.2038 -0.2127
 2372W        W18506  15.867  16.544   4.153 -0.0516  0.0369  0.2309
 2373W        W18507   5.900  10.910   3.281  0.3228 -0.1070  0.0420
 2374W        W18508  11.755  12.428   1.440 -0.3226  0.0320  0.2692
 2375W        W18509   5.425  14.972   2.074 -0.1454 -0.2038 -0.3378
 2376W        W18510  18.093   1.893   4.499 -0.0444 -0.0383  0.2834
 2377W        W18511   4.506   5.197  12.903  0.0929 -0.1626 -0.0752
 2378W        W18512   3.691   2.473  13.511  0.2000 -0.2631 -0.3319
 2379W        W18513   8.099  11.055  15.374  0.1623  0.1076 -0.1924
 2380W        W18514   4.567  14.319   5.908 -0.0148  0.0059 -0.1357
 2381W        W18515  17.583  15.663  12.408  0.1347 -0.0477 -0.2383
 2382W        W18516  15.952   3.405   1.531  0.0206  0.0541 -0.1360
 2383W        W18517   2.997   6.668   6.164 -0.0139  0.2384  0.0013
 2384W        W18518   5.577  17.062   4.882  0.2056 -0.0623 -0.0396
 2385W        W18519  11.338   4.931   3.088 -0.0829 -0.1848  0.2511
 2386W        W18520  15.822   4.903  12.397 -0.1720  0.0866 -0.0324
 2387W        W18521   4.720  10.515  14.028 -0.0151 -0.0430 -0.0633
 2388W        W18522  15.647   2.232   4.234 -0.2783  0.1091 -0.0069
 2389W        W18523   2.600   1.456   0.151  0.0672 -0.0626  0.0195
 2390W        W18524  11.202   2.349   2.582  0.0955 -0.0140 -0.0264
 2391W        W18525  10.631   6.804  11.245 -0.1238 -0.3327 -0.2314
 2392W        W18526  16.606   4.521   2.730  0.1439 -0.3324 -0.0396
 2393W        W18527  16.232   4.519   4.501 -0.3491  0.0775  0.0608
 2394W        W18528  11.391   1.366   4.043  0.1418  0.0411 -0.1985
 2395W        W18529   6.728  14.657   3.519  0.1677  0.1127  0.0408
 2396W        W18530  16.348   1.999  13.116  0.1592  0.0885  0.0649
 2397W        W18531  17.191  16.406   4.328  0.0193 -0.2231 -0.1618
 2398W        W18532  17.706  10.936   3.164 -0.4471 -0.0093 -0.3313
 2399W        W18533   9.419   5.515  11.091  0.1474 -0.2532  0.2528
 2400W        W18534  16.750  11.411   1.590  0.0516  0.2822 -0.2896
 2401W        W18535  16.223   4.527  13.918 -0.0310  0.3127 -0.2026
 2402W        W18536  15.906   8.478  13.458 -0.1249 -0.2225 -0.0982
 2403W        W18537   8.161  14.469  14.308 -0.2191 -0.1258 -0.0254
 2404W        W18538   4.889  12.643  15.908  0.0135 -0.1237 -0.1448
 2405W        W18539   2.177  12.426   5.088 -0.4219  0.1850 -0.0135
 2406W        W18540  13.955   1.756   3.071 -0.1420  0.0786  0.1037
 2407W        W18541  16.156   7.443   4.248 -0.1418 -0.1214  0.1227
 2408W        W18542  13.336   1.862  13.846 -0.1273  0.0254 -0.0235
 2409W        W18543   1.819  13.099  12.030 -0.0483  0.1381  0.0670
 2410W        W18544   4.999   6.911   4.013 -0.2454 -0.1260 -0.1951
 2411W        W18545   2.452  16.588  11.484 -0.1380 -0.0818  0.1397
 2412W        W18546   2.825   1.229  14.031 -0.2269 -0.0346  0.3391
 2413W        W18547   6.363   9.466  15.787  0.0349 -0.0017 -0.0346
 2414W        W18548   8.879   2.628   1.462 -0.0858  0.0554 -0.0019
 2415W        W18549  11.615  15.800  11.600  0.0983  0.0721 -0.0218
 2416W        W18550  16.292   4.385  15.889 -0.1089 -0.1458 -0.0976
 2417W        W18551  16.027   1.385   0.470  0.0847 -0.0325 -0.0517
 2418W        W18552   5.935   2.632  11.080  0.1919  0.1024  0.1243
 2419W        W18553  13.496   7.026  13.017 -0.0846  0.3126  0.2873
 2420W        W18554  15.220  15.426   5.251 -0.0470  0.1207 -0.1321
 2421W        W18555   1.173  13.317  13.271  0.0174  0.3380  0.2831
 2422W        W18556  11.014  13.069   4.358 -0.1897  0.2098 -0.1415
 2423W        W18557   3.150  16.369  15.090 -0.0315  0.2216  0.2391
 2424W        W18558   0.937  17.315  10.683  0.0242 -0.0540  0.1707
 2425W        W18559  17.576  12.105  15.622  0.0162 -0.0384  0.1326
 2426W        W18560   3.271   4.014  14.680 -0.0980  0.1802 -0.2129
 2427W        W18561  12.416  10.706   1.723  0.0727  0.1541 -0.1629
 2428W        W18562   8.178   6.874  14.121  0.3496  0.4836  0.0370
 2429W        W18563  10.356   9.553   2.332  0.1389 -0.0576  0.1401
 2430W        W18564   1.069   2.916  12.206 -0.1496 -0.2091 -0.1117
 2431W        W18565   2.651   2.734   0.143 -0.3916 -0.3020  0.3460
 2432W        W18566   6.783   6.699  11.280 -0.0370 -0.0421  0.1653
 2433W        W18567   4.841   2.695   0.873 -0.3058 -0.1760  0.1726
 2434W        W18568  11.449  14.610  10.227  0.0193 -0.4922  0.0058
 2435W        W18569   7.153   8.147  12.720 -0.0834 -0.1189 -0.1027
 2436W        W18570   4.631   3.557  15.208 -0.4285 -0.1026 -0.1793
 2437W        W18571   1.306   5.154   3.593 -0.0310 -0.1747  0.0328
 2438W        W18572  11.397  13.650  13.709  0.3282  0.4142 -0.1176
 2439W        W18573  14.275   2.852   4.433 -0.0505  0.1450 -0.3163
 2440W        W18574  13.917   0.412   3.432  0.0298 -0.1279  0.2933
 2441W        W18575   7.959   2.406   3.599 -0.3062 -0.1738 -0.0864
 2442W        W18576   7.224  10.420  13.250  0.0909 -0.0484 -0.0927
 2443W        W18577  12.739   8.056  14.577  0.0797 -0.3170 -0.1871
 2444W        W18578  11.343   3.564   2.900  0.2974 -0.0479 -0.0761
 2445W        W18579  18.087   9.782  14.585 -0.2458 -0.1938 -0.3922
 2446W        W18580  13.192   2.710  14.838  0.2341  0.0619 -0.0353
 2447W        W18581  14.807   8.790  14.030 -0.3733  0.0327 -0.1482
 2448W        W18582   7.910  15.490  16.199 -0.0183 -0.1863 -0.0741
 2449W        W18583   2.602   1.757  13.106  0.1594  0.1416 -0.0385
 2450W        W18584  14.740  14.119  15.801  0.0498 -0.2185 -0.0051
 2451W        W18585   4.605  14.878  12.026 -0.2599 -0.0730  0.2205
 2452W        W18586   0.939   5.780  14.970  0.2105 -0.0746 -0.0496
 2453W        W18587   6.920   8.521   1.172  0.2039  0.4991 -0.2021
 2454W        W18588   5.616  16.238   5.038 -0.3754 -0.2741  0.0362
 2455W        W18589   8.917  14.381  13.489 -0.2337  0.0052  0.2505
 2456W        W18590   3.798   5.348  15.947 -0.2116  0.1111  0.0610
 2457W        W18591   1.535  15.731   4.815  0.0033 -0.0525 -0.0593
 2458W        W18592  12.029  16.479  16.174 -0.1905  0.0750 -0.1784
 2459W        W18593   7.113   6.603  14.400 -0.0316  0.0141 -0.0464
 2460W        W18594  16.382   3.857   1.603  0.2064  0.2159 -0.0248
 2461W        W18595  16.895   3.080  15.118 -0.1141 -0.1461  0.1117
 2462W        W18596   9.276  12.894  12.938  0.0867  0.0199 -0.0301
 2463W        W18597   8.589   8.423   2.558  0.2034  0.1181 -0.3722
 2464W        W18598   6.603   6.583  14.521  0.0758 -0.2007 -0.4884
 2465W        W18599   6.594   9.487   5.988  0.3443 -0.1693 -0.4535
 2466W        W18600   7.141   6.850   2.231 -0.0488  0.0089  0.4512
 2467W        W18601   6.073  15.888   4.435  0.2421 -0.1309 -0.0005
 2468W        W18602   8.073  15.835   0.127  0.1360  0.0546 -0.0474
 2469W        W18603   8.934   9.521   3.997  0.0053  0.2801 -0.2627
 2470W        W18604   6.915  17.214   1.340 -0.4396  0.2110 -0.0308
 2471W        W18605  14.170   0.404  12.463 -0.2485  0.1033 -0.0392
 2472W        W18606   8.457   6.564  11.814 -0.0100  0.0544 -0.1888
 2473W        W18607   0.472   4.158   1.674  0.0203 -0.1308  0.4353
 2474W        W18608   5.427   4.421  13.967 -0.2491 -0.1200  0.0719
 2475W        W18609  16.524  15.375   0.152 -0.0168 -0.0999  0.0711
 2476W        W18610   0.728   0.616   0.124 -0.0393  0.1259 -0.2099
 2477W        W18611  11.629  10.654   2.379 -0.1293  0.2416  0.1457
 2478W        W18612  15.795   9.737  14.609 -0.1657 -0.1356  0.2359
 2479W        W18613  13.205   0.596   1.535 -0.1362  0.2017 -0.1532
 2480W        W18614   8.876   6.462  10.849  0.0249  0.2950  0.0929
 2481W        W18615   0.772   6.452   3.074 -0.1864  0.0061 -0.0606
 2482W        W18616   3.904  13.469   0.196  0.0621  0.1975  0.0662
 2483W        W18617  14.678  11.502   4.803 -0.0841 -0.1575  0.0542
 2484W        W18618   3.601   0.747  15.796  0.1408  0.0410  0.1188
 2485W        W18619   9.033   7.838   0.837 -0.2074  0.2919 -0.0019
 2486W        W18620   1.997   1.436  13.551  0.0041 -0.0306 -0.1819
 2487W        W18621   6.607   7.248   1.698  0.2992 -0.2525  0.0892
 2488W        W18622   0.003   3.304  11.371 -0.1541 -0.0111  0.0924
 2489W        W18623   4.170   8.321   5.687  0.4075 -0.3092  0.2106
 2490W        W18624  17.682  16.346   0.689 -0.0210  0.1469  0.1669
 2491W        W18625   9.679  16.101  14.767  0.0594  0.3198 -0.2915
 2492W        W18626  15.735   6.974   2.179 -0.4695  0.2074  0.0510
 2493W        W18627   0.300   9.332   1.977 -0.0360 -0.1732 -0.1219
 2494W        W18628  12.362   4.433   3.889 -0.1431  0.0846  0.1814
 2495W        W18629  10.383  15.235  12.135 -0.0274  0.1113  0.0933
 2496W        W18630   8.338  11.949  16.012  0.2428  0.1839 -0.0830
 2497W        W18631  17.648   4.474   1.495 -0.2969 -0.1128  0.0418
 2498W        W18632  17.629  11.260   3.912  0.1190 -0.4147  0.3695
 2499W        W18633   3.640  12.044   3.783  0.3103 -0.0236  0.1143
 2500W        W18634   0.687  15.894   3.500 -0.2469  0.1029  0.1945
 2501W        W18635  16.026  15.366  14.569 -0.1755 -0.0668 -0.0789
 2502W        W18636   2.137  12.369   0.663 -0.1501 -0.2156 -0.1130
 2503W        W18637   6.346   3.239  12.421  0.1984 -0.1299 -0.1136
 2504W        W18638   9.525   8.657   3.703  0.1003  0.0977  0.0620
 2505W        W18639  14.536   1.317  14.051  0.0707 -0.0704  0.0253
 2506W        W18640   7.205   1.549   1.110  0.0963 -0.0783  0.2109
 2507W        W18641   4.662   4.982   4.332  0.3604 -0.3384  0.0896
 2508W        W18642   0.437  11.802   3.885 -0.1227 -0.1116 -0.2127
 2509W        W18643   1.511  10.548   0.728 -0.2008  0.0558  0.0593
 2510W        W18644  10.991  16.912   5.943  0.2491  0.0610 -0.0705
 2511W        W18645  15.564  13.709  12.648 -0.1857  0.1913  0.0947
 2512W        W18646  17.069   8.126   2.445  0.0590 -0.0426  0.0958
 2513W        W18647  16.282   7.717   1.740 -0.2859  0.0322 -0.0704
 2514W        W18648   6.089  11.922   4.180  0.1431  0.0977  0.2078
 2515W        W18649  11.509  14.680  11.800 -0.1070  0.2641  0.1199
 2516W        W18650  17.838   9.685  15.437  0.1497  0.0789  0.3338
 2517W        W18651   9.258   6.385  11.565  0.0107 -0.1154  0.1062
 2518W        W18652   5.967   0.092  15.567  0.0272 -0.1370 -0.1024
 2519W        W18653   3.895   9.041   5.030 -0.1398 -0.0489 -0.0609
 2520W        W18654   6.448   7.267  12.403  0.2223  0.0575  0.1975
 2521W        W18655  15.991   8.046   4.075 -0.2451 -0.1886 -0.0326
 2522W        W18656   5.975   0.442  13.798 -0.2390 -0.0516 -0.0309
 2523W        W18657  10.832  12.550  11.820  0.2736 -0.3133 -0.1103
 2524W        W18658  13.153   3.325  11.464  0.1672  0.1796 -0.1198
 2525W        W18659   6.548  16.525   3.713  0.4122  0.0642 -0.0680
 2526W        W18660   8.013  15.777  13.711  0.0385 -0.0371  0.2568
 2527W        W18661  12.749   5.696  15.962 -0.1538  0.0465  0.1686
 2528W        W18662   5.979  14.585   2.268  0.2491  0.1979 -0.1870
 2529W        W18663   9.510  10.362  16.082 -0.0435  0.0699  0.2353
 2530W        W18664  11.574  16.362  13.450 -0.1834  0.0839 -0.0822
 2531W        W18665   0.472   0.040   5.453 -0.0681 -0.0370  0.1502
 2532W        W18666  17.661  10.432  11.350  0.0499 -0.2408  0.1451
 2533W        W18667  12.114   8.086   4.939 -0.2961 -0.1147 -0.3085
 2534W        W18668   9.214   5.325   3.946  0.2142 -0.0301  0.1146
 2535W        W18669  15.312   5.330  11.769  0.0940 -0.3644 -0.3680
 2536W        W18670   9.882   3.973  15.516 -0.0929 -0.0295  0.0458
 2537W        W18671   7.338   8.557  12.060  0.1717  0.0108 -0.0105
 2538W        W18672  10.069  16.930  12.946 -0.1030  0.1059  0.0165
 2539W        W18673   6.656   9.813  14.407  0.1541 -0.0129 -0.1108
 2540W        W18674  16.445  15.278   1.093 -0.0587 -0.1584 -0.2060
 2541W        W18675  17.241   5.754   2.836 -0.1800 -0.0052  0.1695
 2542W        W18676   0.543   3.290   4.578 -0.1823 -0.0533  0.0675
 2543W        W18677   4.440  13.315   4.506 -0.0562  0.1286  0.0685
 2544W        W18678  14.938   2.741   2.221  0.1168  0.0377  0.0093
 2545W        W18679  11.852   6.666  12.543 -0.0849 -0.1780  0.1865
 2546W        W18680  11.797   0.548   4.157  0.1794  0.0044  0.0019
 2547W        W18681  14.072   0.187   2.016 -0.2828 -0.1695  0.0972
 2548W        W18682   8.379  13.883  15.712 -0.1126  0.4034  0.1338
 2549W        W18683   2.808  13.549  15.573  0.1087 -0.0186 -0.3081
 2550W        W18684   0.482  14.915   4.105 -0.0809 -0.1409  0.1316
 2551W        W18685   9.901  17.315   0.268  0.1109 -0.3392 -0.0542
 2552W        W18686   4.701   0.002   2.794  0.0901 -0.2295 -0.4621
 2553W        W18687  11.986  14.713  10.339  0.2252 -0.2067 -0.0971
 2554W        W18688  11.178   8.413   4.397 -0.0985 -0.2400 -0.1136
 2555W        W18689  11.265   5.227  14.174  0.4876 -0.4673 -0.0508
 2556W        W18690  12.726   9.665   4.721 -0.0002  0.0313  0.2362
 2557W        W18691   6.796  17.254  14.323  0.0649  0.1428  0.1484
 2558W        W18692  13.626  16.610   5.215 -0.0987 -0.0022  0.0907
 2559W        W18693   5.781   4.477  16.097 -0.0480 -0.1509 -0.1720
 2560W        W18694  13.272   5.141   0.796 -0.0659 -0.1357 -0.0289
 2561W        W18695   4.753   5.560  13.713  0.1255 -0.0150 -0.2920
 2562W        W18696   3.964   8.341  14.310  0.0453  0.0648  0.1806
 2563W        W18697   8.800  15.238  15.131 -0.3362 -0.2528  0.0611
 2564W        W18698   3.944   3.622   0.992 -0.0594  0.2305 -0.0216
 2565W        W18699   0.959  12.512   4.184 -0.0920  0.1796  0.4621
 2566W        W18700  15.314   7.301   3.165  0.2918 -0.2455 -0.0247
 2567W        W18701  12.942  14.225  13.578 -0.2116 -0.2825 -0.3387
 2568W        W18702  10.338   3.346  13.939 -0.1200  0.1850  0.0972
 2569W        W18703  15.000  13.442   3.434 -0.0099  0.0792  0.1316
 2570W        W18704  15.280  17.486  13.908 -0.2337 -0.1212  0.2421
 2571W        W18705   9.381   9.405   6.163 -0.0107 -0.3270 -0.0952
 2572W        W18706   7.070   1.432   1.553  0.1485  0.1431  0.0117
 2573W        W18707   1.901  11.060  11.574 -0.0131  0.1181  0.2504
 2574W        W18708   7.682   0.077  14.102  0.1222  0.1123 -0.2190
 2575W        W18709  11.914   2.817   1.023 -0.1449 -0.3223  0.1258
 2576W        W18710   2.882  13.796   4.429 -0.2507 -0.0816  0.2183
 2577W        W18711  14.655  17.196   3.108  0.2074 -0.0904 -0.1697
 2578W        W18712  11.206  12.279   1.283 -0.1053  0.1133 -0.2745
 2579W        W18713   0.801   3.586  14.313 -0.2222  0.3375  0.0752
 2580W        W18714   6.378  11.066  13.392  0.3033  0.1292  0.0295
 2581W        W18715  16.320   2.953  11.963  0.1728  0.1543 -0.1042
 2582W        W18716  11.757  10.787   3.480 -0.0877  0.0310  0.2281
 2583W        W18717   4.463   9.262  13.947 -0.2772  0.1211 -0.1862
 2584W        W18718   4.115  17.671   4.958 -0.2263  0.2057  0.1413
 2585W        W18719   5.377  11.423   4.477  0.2047 -0.1153 -0.0474
 2586W        W18720  16.947  11.431  11.074  0.0534  0.1660  0.1796
 2587W        W18721   5.248  13.219  14.060  0.1339  0.0778  0.2346
 2588W        W18722   6.225   2.337  12.908 -0.1510 -0.0741 -0.2837
 2589W        W18723  15.473   3.514  16.129 -0.2382 -0.2833 -0.1086
 2590W        W18724  13.531   7.873   3.980  0.0643  0.1819 -0.1017
 2591W        W18725   9.995  12.311   2.986  0.0848 -0.2056  0.2108
 2592W        W18726  12.060   3.447   3.408 -0.0365  0.3216 -0.1775
 2593W        W18727  12.008  14.666   5.173 -0.1307  0.0586 -0.0543
 2594W        W18728  17.272   7.561   3.273  0.0136 -0.1284  0.1735
 2595W        W18729  10.408  12.732  13.066  0.0376 -0.0181  0.0710
 2596W        W18730   5.187  13.338  12.976 -0.1989  0.1423 -0.2460
 2597W        W18731   7.278   7.806   2.850  0.1302  0.0065  0.0738
 2598W        W18732   1.634  11.465  15.329 -0.0496  0.1399  0.0899
 2599W        W18733  14.862  13.326   2.163 -0.3109  0.0653  0.1484
 2600W        W18734   7.810   3.016  11.756 -0.0586  0.0891 -0.0319
 2601W        W18735   9.348   8.431  13.554 -0.2465 -0.0227  0.3370
 2602W        W18736  10.795   7.943   2.692 -0.0806 -0.0206 -0.0874
 2603W        W18737  16.728  14.842  11.447 -0.1079  0.0350  0.0959
 2604W        W18738   1.107  12.702   1.595  0.0140 -0.1398  0.0140
 2605W        W18739   0.960   8.725  16.129  0.3555  0.0321 -0.2345
 2606W        W18740  12.697   7.027   4.912 -0.2119  0.2409 -0.0267
 2607W        W18741   3.429   6.883   3.881  0.0053  0.0627  0.2542
 2608W        W18742  13.398   2.405  11.638  0.0300 -0.1382  0.0975
 2609W        W18743  15.682  16.311  13.241 -0.1297 -0.0044 -0.1830
 2610W        W18744  10.178   5.964   3.814 -0.1053  0.0068  0.1499
 2611W        W18745   5.200  17.770   0.728 -0.2850 -0.2438  0.0961
 2612W        W18746   0.153  10.757   4.721  0.2565 -0.1329  0.1447
 2613W        W18747  11.331  13.096  15.758  0.0499  0.0267  0.0942
 2614W        W18748   1.216   1.441   3.958  0.1557 -0.1642  0.2255
 2615W        W18749   5.093   0.542  14.767  0.1981 -0.1142  0.0511
 2616W        W18750   5.719  10.508   5.390 -0.0105 -0.0078 -0.0364
 2617W        W18751  13.243   4.279   0.493  0.1321  0.1539 -0.3407
 2618W        W18752   0.365  13.418  16.165 -0.0092  0.0404  0.0302
 2619W        W18753  11.610  18.027  11.317 -0.2586  0.0797 -0.1027
 2620W        W18754   9.306   1.384   1.635 -0.0832 -0.3422 -0.2841
 2621W        W18755  11.499  12.369   4.900 -0.1870 -0.1576 -0.4857
 2622W        W18756  14.588   8.753   0.030 -0.2774  0.3478  0.4148
 2623W        W18757  10.533  14.489   2.359 -0.0044  0.0283 -0.0275
 2624W        W18758  18.075   8.500  12.472  0.0570 -0.0506  0.1137
 2625W        W18759  14.167  11.082   5.065 -0.2373 -0.0141 -0.0746
 2626W        W18760  11.268  15.975   3.677 -0.1020 -0.0130  0.1458
 2627W        W18761  10.441   7.271   2.585  0.1851  0.4371  0.0222
 2628W        W18762   3.918  15.239  13.270  0.3080 -0.1314 -0.0122
 2629W        W18763   4.309   0.053   0.187 -0.4223 -0.0744 -0.0382
 2630W        W18764   0.896  14.727  11.955  0.0255 -0.3332  0.0742
 2631W        W18765  11.027   3.284  10.882 -0.5401  0.1198  0.0316
 2632W        W18766  16.698   5.183   1.546 -0.2562  0.0589  0.1772
 2633W        W18767   7.247  17.998  12.339  0.2173 -0.2427  0.2509
 2634W        W18768   7.378  14.463   1.775 -0.1686 -0.1653  0.1291
 2635W        W18769   8.027   6.143  16.287 -0.0149 -0.1790 -0.1660
 2636W        W18770  10.588   7.280   1.540  0.2593 -0.1660  0.0744
 2637W        W18771  13.075   4.337   4.541 -0.0881 -0.1582 -0.1831
 2638W        W18772  14.638   0.062   0.951  0.3354 -0.3679  0.2900
 2639W        W18773  11.679  11.866  12.734 -0.0528 -0.0322 -0.0684
 2640W        W18774   7.094  13.142  11.554 -0.2587 -0.1085  0.1503
 2641W        W18775   3.227   3.167  14.087  0.0633 -0.1067  0.2877
 2642W        W18776   5.309  15.814  13.483  0.0035 -0.2116  0.1130
 2643W        W18777   6.636   3.190   1.951  0.1253 -0.0087 -0.0938
 2644W        W18778  11.134   6.540  14.614 -0.1320 -0.0341  0.1843
 2645W        W18779   8.936  10.039  16.074 -0.2048 -0.1939 -0.1392
 2646W        W18780   7.944  14.190  11.582  0.3155 -0.0042  0.2082
 2647W        W18781   9.776   4.240   4.308 -0.1315  0.3378  0.2083
 2648W        W18782   2.883   3.920  12.842 -0.1727 -0.2648  0.1296
 2649W        W18783   0.056  13.881  12.294  0.0822  0.1173  0.1651
 2650W        W18784   7.247   7.292  12.233  0.0003  0.1443  0.0726
 2651W        W18785   4.683  16.441  13.639  0.0185  0.0019  0.0174
 2652W        W18786   4.423  14.019   4.709  0.1338 -0.0579 -0.1352
 2653W        W18787   9.607   9.139   1.152 -0.0589  0.1024  0.1219
 2654W        W18788   5.151  11.065  12.013 -0.3044  0.5620 -0.0664
 2655W        W18789   5.385  14.325  14.777 -0.1518 -0.1380 -0.0708
 2656W        W18790   4.235   9.041   4.694 -0.1323 -0.2452 -0.2030
 2657W        W18791   1.956   8.651  12.577 -0.0581 -0.0632  0.2053
 2658W        W18792   5.492   1.729   1.270  0.1795 -0.0730  0.0134
 2659W        W18793  15.018   3.837  14.260 -0.5717 -0.0769  0.3369
 2660W        W18794  14.951   0.516  15.685  0.1051 -0.4948  0.1331
 2661W        W18795  13.991  12.737   0.396 -0.0323  0.0666  0.0051
 2662W        W18796   3.788  13.091  12.198 -0.0309 -0.1522 -0.0988
 2663W        W18797   5.582  13.351  15.833 -0.1563 -0.3263  0.2309
 2664W        W18798   4.797  10.098   2.512 -0.1663  0.2570  0.1659
 2665W        W18799   6.956  10.742   0.391 -0.0452 -0.1838  0.2019
 2666W        W18800   7.475  15.213  16.190 -0.1926 -0.0061  0.1280
 2667W        W18801  17.497  14.746   4.156  0.1023 -0.1176 -0.2757
 2668W        W18802  10.549  16.709  15.559  0.0423 -0.1091 -0.0973
 2669W        W18803   6.847   6.914  14.825  0.2217 -0.2240 -0.0358
 2670W        W18804   7.595   9.912  15.309 -0.1898  0.0949 -0.0556
 2671W        W18805   4.552  10.097   6.288 -0.0255 -0.1416 -0.0182
 2672W        W18806   3.988  10.360   1.753  0.2238  0.1698  0.0650
 2673W        W18807   0.036  11.197   3.190  0.0810  0.0102 -0.2168
 2674W        W18808   7.608   4.793   0.588 -0.1095  0.1103  0.1451
 2675W        W18809  11.763   2.501   3.486  0.0479  0.3095  0.0464
 2676W        W18810  16.818  10.055   5.193 -0.2740  0.0225 -0.0465
 2677W        W18811   5.067  10.928  15.750  0.0098  0.0025 -0.3055
 2678W        W18812   6.734  14.499  15.074  0.1704  0.2544  0.1542
 2679W        W18813  15.176  16.581   0.997 -0.1306 -0.0567  0.2496
 2680W        W18814   4.566   0.150  13.408 -0.1607  0.1521 -0.3438
 2681W        W18815   4.562   8.610  12.849  0.0556  0.2577  0.0487
 2682W        W18816   4.503  10.152  14.987  0.0012  0.1336 -0.5070
 2683W        W18817  10.729  16.506  16.039  0.2016 -0.2444  0.3070
 2684W        W18818   3.853  11.307   3.345 -0.1576 -0.0759 -0.2665
 2685W        W18819   4.743   7.230   5.347  0.2554 -0.1748  0.2508
 2686W        W18820   7.510   1.763  11.515  0.0608  0.0168  0.0002
 2687W        W18821  11.764  13.211  11.652 -0.2650 -0.0314  0.1051
 2688W        W18822   8.762   8.262  15.728  0.1337 -0.0263 -0.0148
 2689W        W18823  12.992  13.101   0.089 -0.0566  0.0806 -0.0334
 2690W        W18824  10.551   4.724   3.806 -0.1186 -0.1155 -0.2376
 2691W        W18825   6.757   6.714   4.157  0.0297  0.0816 -0.3265
 2692W        W18826   0.997  14.142   3.875 -0.0677  0.1368 -0.2356
 2693W        W18827   2.381   4.006  15.813  0.0304 -0.1615  0.0495
 2694W        W18828  15.822  16.504   3.105  0.1783  0.2043  0.0237
 2695W        W18829   9.557  11.651   4.071 -0.1143 -0.1224  0.1389
 2696W        W18830  15.503   9.014  14.981 -0.0284  0.0560  0.0033
 2697W        W18831   6.240   6.710   6.266 -0.2429 -0.2950  0.1789
 2698W        W18832  18.089  10.302   5.508 -0.1155  0.0192 -0.1101
 2699W        W18833   6.914   8.164  13.648  0.1556  0.1793  0.1495
 2700W        W18834  14.543   4.040   5.833 -0.3959 -0.1276  0.2092
 2701W        W18835  13.846   1.860   0.925 -0.1880 -0.0432  0.0295
 2702W        W18836  10.550   6.730   5.481 -0.0033  0.2106 -0.2971
 2703W        W18837   5.325  15.209   2.501  0.0813 -0.0340 -0.3410
 2704W        W18838  13.766   7.982  14.930 -0.0468 -0.0815  0.2561
 2705W        W18839  13.296  13.973   4.811  0.1746 -0.2967  0.0699
 2706W        W18840   6.335   4.830   0.346  0.1450 -0.0801 -0.3508
 2707W        W18841  17.035   6.300   4.615 -0.2572  0.1169  0.0613
 2708W        W18842   4.121   2.303  11.678  0.1746 -0.0590 -0.0029
 2709W        W18843   0.981  10.803  11.860 -0.1097  0.0783  0.0551
 2710W        W18844   4.686   1.899  14.920 -0.2060  0.0332  0.1076
 2711W        W18845   8.754   1.753   5.210  0.0097  0.1120  0.1181
 2712W        W18846   3.185  10.795  15.052  0.1371  0.1449  0.0789
 2713W        W18847   2.838   2.127  13.505  0.1735  0.2960  0.1804
 2714W        W18848  17.612   0.862  13.456 -0.1018 -0.0071  0.1886
 2715W        W18849  13.481  11.903   5.635 -0.0303  0.1725  0.0429
 2716W        W18850  15.994   5.890  15.188 -0.1724  0.1210  0.1212
 2717W        W18851  12.117  16.004   2.099 -0.3563 -0.2698  0.1684
 2718W        W18852  11.481  10.847   0.508  0.2293  0.3012  0.0828
 2719W        W18853  16.053  15.404  15.192 -0.1339 -0.2788 -0.0420
 2720W        W18854   0.020  12.449  14.649  0.0848 -0.2097 -0.3029
 2721W        W18855   4.652   2.191   5.630 -0.1781  0.4605  0.2388
 2722W        W18856   9.571  12.651  13.269  0.0716 -0.0190 -0.0555
 2723W        W18857  10.519  12.655   0.624  0.3102  0.1098  0.0784
 2724W        W18858   4.933   2.054  12.287 -0.3086 -0.0808 -0.1448
 2725W        W18859   7.548  13.013   2.373  0.3386 -0.1333  0.0740
 2726W        W18860   9.426  17.165  12.334  0.2161  0.4435 -0.0256
 2727W        W18861  12.566   5.258   1.929  0.1506 -0.0234 -0.0674
 2728W        W18862   5.665   7.233  11.673 -0.1537 -0.1469 -0.1838
 2729W        W18863  12.410   8.251   0.287 -0.0415 -0.2126  0.1452
 2730W        W18864   2.358  10.442   5.673  0.0306 -0.0154 -0.1796
 2731W        W18865  16.590  12.864   5.326 -0.0665  0.0330  0.0498
 2732W        W18866   7.400   3.479  13.955  0.0120  0.3336 -0.1231
 2733W        W18867   9.515  10.841   5.641  0.0935 -0.0350 -0.2116
 2734W        W18868   2.845  11.308   0.710  0.3681  0.0390 -0.2090
 2735W        W18869   6.090  16.256   5.208  0.1016  0.0279 -0.1296
 2736W        W18870   4.077  15.884  14.025 -0.1871  0.0375 -0.1169
 2737W        W18871   8.857   9.176   1.717 -0.1587  0.1168 -0.1294
 2738W        W18872   5.170  13.944   3.435 -0.0846  0.2597  0.1809
 2739W        W18873  16.624  10.314   2.611 -0.1287 -0.0051  0.2959
 2740W        W18874  14.275   8.852   5.609  0.0820 -0.1325  0.1919
 2741W        W18875   7.222   6.195   4.731 -0.0201 -0.0702  0.0203
 2742W        W18876   8.097  10.786  16.229  0.0899 -0.1794  0.1918
 2743W        W18877   1.109   2.617   2.930 -0.0333 -0.0936  0.2397
 2744W        W18878   2.822  10.933  12.518  0.0549 -0.0324  0.2090
 2745W        W18879   7.573   0.535   2.062 -0.2917  0.3241  0.0412
 2746W        W18880  12.338  11.118   5.532  0.3921  0.2327  0.3064
 2747W        W18881   2.483   8.438  13.788  0.0458  0.2716  0.1062
 2748W        W18882  15.708   7.142  14.958  0.1324 -0.0619 -0.2539
 2749W        W18883   1.079  12.534  11.213 -0.0899  0.0194  0.0069
 2750W        W18884  10.642  16.214   1.180  0.1338  0.1082  0.0709
 2751W        W18885  12.840  11.954   5.583 -0.1614 -0.1679  0.2772
 2752W        W18886  12.733   9.896  12.332  0.4541 -0.0999 -0.0671
 2753W        W18887  17.851   9.641   3.247 -0.3553  0.0292 -0.2254
 2754W        W18888  15.450   6.764  11.895 -0.1791  0.2943  0.0321
 2755W        W18889   2.122  17.364  11.855 -0.1356  0.0589 -0.0112
 2756W        W18890  16.701  10.392  10.946 -0.0074  0.1590  0.1337
 2757W        W18891  11.345  17.170  12.993  0.2533  0.0112  0.0833
 2758W        W18892  12.746   8.674  12.996  0.3088  0.0878 -0.1190
 2759W        W18893  12.607  15.151   2.418  0.2022  0.3828 -0.0487
 2760W        W18894   2.438   0.999   0.207 -0.2107  0.0020  0.1539
 2761W        W18895  16.839   1.675   1.651  0.0117  0.1705  0.4373
 2762W        W18896   7.277   3.977  11.461 -0.1902 -0.0411 -0.1522
 2763W        W18897   4.684   7.687   5.026  0.2702  0.2501 -0.0775
 2764W        W18898  17.313  16.210   2.478 -0.0004 -0.1010  0.1384
 2765W        W18899   4.345   5.335  11.219 -0.2035  0.2131  0.2491
 2766W        W18900  17.620   4.400   2.488  0.5117 -0.2928 -0.2528
 2767W        W18901   5.510  17.521   4.685  0.2180 -0.3188 -0.2365
 2768W        W18902  14.253   7.876  15.046 -0.3166  0.2329 -0.0699
 2769W        W18903  12.340  10.206  12.488 -0.0883  0.2486 -0.0017
 2770W        W18904  15.238   1.820   3.185  0.2725 -0.1884  0.0029
 2771W        W18905  16.969  12.238   3.474  0.0628 -0.0156 -0.2177
 2772W        W18906   5.241  11.733   5.416 -0.1737  0.0302 -0.1629
 2773W        W18907   8.872   8.488  13.844 -0.1884  0.0877 -0.0588
 2774W        W18908  12.864  16.779   3.256  0.2001  0.4087 -0.2169
 2775W        W18909   8.599   9.102  13.474 -0.2987  0.0976 -0.1021
 2776W        W18910   0.632   1.045   1.609  0.0001  0.1345 -0.0102
 2777W        W18911  12.083  15.769  11.866  0.1386 -0.1667 -0.3275
 2778W        W18912   5.436  10.953   4.618 -0.0383  0.0130  0.2827
 2779W        W18913   1.680   8.719   5.774  0.0104  0.1014 -0.3107
 2780W        W18914   8.284  11.272   2.013  0.0078  0.1924  0.2519
 2781W        W18915   2.427  13.613   4.182 -0.0152 -0.1303 -0.1647
 2782W        W18916   1.367   7.895   5.298 -0.0583 -0.0851 -0.4532
 2783W        W18917  15.282   8.197   3.490  0.1659 -0.1732  0.1552
 2784W        W18918  12.289   0.717  15.688  0.2581  0.0457 -0.2333
 2785W        W18919   1.951   6.043   2.718  0.0609 -0.1607 -0.1385
 2786W        W18920   4.876  16.432   4.442 -0.1284 -0.1693 -0.0716
 2787W        W18921  13.786   9.533   3.093  0.1882 -0.2838 -0.0059
 2788W        W18922  13.674   6.121   2.430  0.3155  0.2153  0.0058
 2789W        W18923   4.032   1.584  13.918 -0.1330  0.1024 -0.0912
 2790W        W18924   1.759  12.757  15.433 -0.0653  0.0988  0.1014
 2791W        W18925   5.447  12.660   3.757  0.3530 -0.1084  0.1208
 2792W        W18926   7.780   9.803  14.433 -0.2421  0.0724 -0.0932
 2793W        W18927   2.273  17.576   5.452  0.1827 -0.1259 -0.1536
 2794W        W18928   6.693  10.900   3.903  0.0945 -0.1606 -0.2489
 2795W        W18929   4.549  13.674  12.801  0.1291 -0.0820  0.1598
 2796W        W18930   5.786  16.582  13.528 -0.0341 -0.2689 -0.2986
 2797W        W18931   3.769  11.164  14.027 -0.0245 -0.0380  0.0241
 2798W        W18932  13.114  16.769  12.072 -0.2716 -0.0677 -0.1162
 2799W        W18933   1.491  17.043   2.986  0.3881 -0.2561 -0.4387
 2800W        W18934  17.455   8.708  14.155  0.2150  0.0245  0.1103
 2801W        W18935   8.998  18.094   1.742  0.0640 -0.1156  0.0757
 2802W        W18936   1.923   6.221   4.474  0.0174 -0.2611  0.1655
 2803W        W18937   4.833   9.742   6.623  0.1487 -0.0704  0.2171
 2804W        W18938  14.753   1.619   3.218 -0.3275 -0.0965  0.0392
 2805W        W18939   6.515   6.881   0.944  0.1139 -0.0702  0.1072
 2806W        W18940   6.087  17.121   4.204  0.0415  0.1542  0.2451
 2807W        W18941  16.205   7.563   0.963 -0.1308  0.0172  0.4586
 2808W        W18942   1.326   5.770  11.728 -0.0374  0.3556 -0.1006
 2809W        W18943  11.521   4.768   4.343 -0.3604  0.1032 -0.0614
 2810W        W18944  11.689   7.551  14.479 -0.0803 -0.4384  0.1893
 2811W        W18945  12.412   6.225   1.717 -0.0634  0.1294  0.1350
 2812W        W18946  10.847  15.880  15.003  0.1514 -0.3843  0.0013
 2813W        W18947   8.848   8.994   4.103 -0.3132 -0.0058  0.2248
 2814W        W18948   4.471   8.212   0.327 -0.0121 -0.1714 -0.0553
 2815W        W18949  12.798  15.596   4.147 -0.0117 -0.0359 -0.4424
 2816W        W18950  13.627  13.646   5.211 -0.1402 -0.3173  0.1524
 2817W        W18951   1.413   6.477   3.224 -0.0897  0.0514  0.1107
 2818W        W18952  12.737  14.155   0.273  0.1409 -0.1232 -0.2799
 2819W        W18953   7.314   6.741  13.080  0.2539 -0.0067 -0.0592
 2820W        W18954  16.992   8.921  11.766  0.2375 -0.1694  0.3391
 2821W        W18955   9.013  17.995  12.351  0.4647  0.1976 -0.1433
 2822W        W18956  15.573  13.937   1.402  0.1618  0.1511 -0.3423
 2823W        W18957  17.963  16.791  11.884  0.0134  0.1043 -0.2254
 2824W        W18958   0.454   1.755   1.164  0.2449  0.0236 -0.0931
 2825W        W18959  15.779  11.456   0.423  0.1387 -0.0997  0.3246
 2826W        W18960  12.242  10.636   4.086 -0.1472  0.0554  0.4624
 2827W        W18961  15.697   4.861   0.854 -0.1354 -0.0557  0.0308
 2828W        W18962  10.532   2.077   1.595  0.0658  0.0797  0.0345
 2829W        W18963  14.813   5.442   5.354  0.1278 -0.0295 -0.0537
 2830W        W18964  13.291  14.161  11.839 -0.1096 -0.0244  0.0727
 2831W        W18965   1.774  16.158   5.738 -0.0757 -0.0717  0.2304
 2832W        W18966   2.405   2.386  10.966  0.2330  0.1522  0.3364
 2833W        W18967   3.496   4.111  11.095  0.1977 -0.1186  0.0667
 2834W        W18968   1.277  11.228   2.861  0.2537 -0.0296 -0.0141
 2835W        W18969   6.334  15.809   0.018 -0.0213 -0.1729 -0.3882
 2836W        W18970   8.642   7.661   1.762 -0.0882 -0.1291 -0.1111
 2837W        W18971   9.102   6.778  12.997  0.1819 -0.1323  0.3542
 2838W        W18972   5.885   9.093   2.777  0.0153  0.1071  0.0544
 2839W        W18973   5.035  10.914  13.048  0.1021  0.0839 -0.0020
 2840W        W18974  11.008   1.460  15.775  0.1442 -0.1452 -0.2569
 2841W        W18975   3.175  16.606  15.602 -0.3020 -0.2257  0.0976
 2842W        W18976   0.868   4.295   2.796 -0.1339  0.0280 -0.1859
 2843W        W18977   7.129   6.914  15.821  0.0320 -0.0166 -0.1007
 2844W        W18978  16.478  13.865  14.398 -0.2728 -0.2056  0.1055
 2845W        W18979   3.546  11.096  15.353 -0.0463 -0.1789 -0.0820
 2846W        W18980   0.964  13.452   1.248  0.0768 -0.0607  0.2035
 2847W        W18981  11.253  15.807  10.456  0.0325 -0.3398 -0.0909
 2848W        W18982   8.732   2.263   0.118 -0.1702  0.1974 -0.1171
 2849W        W18983  17.598  16.610  12.144  0.2150  0.0051 -0.3407
 2850W        W18984  15.916   7.177  12.612  0.0207  0.1953  0.3300
 2851W        W18985  17.921  10.033  14.195  0.1977 -0.1140  0.2584
 2852W        W18986  17.916  15.256   1.492  0.0005 -0.4449 -0.2507
 2853W        W18987   1.472  11.260  12.207 -0.0536 -0.0564 -0.2868
 2854W        W18988  12.051  13.047  11.978 -0.0648  0.2508  0.2476
 2855W        W18989   3.126   3.117   0.753 -0.3324  0.0526 -0.1268
 2856W        W18990   7.406  13.538   5.173 -0.0727 -0.2295 -0.1875
 2857W        W18991  17.906   1.996   3.110  0.1436  0.1946 -0.3366
 2858W        W18992  12.672   5.908  12.626  0.1255 -0.0078 -0.3110
 2859W        W18993  10.769  12.349   1.046 -0.0700 -0.0649 -0.1711
 2860W        W18994   4.655   7.661   0.332  0.2971 -0.4905  0.0149
 2861W        W18995  15.798   8.763   4.516  0.0642 -0.1611  0.0424
 2862W        W18996   5.677  17.425   4.083  0.1362 -0.0711 -0.0465
 2863W        W18997   5.926   9.209  15.646 -0.3293 -0.1397  0.0767
 2864W        W18998  15.337  12.023  16.413  0.1766 -0.0709 -0.0881
 2865W        W18999  10.176   4.107  12.780  0.0424  0.0243 -0.2657
 2866W        W19000   8.430  13.660   4.708  0.0949 -0.0396 -0.1115
 2867W        W19001   6.444  15.862   3.227  0.1701  0.1689  0.0408
 2868W        W19002  16.435   1.522   4.254 -0.4032 -0.1254 -0.4842
 2869W        W19003   6.207  11.663   2.270  0.4847  0.1590 -0.1953
 2870W        W19004  16.340   8.857  15.568 -0.0415  0.2052 -0.2005
 2871W        W19005   5.536   3.421  10.080 -0.0057 -0.2705 -0.0215
 2872W        W19006   8.365   1.849   1.612 -0.0940 -0.3170 -0.4416
 2873W        W19007  12.896   7.966   5.908 -0.4521 -0.0755 -0.2766
 2874W        W19008  16.558  17.819   0.363 -0.2036 -0.1295 -0.1056
 2875W        W19009   6.427   3.634  14.375 -0.3901 -0.0953 -0.1560
 2876W        W19010   0.106  13.063   3.885  0.0775  0.1561  0.2828
 2877W        W19011   0.724  15.306   2.953  0.1518 -0.0230 -0.1854
 2878W        W19012   0.807  13.131  15.295 -0.1163  0.3020  0.2114
 2879W        W19013  14.553  18.019  14.749 -0.0458 -0.1300 -0.0566
 2880W        W19014  16.491  14.664   6.289  0.1781 -0.0100 -0.1171
 2881W        W19015   6.527   7.091   0.118  0.3283  0.0420  0.1204
 2882W        W19016   4.292   9.368   3.520 -0.0105 -0.0130 -0.2061
 2883W        W19017  13.864  14.727  13.216  0.1022  0.2451  0.0167
 2884W        W19018  10.838   7.831  11.930  0.0328 -0.3198 -0.1895
 2885W        W19019  12.062   5.511   3.310 -0.0768 -0.2709  0.1076
 2886W        W19020   1.559   5.384   2.742 -0.1160  0.0068  0.0469
 2887W        W19021  16.107  13.227  12.509 -0.0819 -0.1337  0.1261
 2888W        W19022   5.364  15.438   4.718  0.0888  0.0605  0.0044
 2889W        W19023   1.170  10.990  13.935 -0.2524  0.1652 -0.0750
 2890W        W19024   3.098  16.628   3.375  0.2355 -0.3145 -0.1089
 2891W        W19025  14.358   1.414   0.479  0.0307 -0.2072 -0.1420
 2892W        W19026   2.176   8.924   0.327 -0.1050  0.0281  0.0853
 2893W        W19027  15.200   5.090  12.968  0.0023  0.1915  0.1468
 2894W        W19028  12.706   0.546  14.494  0.0409  0.3398 -0.0641
 2895W        W19029   6.623  10.099  12.512  0.3465  0.1167  0.1089
 2896W        W19030   4.594  16.148   0.831 -0.0827  0.0892 -0.1163
 2897W        W19031   5.199  17.921   3.334  0.1895 -0.0889  0.1134
 2898W        W19032   8.940   3.479   3.926 -0.3868 -0.0880 -0.1381
 2899W        W19033   9.340   0.693   2.280 -0.3076  0.1877  0.2589
 2900W        W19034  13.170  12.083   3.331 -0.3895  0.1313 -0.1670
 2901W        W19035   6.990  12.816  15.908  0.2452  0.1167  0.2106
 2902W        W19036   7.584  15.040  12.187  0.3586 -0.1811  0.0148
 2903W        W19037  13.146   4.984  13.116 -0.0993  0.1836  0.0209
 2904W        W19038   1.717  16.230   2.011 -0.0892  0.1353 -0.0413
 2905W        W19039   2.509   0.092  14.572  0.0576 -0.1607  0.0520
 2906W        W19040   0.211   0.084  14.870  0.3834  0.0422 -0.0085
 2907W        W19041  12.158  16.447  14.882  0.4346  0.0987  0.0453
 2908W        W19042  15.898   2.050  15.168 -0.0376  0.1479  0.0371
 2909W        W19043   6.677   8.062   3.850  0.1387  0.0648  0.2971
 2910W        W19044   8.290  14.888   4.951 -0.0658  0.2345 -0.1458
 2911W        W19045   5.077   0.267   0.559  0.0403 -0.0683  0.0767
 2912W        W19046  13.079  15.150   5.840 -0.0889  0.0179  0.0209
 2913W        W19047   3.245  14.941   4.377 -0.0967 -0.0691  0.0422
 2914W        W19048  13.906   2.820  14.335 -0.1245 -0.2335 -0.1286
 2915W        W19049   4.632   6.467  11.943  0.3692 -0.1509  0.1361
 2916W        W19050   6.512   8.335   2.727 -0.0356  0.1011  0.0108
 2917W        W19051   6.878   7.509  12.434  0.2403  0.0875 -0.2640
 2918W        W19052  15.913  16.911   0.540 -0.2104  0.1081  0.0930
 2919W        W19053   8.154  15.708   2.506  0.0455 -0.0676  0.1585
 2920W        W19054   5.583   3.622  16.407  0.0697  0.1076 -0.2964
 2921W        W19055   7.481  12.905   5.938  0.1032 -0.3311  0.2367
 2922W        W19056  10.088  15.662  12.131  0.1878 -0.1006  0.1595
 2923W        W19057   8.776  17.659   0.226  0.2439 -0.1304 -0.1945
 2924W        W19058  12.243  12.194   2.307 -0.1086  0.0875  0.1295
 2925W        W19059  12.447   1.652   4.638  0.1638  0.2731 -0.2580
 2926W        W19060   2.781   0.784  12.774  0.4435  0.2201 -0.0325
 2927W        W19061   3.231  15.499  12.876  0.2230  0.0671  0.0612
 2928W        W19062  13.092   5.245   3.005  0.0869  0.0331  0.1148
 2929W        W19063  12.264   2.585   0.776 -0.1545  0.1420  0.2489
 2930W        W19064  16.435  17.811   4.980  0.0057 -0.0819  0.2122
 2931W        W19065   8.179   2.283   0.293  0.2067 -0.3606 -0.0151
 2932W        W19066   5.753   1.930   4.492  0.3326 -0.1856 -0.0651
 2933W        W19067  17.929   8.263  12.935  0.1363  0.3705 -0.0382
 2934W        W19068   2.576   9.530   2.680  0.0693 -0.0999 -0.0306
 2935W        W19069   5.376   8.928  11.746 -0.0041  0.3862  0.0647
 2936W        W19070  14.475  13.048  13.202 -0.2949 -0.1318  0.0133
 2937W        W19071   5.527   7.626   3.030  0.0500 -0.0565  0.0732
 2938W        W19072   9.930  17.760   1.354  0.3081 -0.0747  0.2723
 2939W        W19073  10.249   9.034  14.335  0.0788 -0.2949  0.1137
 2940W        W19074   3.981   0.951   3.753 -0.1356 -0.2596 -0.0691
 2941W        W19075  15.951   5.691  11.145  0.1811 -0.1082  0.2142
 2942W        W19076   1.891   8.290   3.342  0.0308 -0.1865 -0.1807
 2943W        W19077   8.495   4.469  14.950 -0.1400  0.1697 -0.0013
 2944W        W19078  16.490   6.478   5.317  0.1861  0.2397 -0.0307
 2945W        W19079  14.446  17.432  12.323 -0.1385 -0.0509 -0.0781
 2946W        W19080  13.403   3.184  13.332 -0.2784 -0.1407 -0.0200
 2947W        W19081  17.309   7.837  11.055 -0.0024  0.0768 -0.3146
 2948W        W19082   6.067   3.973  13.579 -0.0136 -0.1951  0.0149
 2949W        W19083   7.813   6.375  12.398  0.1454  0.2678 -0.1066
 2950W        W19084   8.304   5.493   2.008  0.0341 -0.0582 -0.0083
 2951W        W19085  14.655   8.761   4.680  0.0297  0.1771  0.0389
 2952W        W19086  15.577  13.633   5.370  0.1178  0.1362  0.1080
 2953W        W19087   3.149   3.354  13.213  0.1895  0.0375  0.0476
 2954W        W19088  12.454   6.811   3.316 -0.0123  0.1272 -0.2351
 2955W        W19089  13.870  13.277   3.218 -0.2834  0.1709  0.3171
 2956W        W19090   5.281   4.147  11.196 -0.0958  0.0363 -0.0992
 2957W        W19091   3.433  10.057   2.898  0.0141 -0.2092  0.1444
 2958W        W19092   6.159   5.509   0.698 -0.3729 -0.0946 -0.0282
 2959W        W19093  12.464  11.505   5.038 -0.0680  0.2513 -0.0964
 2960W        W19094   0.003  16.791   2.080 -0.1998  0.1100 -0.0667
 2961W        W19095  16.478   2.719  11.533 -0.1959 -0.0000 -0.1395
 2962W        W19096  16.082   2.074   2.988 -0.0762  0.1271  0.0932
 2963W        W19097   8.966   6.970   0.145  0.1448  0.0576 -0.0802
 2964W        W19098   3.132   2.434   4.120 -0.2671 -0.1590  0.2987
 2965W        W19099   4.581   8.507  14.179  0.0560  0.0080 -0.1084
 2966W        W19100   8.786   1.185   3.838  0.1798  0.4364  0.3289
 2967W        W19101  15.039  16.626   0.138  0.3443 -0.1268  0.0008
 2968W        W19102  13.931  13.073   4.882  0.0121 -0.0621 -0.1814
 2969W        W19103   3.416  15.966  12.621 -0.3342 -0.0577  0.0034
 2970W        W19104   9.812  14.369   3.992  0.2219  0.0536 -0.4707
 2971W        W19105   6.575  10.596  13.815  0.1432  0.2987  0.2597
 2972W        W19106  16.935  15.618  13.906 -0.0117 -0.1530  0.0456
 2973W        W19107  15.740  10.656   4.310 -0.1991  0.0377  0.1193
 2974W        W19108  10.287   7.478  10.246 -0.0735 -0.0481 -0.3247
 2975W        W19109   4.965   8.011   1.686  0.1180 -0.2856 -0.1219
 2976W        W19110   4.388   9.429   2.501 -0.0448  0.0818  0.0793
 2977W        W19111   3.507   8.447   1.209  0.1308  0.1069 -0.0297
 2978W        W19112  13.575  10.759   4.146  0.2646  0.0980  0.0425
 2979W        W19113   1.063  16.347  14.708 -0.0459  0.0791 -0.0277
 2980W        W19114   2.411   2.410   5.699  0.0154  0.0677  0.2613
 2981W        W19115  17.449  10.783   1.455 -0.1489 -0.1048  0.0751
 2982W        W19116   6.220   3.799  15.632  0.0038  0.0643 -0.2586
 2983W        W19117  14.911   4.802   0.665  0.2118  0.0901 -0.1135
 2984W        W19118  15.787   8.125   4.558 -0.0372 -0.2281  0.0908
 2985W        W19119   2.543   7.754   5.517  0.1641 -0.1312  0.0854
 2986W        W19120   7.067   7.360   3.140 -0.1086 -0.0634 -0.1461
 2987W        W19121   2.620   3.258  16.253  0.0011 -0.2642  0.0294
 2988W        W19122  16.887  10.558  13.661  0.2454 -0.0381  0.0258
 2989W        W19123   3.601  14.469   1.163 -0.0561 -0.2295  0.1212
 2990W        W19124   4.580  15.261   1.486 -0.1508 -0.0746  0.1803
 2991W        W19125  14.947   5.630   1.735  0.0518 -0.1977 -0.0655
 2992W        W19126  17.031   6.080  11.523 -0.1205  0.0945 -0.0366
 2993W        W19127   4.404  15.814   5.012  0.1644  0.0302 -0.0404
 2994W        W19128   8.060   0.136  16.247  0.1302 -0.1203 -0.0164
 2995W        W19129   3.495   7.943   2.532 -0.2926 -0.2439 -0.0263
 2996W        W19130   5.783   3.022  14.880  0.1277  0.2376 -0.0381
 2997W        W19131   5.149  13.802   5.154  0.0924  0.1022  0.0473
 2998W        W19132   6.704   8.367  14.434 -0.1494 -0.1180  0.3184
 2999W        W19133   6.134   1.955   2.809  0.2382 -0.0474 -0.0003
 3000W        W19134  17.436  16.396   6.257 -0.1382  0.1967 -0.3491
 3001W        W19135   0.945   0.095   0.425 -0.1087  0.0569  0.2552
 3002W        W19136   8.025  14.932   1.714 -0.1057  0.2365 -0.3017
 3003W        W19137  15.505  11.545  16.349  0.1039  0.0327 -0.0020
 3004W        W19138  17.726  12.884  16.322  0.0245 -0.1506 -0.2157
 3005W        W19139  16.362   4.344  12.922  0.0442 -0.0249  0.1339
 3006W        W19140  17.841  15.386   1.971 -0.0011 -0.1453  0.0144
 3007W        W19141  16.675   5.143  15.994  0.0023 -0.0596  0.1480
 3008W        W19142   0.487  16.136  13.638 -0.0602 -0.0375  0.2876
 3009W        W19143   7.344   5.539  13.912 -0.1157  0.2942 -0.1310
 3010W        W19144   5.303  10.706  12.362 -0.0805  0.0267  0.0724
 3011W        W19145   9.990   9.363   0.209 -0.0067  0.0293  0.1845
 3012W        W19146  11.145   5.391   1.086 -0.1992 -0.1369 -0.0306
 3013W        W19147  15.452   6.970  13.472 -0.0400 -0.1565  0.1335
 3014W        W19148   3.132   4.857   3.742 -0.1286 -0.1314 -0.1530
 3015W        W19149   6.416   2.214   5.073 -0.0785  0.0852 -0.1286
 3016W        W19150   0.617   2.791   0.408  0.0557  0.1395 -0.0411
 3017W        W19151   0.617  11.536  13.221 -0.1405 -0.2136 -0.1447
 3018W        W19152   1.289   8.399  15.283  0.1241  0.1045 -0.2603
 3019W        W19153  17.012   6.353   1.879 -0.0012 -0.3000  0.1448
 3020W        W19154   8.511   4.083   2.503 -0.4198  0.1488 -0.2244
 3021W        W19155   0.828  11.046   2.516  0.5456  0.0664 -0.0543
 3022W        W19156   5.373   2.683   1.702  0.0757  0.0386  0.0745
 3023W        W19157  16.217  13.321   3.853  0.1539  0.1370 -0.0675
 3024W        W19158   4.971   9.277  15.353 -0.0249 -0.1225 -0.2769
 3025W        W19159  11.415   0.307   0.144  0.0538  0.0684 -0.1555
 3026W        W19160   6.602   6.833  15.663 -0.1032  0.1475 -0.0618
 3027W        W19161   5.174   5.478  15.857 -0.0531 -0.0776 -0.1594
 3028W        W19162   8.152  12.722   0.353 -0.1229  0.1067 -0.0631
 3029W        W19163   2.259  10.081   0.964  0.1380  0.0683 -0.1000
 3030W        W19164   3.049   6.868   0.583 -0.0286  0.2756 -0.0342
 3031W        W19165  16.867  10.803   4.739  0.1961  0.0369 -0.0616
 3032W        W19166  14.086   2.012   1.369  0.1899  0.1399 -0.1691
 3033W        W19167   0.835  15.121  12.964 -0.0848 -0.0326  0.3351
 3034W        W19168   3.456  13.541   3.179 -0.1775  0.0791  0.1193
 3035W        W19169   1.346  16.428   5.543 -0.3106 -0.0658 -0.0453
 3036W        W19170   1.523   3.227   5.022  0.0140 -0.2138  0.2165
 3037W        W19171   8.630  11.502   5.776  0.0136 -0.1525  0.1160
 3038W        W19172  17.132   4.838  14.473  0.0508  0.2006  0.1560
 3039W        W19173  11.491   3.764  12.853  0.0862 -0.2535 -0.1746
 3040W        W19174  17.289   1.114  13.798  0.0629 -0.0985  0.2186
 3041W        W19175   1.588   9.063  11.742  0.1209 -0.2128 -0.0621
 3042W        W19176  10.180   8.970   5.566 -0.1229 -0.0086  0.3217
 3043W        W19177   0.888   2.565   3.421 -0.0850  0.1828  0.0884
 3044W        W19178   8.688  13.785  14.753  0.0635  0.0248  0.0549
 3045W        W19179   4.508  17.258   5.197  0.1362 -0.2168 -0.1463
 3046W        W19180   1.794   9.545   5.089  0.1576  0.0020 -0.1620
 3047W        W19181   5.820  14.657   3.477  0.0160 -0.1261 -0.1999
 3048W        W19182   4.930  13.541  14.359 -0.1406 -0.3246 -0.0890
 3049W        W19183  15.041  16.824  11.419 -0.2072  0.2815  0.0483
 3050W        W19184   3.279   9.853   3.321 -0.3599 -0.2414  0.0132
 3051W        W19185   8.898  15.111  11.963  0.1538 -0.2453  0.1822
 3052W        W19186  11.941   0.564  12.519 -0.1100  0.1511  0.0139
 3053W        W19187  12.799  13.178  14.431  0.1086  0.0282  0.0897
 3054W        W19188  10.804  15.373  14.426  0.3029 -0.1756 -0.3363
 3055W        W19189  13.463  15.753  10.781  0.1742  0.0760  0.3155
 3056W        W19190   6.231  14.202  15.433  0.0618  0.2620 -0.1025
 3057W        W19191   3.496   6.862   1.296  0.2603 -0.0054 -0.0700
 3058W        W19192   2.464  17.031   2.849  0.1922 -0.2182 -0.1495
 3059W        W19193  10.930  17.102  14.590 -0.0530  0.1758 -0.0213
 3060W        W19194   7.123  17.605   5.370 -0.3040 -0.2064 -0.0207
 3061W        W19195  16.717   0.024   4.699 -0.1960 -0.1129  0.0529
 3062W        W19196   7.548   2.163   4.410  0.4200  0.1003  0.1029
 3063W        W19197   5.801   3.926   2.514 -0.1152  0.2239  0.2361
 3064W        W19198  14.559  11.529   4.270 -0.1205 -0.0275  0.0722
 3065W        W19199   2.414   0.428   0.830 -0.2469 -0.0210 -0.1034
 3066W        W19200   0.456   6.693  10.322 -0.1656 -0.1446 -0.2776
 3067W        W19201   0.158  12.264   0.772 -0.0422  0.1484 -0.2026
 3068W        W19202   4.391  12.013   0.432 -0.0060  0.3531 -0.0039
 3069W        W19203   8.182  15.286   0.870 -0.0616  0.0265  0.0506
 3070W        W19204   4.449   0.878   0.687  0.1033  0.2310 -0.1950
 3071W        W19205   0.771  10.076   3.661  0.2222 -0.1422 -0.1010
 3072W        W19206  13.672   9.099  16.329  0.0234 -0.3807  0.0618
 3073W        W19207  11.246  14.005   5.652  0.2995 -0.2400 -0.0805
 3074W        W19208   8.909   0.647  11.329 -0.0886 -0.2981  0.1939
 3075W        W19209   9.261  10.153  15.083 -0.1328 -0.0713 -0.0696
 3076W        W19210   4.498   7.122  16.263 -0.0568 -0.1448  0.1521
 3077W        W19211   6.539   8.020  15.673 -0.1156 -0.0216  0.1218
 3078W        W19212  17.475   7.423   2.114 -0.1536 -0.0392 -0.0830
 3079W        W19213   1.505  17.493   1.482 -0.1942  0.2586 -0.3610
 3080W        W19214  10.807   1.526   0.997 -0.1954  0.1136 -0.1409
 3081W        W19215   4.375   5.812   5.600 -0.0724 -0.0766  0.2563
 3082W        W19216  16.959   1.494   5.620  0.0304 -0.1813  0.0222
 3083W        W19217   7.527  15.524  11.428 -0.0044 -0.3701 -0.2326
 3084W        W19218   5.310   5.951   2.498  0.0852  0.2394 -0.1677
 3085W        W19219   8.445   0.463  11.622  0.1699 -0.1135  0.0875
 3086W        W19220   4.517   1.702  15.962 -0.1716  0.1091  0.0047
 3087W        W19221   8.778  12.860  12.143  0.1731 -0.2428  0.0615
 3088W        W19222   6.291  17.169  14.459 -0.1958 -0.0364  0.2162
 3089W        W19223  12.661   4.574  11.771  0.1648 -0.1321 -0.1374
 3090W        W19224  17.446   8.693   4.154 -0.0535 -0.1485 -0.0722
 3091W        W19225  16.772   4.081  14.978  0.0101  0.1285 -0.2360
 3092W        W19226   3.244  12.070  13.882  0.1866  0.5072  0.1763
 3093W        W19227   4.701   7.601  16.242 -0.1087  0.0348  0.2361
 3094W        W19228  12.709  12.427  16.243 -0.2873 -0.1247 -0.1796
 3095W        W19229  13.564   4.661  11.564  0.0434  0.1883 -0.1129
 3096W        W19230   9.668   0.604   0.093 -0.0621  0.0081  0.1376
 3097W        W19231  17.828  16.872  15.228 -0.0461  0.1481 -0.1652
 3098W        W19232  13.374   7.834   1.897 -0.0832  0.1042 -0.0569
 3099W        W19233   4.262  10.682  11.988 -0.1405  0.0328 -0.0475
 3100W        W19234   7.857   7.611   3.693 -0.0803  0.0276  0.4240
 3101W        W19235  12.362   4.091   4.967 -0.0009 -0.0985 -0.1452
 3102W        W19236   3.416  11.000   0.012 -0.2255 -0.1230 -0.0569
 3103W        W19237  13.086   5.946  11.169  0.3902  0.0722  0.2787
 3104W        W19238  12.288  16.710  15.709  0.0440  0.1044  0.2363
 3105W        W19239   2.281   6.422   1.626  0.2593  0.3151 -0.0453
 3106W        W19240  14.615   3.562  14.195 -0.0916 -0.1509 -0.1487
 3107W        W19241  10.326  16.125   4.157  0.1899 -0.2195 -0.3702
 3108W        W19242   8.842   5.876   1.615 -0.0216 -0.0593  0.1822
 3109W        W19243   8.300  13.027   2.763  0.1674  0.2071  0.0561
 3110W        W19244  10.836   4.706  11.815  0.3077  0.1023 -0.2279
 3111W        W19245  14.572   3.403   5.374 -0.0984 -0.0578  0.1635
 3112W        W19246   2.816   3.596   6.069 -0.1214  0.1236 -0.0188
 3113W        W19247  14.116   3.968   5.546 -0.1495  0.0304  0.2987
 3114W        W19248  12.582  11.684  14.579 -0.1568  0.0714 -0.2932
 3115W        W19249   2.043   3.877   0.998 -0.1589 -0.0567  0.0690
 3116W        W19250   8.527   0.742   2.653  0.0983  0.2167  0.1722
 3117W        W19251   9.280   6.492   1.227  0.0168 -0.1637 -0.1421
 3118W        W19252   7.266  13.072  13.185 -0.3595  0.1043  0.0633
 3119W        W19253   5.608  11.566  14.176 -0.1251  0.0146 -0.1755
 3120W        W19254  16.821   5.653   1.309 -0.2986  0.0088  0.0271
 3121W        W19255   4.827   7.604  14.019  0.1365 -0.0676  0.2585
 3122W        W19256   3.819  14.992  11.682 -0.1691 -0.1741 -0.1572
 3123W        W19257   2.633   4.584   2.458 -0.1345 -0.1089 -0.1215
 3124W        W19258  10.534  14.202  11.875  0.0410  0.1570 -0.0845
 3125W        W19259   6.109   4.461   4.686 -0.1498 -0.3402 -0.3174
 3126W        W19260  17.729   3.194  16.078  0.2389 -0.1865 -0.5491
 3127W        W19261  12.302   6.878  12.388 -0.1716 -0.1221  0.0957
 3128W        W19262   2.185   1.292   5.318  0.1621  0.0055  0.2411
 3129W        W19263   1.712  15.053  14.883  0.3334 -0.0187 -0.4123
 3130W        W19264  17.166   0.944   4.779  0.0568  0.0996  0.2309
 3131W        W19265   7.572   5.798  15.494  0.2027  0.2980  0.0536
 3132W        W19266   0.007  16.660   4.491 -0.1076 -0.2405  0.2066
 3133W        W19267   9.551  14.191  15.037 -0.3417 -0.0857  0.2165
 3134W        W19268  12.957  16.055  12.002  0.1155 -0.0369 -0.1227
 3135W        W19269  16.929  15.110  13.476  0.4316  0.0482 -0.0828
 3136W        W19270   5.236   8.436  13.336  0.0798 -0.1459  0.0716
 3137W        W19271  15.286   3.531   3.222 -0.1467  0.0622 -0.3543
 3138W        W19272   7.872  17.565  15.920  0.0317  0.3417 -0.2457
 3139W        W19273   8.223  17.884   5.568 -0.0205  0.0191 -0.0195
 3140W        W19274   6.622  17.980  11.676  0.0318  0.0462  0.1289
 3141W        W19275   0.050   4.097   4.821  0.2835 -0.0426 -0.1648
 3142W        W19276  16.639   2.271  12.546  0.0928 -0.1058 -0.1369
 3143W        W19277  11.340   3.149   5.984 -0.0030  0.1006  0.0218
 3144W        W19278   8.574   5.592   1.210 -0.3775  0.3747  0.4718
 3145W        W19279   4.260  10.624   0.641 -0.1194  0.0203 -0.0670
 3146W        W19280  14.938   6.103   2.498 -0.2865  0.2338  0.1536
 3147W        W19281  12.512   2.134  13.937 -0.1057 -0.1387  0.1161
 3148W        W19282  12.972  14.128   4.417  0.2406  0.0003 -0.0306
 3149W        W19283  11.787  17.045   0.234  0.1100  0.1794 -0.0841
 3150W        W19284   8.151  17.397   1.953  0.0399  0.2581 -0.0068
 3151W        W19285  14.759   5.705   2.731  0.0750  0.2340  0.0803
 3152W        W19286   6.152  14.592  14.377  0.0696  0.1237 -0.1350
 3153W        W19287   5.526   5.785  16.235 -0.0312 -0.0131 -0.2081
 3154W        W19288   2.343  16.877   3.619  0.0401 -0.0288 -0.2775
 3155W        W19289   6.253   2.727  15.178 -0.1431 -0.0240 -0.0425
 3156W        W19290  10.665  13.285   3.343  0.0062 -0.1027 -0.2066
 3157W        W19291  13.483  17.547   0.708 -0.0821 -0.1777  0.0759
 3158W        W19292   4.405  13.347  13.537 -0.0117  0.2311 -0.1081
 3159W        W19293   3.625   0.472  15.293  0.2311  0.0693 -0.0361
 3160W        W19294   1.826   3.103   5.942 -0.1478  0.0819 -0.0700
 3161W        W19295  15.217  17.156   1.418 -0.0738  0.3336  0.0593
 3162W        W19296   0.383   5.943  15.165 -0.1077 -0.0974 -0.2398
 3163W        W19297   3.585   8.816  15.042  0.1453  0.2988  0.2729
 3164W        W19298  17.761  15.578   1.047  0.0815  0.1868  0.0218
 3165W        W19299  16.721  17.149  12.085 -0.1703  0.2154 -0.1599
 3166W        W19300   8.902  14.143   2.003  0.1733 -0.0084  0.1124
 3167W        W19301   6.781   1.428   2.776 -0.4071  0.1455 -0.0455
 3168W        W19302   7.214  16.603  11.886 -0.0647  0.0092 -0.0209
 3169W        W19303  17.467  12.157  12.376 -0.1640  0.1365  0.1908
 3170W        W19304  10.443  14.414  10.124  0.2046  0.2981  0.0768
 3171W        W19305  15.911  16.338   2.627  0.1784 -0.0086  0.1346
 3172W        W19306   4.697   9.792  10.350  0.0344  0.3558  0.2433
 3173W        W19307  11.456  10.470  11.181 -0.0775 -0.1186 -0.1823
 3174W        W19308   9.216   7.112   1.124  0.0042  0.1363  0.1880
 3175W        W19309   6.812   1.588   5.678  0.2246  0.0842  0.0558
 3176W        W19310  17.974  12.983   1.693 -0.1247 -0.1310  0.0963
 3177W        W19311  12.408   6.978  13.248  0.2766  0.1436 -0.1709
 3178W        W19312  14.090   9.898  11.870  0.0558 -0.2313 -0.0354
 3179W        W19313   0.342  11.104  14.943 -0.0146 -0.0452  0.1629
 3180W        W19314   1.048   9.140  13.431 -0.2788  0.2657 -0.0568
 3181W        W19315   8.201   7.383  15.712  0.1207  0.1770  0.0690
 3182W        W19316  17.642  13.137  11.697 -0.0023  0.3742 -0.2873
 3183W        W19317   4.523  12.734   4.714 -0.0769  0.1245  0.0627
 3184W        W19318   1.472  17.991   1.693 -0.3083 -0.4407  0.1005
 3185W        W19319   8.026   1.476   1.275  0.1259  0.1573  0.3207
 3186W        W19320  14.096  17.543   1.128  0.2070  0.0357  0.0920
 3187W        W19321  10.606   9.392  14.227 -0.2372  0.1006 -0.1716
 3188W        W19322  18.026  17.691  14.578 -0.2792 -0.2683 -0.2431
 3189W        W19323   0.044   9.043  14.130 -0.3244 -0.0838  0.2198
 3190W        W19324   3.942  11.602  12.289 -0.0378 -0.0468  0.0386
 3191W        W19325   8.209  11.453  15.130  0.2161 -0.0047  0.1260
 3192W        W19326   1.058   3.202  13.931 -0.1447 -0.0388  0.1094
 3193W        W19327  11.802  10.704   4.008  0.0498  0.0733 -0.1196
 3194W        W19328  12.997   3.558   5.022 -0.1282  0.1684  0.2320
 3195W        W19329  12.202   4.663   4.939  0.0187  0.2132  0.1354
 3196W        W19330  16.060  13.076   0.599  0.1952 -0.2539  0.0144
 3197W        W19331   3.300   0.740   0.435  0.1136  0.2314  0.1134
 3198W        W19332   4.179  13.344   0.585  0.0179 -0.0321  0.1144
 3199W        W19333   8.085  14.837  15.469 -0.3072  0.0772 -0.0041
 3200W        W19334  13.385  15.619   3.899  0.0140  0.1530  0.0868
 3201W        W19335  10.080  15.262   0.044 -0.0375  0.4123 -0.1917
 3202W        W19336   7.543  13.539   2.193 -0.2566  0.0652  0.1535
 3203W        W19337   3.546  14.188   3.890 -0.0709 -0.2766  0.2896
 3204W        W19338  10.412  14.248  14.557 -0.0133  0.1417 -0.0903
 3205W        W19339   3.873   6.795   2.141 -0.4323 -0.2361  0.3114
 3206W        W19340   0.366   9.460  14.448  0.2718 -0.2555 -0.0766
 3207W        W19341   0.721  12.226   3.788 -0.0015  0.0989  0.2212
 3208W        W19342   6.413  17.364  12.584 -0.1412  0.0638 -0.1062
 3209W        W19343   2.449   4.532  11.908  0.2209  0.1120 -0.0689
 3210W        W19344   4.265  10.443  16.404  0.1162  0.0577 -0.0692
 3211W        W19345   2.774  14.052  16.387 -0.0068  0.0395  0.2160
 3212W        W19346  17.949   2.291  14.926 -0.0373 -0.1455  0.3207
 3213W        W19347  14.579  13.294  14.749  0.2312 -0.1266 -0.1740
 3214W        W19348   9.699   1.741  12.355  0.0657  0.1702  0.0844
 3215W        W19349   4.376   0.112   4.098 -0.2358 -0.3296  0.0945
 3216W        W19350  12.167   9.181   2.856 -0.1739  0.0707  0.1412
 3217W        W19351   9.589   3.335  14.888 -0.0120 -0.0977 -0.2239
 3218W        W19352   0.155   2.415   4.477  0.1998  0.3642  0.1156
 3219W        W19353   8.984   4.614  14.484 -0.0157  0.2676 -0.2031
 3220W        W19354   5.769  15.922  12.698  0.2179 -0.0223  0.0193
 3221W        W19355   3.783  14.316  13.287  0.3384  0.1077 -0.2467
 3222W        W19356   4.862   9.570   4.542 -0.2566  0.1730  0.0489
 3223W        W19357   3.115   6.364  14.290  0.1435  0.3418 -0.2189
 3224W        W19358   8.989   9.644   1.819  0.3010  0.0074 -0.0622
 3225W        W19359  14.082  16.375   0.651 -0.2180  0.4317 -0.1524
 3226W        W19360  12.614   1.162  14.832 -0.0127 -0.0739 -0.1816
 3227W        W19361  10.956   9.770   2.160 -0.0408  0.0033  0.0745
 3228W        W19362   4.391   5.020   3.334 -0.1374 -0.2730  0.0124
 3229W        W19363   3.195  17.773   1.383 -0.1250 -0.0569  0.0518
 3230W        W19364   7.715   3.210   1.647 -0.1588 -0.0250 -0.1797
 3231W        W19365   1.529   6.096  16.088  0.1918  0.0718  0.3214
 3232W        W19366  16.788   2.708  14.864 -0.0180 -0.2665 -0.2130
 3233W        W19367  17.337   5.305  15.238  0.0575 -0.2644  0.2346
 3234W        W19368   8.550   9.003  15.630 -0.0602 -0.1411 -0.3929
 3235W        W19369   4.588  13.157  13.112  0.0284  0.0728 -0.2010
 3236W        W19370  11.049   7.470   1.608 -0.0828  0.2574  0.0028
 3237W        W19371   2.558   7.757   2.648 -0.1610  0.0227  0.0237
 3238W        W19372   0.566  11.408   4.934 -0.1689 -0.0451  0.2844
 3239W        W19373  15.882   3.807   1.799 -0.3973  0.0239  0.2557
 3240W        W19374   6.764   8.847   4.279 -0.3658 -0.2550  0.1577
 3241W        W19375  16.217  13.381  12.014  0.0403  0.1862 -0.0642
 3242W        W19376  14.896  14.918   3.073  0.0189 -0.0208  0.0396
 3243W        W19377   1.473   3.819   5.748 -0.1267  0.0850  0.0611
 3244W        W19378  11.032  14.649  15.486  0.2868 -0.1767  0.0479
 3245W        W19379  15.846  11.932   0.953  0.2950  0.2691  0.0329
 3246W        W19380   8.645  16.244  12.132 -0.1546 -0.0508  0.2783
 3247W        W19381  12.016   5.995  14.604  0.3320  0.0296  0.0510
 3248W        W19382  18.015  14.802  12.072 -0.0802 -0.2211  0.0260
 3249W        W19383   0.346   6.776  13.700 -0.0056 -0.0268  0.1360
 3250W        W19384  17.424  15.353   2.280 -0.0401  0.1714  0.0111
 3251W        W19385  10.338   7.033  14.339 -0.0219  0.1144  0.3743
 3252W        W19386  18.019   8.479   2.325  0.0891  0.0296  0.2177
 3253W        W19387  16.386   5.468  16.240 -0.1475  0.0892 -0.0517
 3254W        W19388  13.454   5.430   2.328 -0.3486 -0.2162  0.0877
 3255W        W19389  12.939   1.621   5.169 -0.0675  0.1588 -0.2581
 3256W        W19390  17.373  17.277   3.976  0.0970 -0.0070  0.0620
 3257W        W19391   8.515   8.672  14.769  0.0728 -0.1840 -0.0259
 3258W        W19392   5.496   7.909   1.680  0.0249 -0.1457  0.0127
 3259W        W19393   3.935   1.470   4.408 -0.0712  0.2310 -0.1043
 3260W        W19394  13.702  16.321   1.154  0.2017  0.2413 -0.0701
 3261W        W19395   0.302  12.969  14.392 -0.1275 -0.3693  0.1776
 3262W        W19396  13.309   9.017   5.164  0.1311  0.1726 -0.2293
 3263W        W19397  10.896  15.765   2.522 -0.0833 -0.0208 -0.1311
 3264W        W19398  13.083   1.816  13.191  0.1750  0.0237  0.2102
 3265W        W19399  14.252  11.869   0.754  0.2615  0.0025  0.3467
 3266W        W19400   5.425   0.004   2.146  0.0525  0.1015 -0.1136
 3267W        W19401  14.701  13.315   3.977  0.4065 -0.2389 -0.1415
 3268W        W19402   3.896  16.015  15.371 -0.1847 -0.2021  0.0388
 3269W        W19403   1.704  16.933   1.197 -0.1598  0.2171 -0.0435
 3270W        W19404   7.202   6.021  14.253  0.1238 -0.1121 -0.1478
 3271W        W19405   6.505   7.389   4.810 -0.1838  0.0203  0.1676
 3272W        W19406   9.785  12.455   5.852 -0.1706 -0.1239  0.1572
 3273W        W19407  17.925   0.492   1.243  0.2073 -0.2120  0.3503
 3274W        W19408  16.009  10.770   4.995  0.0267 -0.3238  0.1656
 3275W        W19409   2.990  16.132  15.643  0.0601  0.0783  0.0702
 3276W        W19410   1.165  16.499  12.150 -0.1573  0.1957 -0.4050
 3277W        W19411   6.718   8.351   5.163  0.0833  0.0073  0.1764
 3278W        W19412  14.097   1.444   4.394 -0.1746  0.1204  0.0114
 3279W        W19413   5.309   3.807  14.551  0.1624  0.1592 -0.3528
 3280W        W19414   9.961  12.798  14.978 -0.3379 -0.2555 -0.2289
 3281W        W19415  16.978  15.146   1.583 -0.1629  0.1301  0.3682
 3282W        W19416   1.408   9.663   5.413  0.1340 -0.3313  0.0745
 3283W        W19417  15.907  17.160   0.111  0.0486 -0.1080 -0.2604
 3284W        W19418   3.168   0.459  13.628 -0.1041  0.0974 -0.1679
 3285W        W19419  14.339   0.019   0.059  0.1321  0.0652  0.0312
 3286W        W19420   7.973   7.517   1.947 -0.0955 -0.3060  0.0277
 3287W        W19421  12.154   9.462   3.828  0.1522 -0.0807  0.0339
 3288W        W19422  12.764   1.485   5.897 -0.0764 -0.1475  0.2964
 3289W        W19423   2.907  14.109  12.991 -0.0936  0.0912  0.0446
 3290W        W19424  15.923  12.442   0.220  0.2120  0.1865 -0.0836
 3291W        W19425  11.668   8.613   0.775 -0.0932  0.0364 -0.1797
 3292W        W19426  17.453  12.945   1.558  0.2983 -0.1483  0.0487
 3293W        W19427  16.849   9.758  12.091 -0.0292  0.1126 -0.2188
 3294W        W19428   7.986   7.973  11.873 -0.1007 -0.0512  0.0282
 3295W        W19429   9.076   1.285  13.985 -0.4038  0.2527 -0.1016
 3296W        W19430   0.599  10.480   2.153 -0.0209  0.0980 -0.0023
 3297W        W19431  16.343  10.532  16.146  0.1075 -0.1689  0.2829
 3298W        W19432  16.088   0.818   3.408  0.2352 -0.0767  0.1758
 3299W        W19433  11.989   3.795   3.014 -0.1178  0.0682  0.0260
 3300W        W19434   8.249   6.379  13.338 -0.3422 -0.4129  0.1708
 3301W        W19435   4.472  12.876  11.835  0.2303  0.1166 -0.0763
 3302W        W19436  10.457   3.861   1.889  0.0385 -0.2379  0.1104
 3303W        W19437   4.848   2.105  14.178  0.1564 -0.0932 -0.0304
 3304W        W19438  13.566   4.289  12.844 -0.1507  0.0167 -0.0314
 3305W        W19439  14.984  17.614  15.956  0.3020 -0.1156 -0.1973
 3306W        W19440   7.658  14.055  16.124 -0.0586  0.2509  0.0143
 3307W        W19441  12.825   0.715   4.810 -0.0302  0.0846 -0.0432
 3308W        W19442  14.838  12.836   2.044  0.0119  0.0929  0.0319
 3309W        W19443   9.665   5.256  12.906  0.0922  0.0783 -0.2735
 3310W        W19444   9.808  13.106   3.745 -0.3389 -0.1566 -0.0818
 3311W        W19445   0.551  14.993   4.588  0.4038 -0.2526  0.1123
 3312W        W19446   8.190  15.300  14.756  0.0908  0.0576 -0.2068
 3313W        W19447  15.373  17.706  12.524  0.1692 -0.0733  0.2317
 3314W        W19448   2.114   9.015   2.057 -0.0090 -0.0393  0.1174
 3315W        W19449   2.955  16.928   0.957  0.3045 -0.3573  0.2652
 3316W        W19450   4.131   6.897   0.073 -0.0090 -0.0204 -0.0382
 3317W        W19451   7.466   3.981  11.932  0.0245 -0.1673  0.0816
 3318W        W19452  13.388   0.675   4.823  0.0062 -0.1780 -0.3544
 3319W        W19453   8.406  12.453   0.679  0.2514  0.2513 -0.2273
 3320W        W19454   8.015   0.986   2.837  0.0612 -0.2236  0.0516
 3321W        W19455  15.094   5.844  15.520  0.0719  0.6414 -0.0025
 3322W        W19456   1.429   6.923  15.579  0.1218  0.0630  0.1740
 3323W        W19457   0.034  17.337   2.652 -0.0306 -0.0191 -0.2817
 3324W        W19458  14.800   1.771   0.998  0.0486  0.1853  0.0268
 3325W        W19459   6.071   7.492  15.156  0.0591 -0.0906 -0.3449
 3326W        W19460  12.295  17.299   2.952 -0.1806  0.0749  0.0836
 3327W        W19461   5.446   8.736   5.507  0.0261 -0.0988  0.2844
 3328W        W19462   9.345  12.902  13.921 -0.1663 -0.1327  0.2677
 3329W        W19463   2.426  12.764   3.708 -0.0653  0.0348 -0.0194
 3330W        W19464   3.290  17.616  13.857  0.1951 -0.1098 -0.4017
 3331W        W19465   4.965  17.286  15.762 -0.0447 -0.1505 -0.0926
 3332W        W19466   9.222  15.688  11.289 -0.0540 -0.0628 -0.1990
 3333W        W19467   0.822   1.451   0.866 -0.0916  0.2375  0.1067
 3334W        W19468  14.942  13.305  13.599  0.2514  0.2196 -0.3847
 3335W        W19469  15.432   4.613  13.059 -0.1735 -0.1625 -0.3393
 3336W        W19470  11.519   4.475   2.248  0.1125 -0.0815 -0.1667
 3337W        W19471  11.293   6.039   5.064  0.1403  0.0155  0.0994
 3338W        W19472  10.158   7.493   1.822 -0.0586 -0.1293  0.2263
 3339W        W19473  13.079   6.442   2.369 -0.2592  0.3935  0.0655
 3340W        W19474   6.100  15.492  15.745 -0.0972 -0.3216 -0.0751
 3341W        W19475  14.655  11.134   3.788 -0.1448  0.1664 -0.1660
 3342W        W19476  12.927   3.561  14.940  0.0523 -0.1424 -0.1437
 3343W        W19477  12.170  17.156   4.812  0.1642  0.0107  0.1271
 3344W        W19478   8.192   0.814   4.943  0.1137 -0.0975  0.2562
 3345W        W19479   0.241   8.068   0.907 -0.2739 -0.0190 -0.1655
 3346W        W19480   9.007   6.280   4.190  0.1261  0.2911 -0.2619
 3347W        W19481   9.820  14.648  15.007  0.1093 -0.1348  0.2272
 3348W        W19482   6.306   5.773   2.201 -0.0577  0.1361 -0.1223
 3349W        W19483   9.696   6.396   0.444  0.2401  0.1365 -0.2595
 3350W        W19484   8.169   4.136   3.845 -0.1579  0.1764  0.4432
 3351W        W19485  13.452  12.989  12.307 -0.2118  0.2476  0.0591
 3352W        W19486   5.484  11.557  13.363 -0.1366 -0.2915  0.2354
 3353W        W19487   1.557  17.733  16.170 -0.2321  0.1400  0.0378
 3354W        W19488  15.834   3.774  10.393 -0.0445 -0.1095  0.0311
 3355W        W19489   3.496   5.900   2.257 -0.1852 -0.1018  0.1311
 3356W        W19490   6.031   3.043  13.550  0.1791  0.0586 -0.0211
 3357W        W19491  13.301   3.202  11.031 -0.5058 -0.0830  0.0247
 3358W        W19492  13.018   6.875   2.560 -0.0639  0.3905 -0.4545
 3359W        W19493   3.538   0.552  16.296 -0.1386  0.0765  0.0117
 3360W        W19494   2.940   4.508  11.751  0.0560  0.0238  0.2583
 3361W        W19495  12.137   2.113   3.346  0.2062 -0.0375  0.0459
 3362W        W19496   9.462   4.878   2.482 -0.0198  0.2701  0.1044
 3363W        W19497   2.632   2.105  11.356 -0.1918  0.1041  0.0573
 3364W        W19498   0.461  16.124  11.952  0.0439  0.0047  0.0704
 3365W        W19499  15.219  17.457  13.369  0.0236 -0.0253 -0.0931
 3366W        W19500   4.480  17.161  15.810  0.0269 -0.0117  0.0506
 3367W        W19501  10.430  15.792  14.559  0.1030 -0.4544 -0.1792
 3368W        W19502   2.146  15.695   4.274 -0.0592 -0.0214 -0.0722
 3369W        W19503   2.226   8.316  11.771 -0.1682  0.0195  0.0652
 3370W        W19504  16.965   4.759   3.705 -0.0349  0.0507  0.0894
 3371W        W19505   2.346   0.691   4.170  0.2124  0.0724  0.0213
 3372W        W19506  11.812  16.012  15.210 -0.0365  0.1317  0.0847
 3373W        W19507   5.940  12.929  15.753  0.2125  0.3470  0.2221
 3374W        W19508   4.619  10.142   4.657  0.2384  0.1459  0.1031
 3375W        W19509  12.275   6.249  11.449 -0.1318 -0.1431 -0.0551
 3376W        W19510  10.714  12.655   2.148  0.1413  0.1514  0.1414
 3377W        W19511   5.884   1.094   2.780 -0.2664  0.0961  0.0254
 3378W        W19512   6.244  11.022  13.992  0.1790  0.0628 -0.0345
 3379W        W19513   9.024  15.635   6.417 -0.1425  0.0863 -0.1559
 3380W        W19514  13.750  11.358  13.334  0.0226 -0.0508  0.0864
 3381W        W19515   2.325  10.585   4.718  0.2538  0.2891 -0.3519
 3382W        W19516   4.679  17.278  13.368 -0.0786 -0.1813  0.0006
 3383W        W19517  16.953   9.531  15.441  0.0629  0.0499  0.1466
 3384W        W19518  17.105   5.235   3.702 -0.1007  0.1526  0.1616
 3385W        W19519   8.063   6.232   1.018 -0.0261 -0.0880  0.0557
 3386W        W19520   9.689  12.390  16.190 -0.0795  0.2791  0.0104
 3387W        W19521  13.610  15.821   5.175  0.3345 -0.2268 -0.0060
 3388W        W19522   3.115   0.814  13.954  0.0792  0.1875  0.0103
 3389W        W19523   9.863   4.971  14.264  0.1962 -0.2895  0.0908
 3390W        W19524  15.644   7.122   3.455  0.1035  0.0498 -0.1373
 3391W        W19525   1.658  14.579   3.486  0.1584  0.1106  0.0389
 3392W        W19526  14.037   0.731  13.160 -0.0255 -0.0217 -0.1147
 3393W        W19527  14.289   6.970   0.086 -0.0562 -0.1418 -0.3494
 3394W        W19528   1.497  10.202   3.869 -0.1072  0.1469  0.0773
 3395W        W19529   7.122   9.079  13.891  0.0979  0.0466 -0.0508
 3396W        W19530  15.664  14.002  14.329  0.0767 -0.2464  0.2489
 3397W        W19531   5.503   6.090  13.547  0.2167 -0.0712  0.0755
 3398W        W19532   5.867  17.444   0.551  0.0136 -0.0960  0.0073
 3399W        W19533   5.958   5.646   1.374  0.1271 -0.0956 -0.1340
 3400W        W19534   7.992   8.379   1.220 -0.1943 -0.1005 -0.1262
 3401W        W19535   2.764   9.214   3.572  0.3326 -0.0163  0.0571
 3402W        W19536   6.810   0.938   0.965 -0.0095  0.1331  0.2815
 3403W        W19537  15.348  15.971  12.473  0.1901 -0.1881 -0.2472
 3404W        W19538   3.788  10.103   5.578 -0.0900  0.0208  0.0601
 3405W        W19539   7.016  12.874   3.943 -0.0221  0.0202  0.4637
 3406W        W19540  11.625   4.034  14.463  0.1916 -0.1203  0.0486
 3407W        W19541   6.407   6.365  15.823  0.2600  0.1780  0.2030
 3408W        W19542   1.265  14.959   3.979  0.0154 -0.2084 -0.1416
 3409W        W19543   2.695   4.758  15.724 -0.0362 -0.1375  0.2301
 3410W        W19544   0.517   2.113   5.683  0.2328 -0.5671 -0.2994
 3411W        W19545  16.881   0.087  12.527  0.3203  0.0614 -0.3530
 3412W        W19546  10.916  10.835   2.025 -0.2372 -0.1054  0.0123
 3413W        W19547   1.416  16.993  15.880 -0.0447  0.0926 -0.2570
 3414W        W19548   7.794  13.660   2.763  0.3584  0.0184  0.2329
 3415W        W19549   9.607   0.978   3.266  0.0121  0.1257  0.2276
 3416W        W19550  11.136   6.524   2.942  0.0630 -0.2628 -0.1020
 3417W        W19551   3.516  17.663   2.180  0.2350 -0.0033  0.2730
 3418W        W19552  10.800  16.801   1.947 -0.1803  0.1323 -0.0574
 3419W        W19553  15.041  17.546  12.909 -0.0534  0.2562 -0.1306
 3420W        W19554   2.795  15.404  14.151  0.1478  0.1279  0.0405
 3421W        W19555  12.658  17.785   4.628 -0.2267  0.0382  0.0805
 3422W        W19556   8.930  10.354  12.599  0.1399  0.3076  0.2632
 3423W        W19557   0.212  16.076   0.460  0.1636  0.2160 -0.1821
 3424W        W19558   5.663   4.045  14.883 -0.2081 -0.2469  0.3171
 3425W        W19559  13.187   8.347  16.262  0.0836  0.1890  0.0399
 3426W        W19560   8.635  10.506  14.413 -0.0193 -0.0953 -0.3746
 3427W        W19561   7.157  14.936   1.733  0.0886  0.2212 -0.1629
 3428W        W19562   4.318  12.078   6.277 -0.1331  0.1910  0.3759
 3429W        W19563   7.266  14.809   3.569  0.0344 -0.2051 -0.1188
 3430W        W19564   3.310  12.654  14.809 -0.2158 -0.2384  0.1963
 3431W        W19565  17.935  13.648  12.660 -0.1742  0.1151 -0.3255
 3432W        W19566   4.174  16.972  12.008 -0.1744  0.3373  0.0640
 3433W        W19567   8.729   6.225   3.032 -0.1390 -0.2197  0.0245
 3434W        W19568   4.766   9.181   3.609  0.2575 -0.0998  0.0739
 3435W        W19569  17.344   8.015  11.500 -0.1419  0.0252 -0.0951
 3436W        W19570  13.748   2.164  13.715  0.0404  0.2179  0.1308
 3437W        W19571  10.373  11.914   5.424  0.1263  0.1159 -0.3400
 3438W        W19572  12.044   3.438  13.116 -0.0981 -0.1101  0.3605
 3439W        W19573  17.595   0.774  13.965 -0.1953  0.1714 -0.3401
 3440W        W19574   1.988  12.369  15.613  0.0363 -0.1849 -0.0840
 3441W        W19575   2.034  13.082   2.050  0.2359  0.0429  0.1167
 3442W        W19576   8.339   7.457  10.493 -0.0457  0.2595 -0.1104
 3443W        W19577  17.560   4.679  14.095 -0.0389 -0.0269 -0.1879
 3444W        W19578  17.997   2.467  11.623 -0.1834  0.1444 -0.1700
 3445W        W19579   2.813   2.856  14.254  0.1919 -0.1066  0.1580
 3446W        W19580   2.968   1.250  14.950  0.1935 -0.2046  0.0812
 3447W        W19581  16.754   8.428  15.396  0.0123 -0.0044 -0.0633
 3448W        W19582  11.488  10.540  14.319 -0.3112  0.2361  0.0313
 3449W        W19583   7.885  14.659   2.815  0.1624  0.1485  0.0390
 3450W        W19584  11.065  17.042   2.744  0.2513 -0.0780 -0.3063
 3451W        W19585   3.869   5.534  14.850 -0.0768 -0.1430  0.0603
 3452W        W19586   7.876   8.093   0.825  0.2684 -0.5222  0.0915
 3453W        W19587  14.098  17.239   2.938  0.0593 -0.3007 -0.1643
 3454W        W19588   3.116   1.108  12.757  0.2530 -0.0879  0.2229
 3455W        W19589   4.364   5.200   3.782 -0.0701  0.1873 -0.0409
 3456W        W19590   6.254   7.940   4.118  0.0331 -0.1365 -0.0552
 3457W        W19591   6.463  18.034  12.581 -0.0661  0.0071  0.4562
 3458W        W19592   4.402   2.099  14.542  0.1086  0.1030  0.0770
 3459W        W19593   6.970   2.479  15.084  0.1412 -0.1058  0.0981
 3460W        W19594  11.084  15.168  12.535  0.0433  0.1269  0.0697
 3461W        W19595  10.723  10.309   2.171 -0.0052 -0.0779 -0.1593
 3462W        W19596   5.886   7.915  12.844  0.2333 -0.0584  0.1572
 3463W        W19597   2.859   6.746   3.738 -0.0320  0.0727 -0.1168
 3464W        W19598   4.448  12.155   2.956  0.1147  0.0032 -0.1338
 3465W        W19599   8.306   3.322  10.183 -0.1727  0.1501 -0.0415
 3466W        W19600   5.717  14.883  12.678  0.1316 -0.1144  0.0494
 3467W        W19601   1.862   3.876   0.304 -0.0604  0.0415  0.3364
 3468W        W19602  15.028   4.040   1.323  0.0149 -0.1627 -0.2339
 3469W        W19603   0.303  10.461  10.682  0.1163  0.3755  0.0406
 3470W        W19604  11.397  14.934  12.848 -0.1485 -0.2767 -0.1994
 3471W        W19605  16.646   5.925   1.911  0.2697 -0.0760  0.1132
 3472W        W19606  17.337   3.946   0.241 -0.3038 -0.0373  0.0635
 3473W        W19607   2.589   4.231  15.360  0.0208 -0.1352  0.2276
 3474W        W19608   0.317   3.489  14.287  0.1869 -0.0351 -0.2552
 3475W        W19609  13.220  15.540  14.957  0.0569 -0.0068 -0.1472
 3476W        W19610   1.178   8.751  13.177 -0.1837 -0.1188  0.0287
 3477W        W19611  11.284   2.636  16.035 -0.0046 -0.1110  0.0662
 3478W        W19612   9.232   3.531   4.325  0.1367  0.0059 -0.0135
 3479W        W19613   6.788  15.433   4.708  0.1574  0.2392  0.3170
 3480W        W19614   9.637  15.719   1.571 -0.0592 -0.4488  0.1318
 3481W        W19615   2.801  12.338  13.927 -0.2377  0.0075  0.0652
 3482W        W19616   2.319   3.868   5.164  0.2219 -0.1357  0.1375
 3483W        W19617   3.709  15.945  11.697  0.0160  0.1426 -0.1896
 3484W        W19618   4.959  11.093   4.365  0.1135 -0.0564  0.3753
 3485W        W19619  11.829   7.246  15.927 -0.0501 -0.1159 -0.1429
 3486W        W19620   4.719   6.381   3.200 -0.0788  0.3826  0.2654
 3487W        W19621  10.733  15.822   1.488 -0.2791 -0.2105 -0.1271
 3488W        W19622   8.759   0.034  16.384  0.4451 -0.0935  0.1982
 3489W        W19623  14.079  16.070  15.922  0.0235  0.0637  0.1139
 3490W        W19624   9.378  13.901   3.693 -0.1306 -0.1888  0.0026
 3491W        W19625  11.898   8.074  13.660  0.0174 -0.1321 -0.2952
 3492W        W19626   9.084   2.265  12.432  0.1906 -0.0866 -0.1718
 3493W        W19627   3.903   2.833  11.541  0.1535  0.0063 -0.0165
 3494W        W19628   0.489  15.636  13.506  0.1963  0.2505  0.0374
 3495W        W19629   0.443   2.902   3.462 -0.0693  0.0109  0.0425
 3496W        W19630   9.509   9.518   0.139  0.0181 -0.2042  0.0780
 3497W        W19631  12.703  13.305   1.896 -0.2537  0.0182  0.2746
 3498W        W19632  12.170  12.164   1.775  0.2385  0.0971  0.4759
 3499W        W19633  10.627   0.566  12.497 -0.0320  0.1795 -0.0612
 3500W        W19634   5.133   1.994  14.616 -0.0810 -0.0168 -0.2538
 3501W        W19635  16.372  10.320   3.241  0.3148  0.0302  0.2987
 3502W        W19636  14.259  12.977  12.242  0.0673  0.0886 -0.2490
 3503W        W19637   4.025   4.394  14.032  0.1346  0.1388 -0.1142
 3504W        W19638   9.947   2.683   0.075 -0.0474 -0.0714 -0.1694
 3505W        W19639   9.144  11.833  11.627  0.0571  0.1856 -0.0439
 3506W        W19640  13.024   6.558   1.501 -0.1627 -0.0769  0.3097
 3507W        W19641   1.707  11.071   1.681  0.1972  0.2825 -0.3940
 3508W        W19642   3.213  17.670  12.481  0.4572  0.1632  0.1719
 3509W        W19643   9.505  16.852  12.788  0.2102 -0.0771 -0.2192
 3510W        W19644  10.270   2.434   3.044  0.0700 -0.0754  0.1376
 3511W        W19645  12.510   1.191  15.838 -0.0940 -0.0062 -0.3014
 3512W        W19646  11.026   4.704   0.058  0.2355  0.1732 -0.0657
 3513W        W19647  15.178  10.137  13.736  0.1652  0.0384 -0.1721
 3514W        W19648   1.166  16.730   0.464 -0.1660  0.0134 -0.0661
 3515W        W19649   4.152  12.783   6.225 -0.1756 -0.0273 -0.1401
 3516W        W19650  16.922  15.440   1.122  0.3170  0.1807 -0.1445
 3517W        W19651   4.240  10.423  13.189 -0.3359  0.1659 -0.0087
 3518W        W19652   7.914  13.279   4.027  0.1682  0.2026  0.2000
 3519W        W19653   8.740  10.206   2.266  0.2189  0.0007 -0.0067
 3520W        W19654   5.562  15.621   4.297 -0.0697 -0.0997 -0.0291
 3521W        W19655   5.349  11.789  12.782  0.0157  0.2046 -0.0599
 3522W        W19656   0.815  16.725  15.630  0.0042  0.0094 -0.2254
 3523W        W19657   4.834   1.152   4.724 -0.0813  0.3543 -0.0043
 3524W        W19658   0.204   5.293   3.879 -0.0721 -0.1134 -0.0963
 3525W        W19659  11.395   1.155  15.690  0.0085 -0.0521 -0.2419
 3526W        W19660  14.295   6.213  14.996 -0.0058 -0.0028  0.1451
 3527W        W19661  13.360   7.189  12.553 -0.0416 -0.2433  0.1453
 3528W        W19662  11.924  10.469  12.489  0.0357  0.0833  0.0540
 3529W        W19663  17.841  12.161  10.701 -0.0488 -0.0580 -0.0710
 3530W        W19664   7.553   1.432  10.484 -0.1055 -0.0198  0.1725
 3531W        W19665  16.864  10.024   0.999  0.3319 -0.3689 -0.0102
 3532W        W19666   7.977   1.896   3.246  0.2446 -0.0567 -0.1243
 3533W        W19667   9.500  15.437   5.157  0.0470 -0.3463  0.0621
 3534W        W19668  13.870   0.118  13.396  0.2138 -0.0389  0.2833
 3535W        W19669   6.386   8.945   0.271  0.1450  0.0312 -0.0202
 3536W        W19670   9.280   4.071   1.150  0.0336 -0.0142  0.0589
 3537W        W19671   2.977  17.330  12.106  0.1843  0.0338 -0.1812
 3538W        W19672  10.142  12.930   5.088 -0.0924  0.1080  0.0360
 3539W        W19673   3.508   4.433  13.817 -0.2354  0.0741 -0.0414
 3540W        W19674  13.712  12.902   5.565  0.3242  0.0820 -0.1569
 3541W        W19675   8.081   6.450   2.007 -0.0608 -0.2106  0.3596
 3542W        W19676  14.308   0.041   4.187  0.2553  0.1120 -0.2231
 3543W        W19677   6.886   9.590  12.834 -0.0915 -0.1467  0.2230
 3544W        W19678   6.750   2.362  11.369 -0.2529 -0.0573  0.0063
 3545W        W19679   4.943   0.008  14.983  0.2283 -0.1030  0.0319
 3546W        W19680  10.720   5.606   2.968 -0.1687  0.1197  0.3361
 3547W        W19681  15.957  10.308   5.086 -0.0203 -0.0395  0.2951
 3548W        W19682  12.811   1.785  15.135  0.0440 -0.1675  0.1123
 3549W        W19683   5.481   9.111  15.473 -0.1173 -0.4347  0.3111
 3550W        W19684  13.774  10.820  12.960 -0.0228 -0.1082  0.2878
 3551W        W19685   3.200  16.846  12.025 -0.0929 -0.1447 -0.1550
 3552W        W19686   3.532   2.638   5.493 -0.0986 -0.1761  0.1018
 3553W        W19687   0.573  10.424  11.754 -0.0076 -0.1022  0.2927
 3554W        W19688  14.909   1.722   5.747 -0.0853  0.1970 -0.2331
 3555W        W19689   2.947   4.103   2.626  0.1069 -0.3706 -0.0196
 3556W        W19690  15.672   9.373   3.976 -0.0223 -0.2279 -0.1429
 3557W        W19691   6.350   0.453  12.755 -0.0652 -0.1741  0.0234
 3558W        W19692  13.422  12.608   1.058 -0.0943 -0.2288 -0.2109
 3559W        W19693  16.264   7.538   2.991 -0.1654 -0.2777  0.2988
 3560W        W19694   1.720  11.728  13.838 -0.2235 -0.0823 -0.0810
 3561W        W19695   6.068   9.195   4.308 -0.1087  0.3327 -0.0899
 3562W        W19696  14.879  11.432   1.824  0.0418 -0.1783  0.1316
 3563W        W19697   8.291  10.840   4.119 -0.0272  0.3271  0.1861
 3564W        W19698  10.083   9.146  15.773  0.0558 -0.1903 -0.0192
 3565W        W19699  17.019  11.768  13.998 -0.2251 -0.0787  0.2990
 3566W        W19700  15.207  16.695  12.775  0.3009 -0.2654 -0.2123
 3567W        W19701   1.689  17.754   4.692 -0.2699  0.2265 -0.2178
 3568W        W19702   6.167  14.977   2.719  0.1173 -0.0811 -0.5239
 3569W        W19703   6.025  15.779   1.538 -0.0131  0.2280  0.0862
 3570W        W19704   4.651   1.975  11.408 -0.1316 -0.0473 -0.0029
 3571W        W19705   7.914   4.071   3.126  0.1583 -0.2536 -0.0604
 3572W        W19706   3.803   8.314  15.588 -0.0347 -0.0956  0.1843
 3573W        W19707   0.629  17.074   3.323  0.0027 -0.1246  0.0181
 3574W        W19708   2.418   8.762  10.343 -0.1352 -0.1885 -0.3781
 3575W        W19709  18.076  10.394   3.719  0.0073  0.4200 -0.2994
 3576W        W19710   0.467  10.848   0.779  0.0438  0.0288  0.0065
 3577W        W19711  10.509  12.948  14.389  0.0713  0.0263  0.0293
 3578W        W19712  12.529  16.090  11.784  0.1178 -0.2813 -0.0196
 3579W        W19713  10.978   3.205   5.028 -0.1311 -0.1293 -0.0904
 3580W        W19714  17.690   1.836  13.328 -0.0863  0.0915  0.3856
 3581W        W19715  12.208  10.878   2.809 -0.0885  0.1673 -0.2383
 3582W        W19716   5.884  11.041  14.872 -0.1062  0.0029  0.0554
 3583W        W19717  15.466  14.176  13.900  0.1206 -0.2679  0.0903
 3584W        W19718  10.093  16.353   2.199  0.1046  0.1682  0.0727
 3585W        W19719   3.961   9.987   2.940  0.0497  0.3755  0.1230
 3586W        W19720  12.297  17.630  15.157 -0.0821 -0.0033  0.1777
 3587W        W19721   6.260   9.009  13.900 -0.3538 -0.1778  0.1783
 3588W        W19722  11.747  14.251   3.907 -0.0080  0.0895 -0.0374
 3589W        W19723  11.394   4.232   4.364 -0.0849 -0.0557 -0.2790
 3590W        W19724   6.194  13.793   4.541  0.0009 -0.1500  0.0540
 3591W        W19725   6.695   4.052   2.054 -0.0825  0.1532 -0.0361
 3592W        W19726   3.930   4.831  15.862 -0.2074  0.3359  0.0026
 3593W        W19727  16.341  16.204  14.027 -0.2121  0.0321 -0.0233
 3594W        W19728  13.239   8.780  15.178 -0.0086 -0.1513  0.1747
 3595W        W19729   6.130   3.330   4.348 -0.2240 -0.1383  0.0773
 3596W        W19730   5.438   8.583   3.275  0.1226  0.0626 -0.1674
 3597W        W19731   8.715  13.076   5.136  0.0599 -0.1333 -0.0709
 3598W        W19732  10.533  16.920  11.857  0.0531  0.0699 -0.2141
 3599W        W19733  12.575   2.056   5.004  0.1497 -0.0659 -0.0891
 3600W        W19734  16.021   7.147  13.555  0.1170  0.0149 -0.0957
 3601W        W19735  15.709   8.928  13.534  0.0915  0.0256  0.0216
 3602W        W19736   4.006   9.157  12.973  0.0079 -0.5033 -0.0468
 3603W        W19737   7.322  10.083  14.446 -0.0493  0.0188  0.0554
 3604W        W19738  12.506  10.104   2.859 -0.1578 -0.1037 -0.1748
 3605W        W19739   8.012   6.173  10.434  0.0270  0.0358 -0.0954
 3606W        W19740   1.575   5.287   1.512 -0.2703 -0.1636 -0.2502
 3607W        W19741  18.019   3.930  15.469  0.1856 -0.2560 -0.1995
 3608W        W19742  17.347  15.720  11.948 -0.0226  0.1031  0.0880
 3609W        W19743  15.618   6.183   0.601  0.3091 -0.0558 -0.0647
 3610W        W19744  16.164   2.939   4.495 -0.0827 -0.3452 -0.0058
 3611W        W19745  16.951   2.628   4.968 -0.2668 -0.1003 -0.3317
 3612W        W19746  14.002  11.308   2.487  0.2445  0.3832 -0.2131
 3613W        W19747  17.916  11.791  13.530  0.2873  0.4596 -0.3118
 3614W        W19748   9.033  14.977  14.371 -0.1782  0.0063  0.1755
 3615W        W19749   8.324   2.790   2.006 -0.1760  0.1965  0.1188
 3616W        W19750   7.458  18.027   0.525  0.0741 -0.0006  0.2217
 3617W        W19751  12.931   1.535   0.256 -0.0014  0.1344  0.4410
 3618W        W19752  10.035   4.976   1.855  0.0031 -0.2093  0.1840
 3619W        W19753  14.352  14.008   4.745  0.2699  0.1882 -0.0674
 3620W        W19754  14.445  10.497   5.063 -0.0621  0.2718  0.1734
 3621W        W19755   8.386  12.526   2.581  0.3917  0.0553 -0.2177
 3622W        W19756   9.134   7.658  13.500 -0.0733  0.1240  0.1974
 3623W        W19757  10.275   8.818  14.975 -0.0786  0.0630 -0.2755
 3624W        W19758  17.942   8.637  11.900  0.2449 -0.0090  0.1080
 3625W        W19759  15.675   0.587   5.242  0.3067  0.0401  0.1857
 3626W        W19760   8.652  10.945  11.383  0.1433 -0.0812  0.2512
 3627W        W19761  16.013   2.618  16.008  0.1626 -0.0011  0.0657
 3628W        W19762   5.183  10.449   3.798 -0.0999 -0.0993 -0.0211
 3629W        W19763   1.225   5.705   1.651 -0.0527  0.2509  0.2197
 3630W        W19764   7.307   5.539   2.878  0.2614  0.0562  0.0475
 3631W        W19765   4.240   1.290   4.005 -0.0195 -0.1371 -0.0623
 3632W        W19766  16.073   1.620   3.368 -0.0695  0.1874 -0.0322
 3633W        W19767   5.350  12.622  13.383 -0.3359 -0.0221 -0.0758
 3634W        W19768  13.119   5.453   4.121  0.0221 -0.0722 -0.1168
 3635W        W19769   7.251  16.906  16.342  0.4223 -0.0405  0.0600
 3636W        W19770   1.098   2.692  14.784  0.0171 -0.3015 -0.1060
 3637W        W19771   0.840   1.340  13.774  0.0197 -0.0337 -0.2260
 3638W        W19772  17.677   7.911   0.199 -0.1539 -0.0081  0.0648
 3639W        W19773  12.221   8.026   4.327 -0.0280 -0.0430 -0.2523
 3640W        W19774   5.669  12.500  15.696 -0.0844  0.0596  0.0499
 3641W        W19775   5.739   0.164  14.187  0.2524 -0.0306  0.1319
 3642W        W19776  17.882  16.072   3.846  0.0927  0.1484  0.2119
 3643W        W19777   1.911   8.979   2.577  0.1967  0.1968 -0.2772
 3644W        W19778   5.964  16.387  13.990  0.1260 -0.4304 -0.0847
 3645W        W19779   2.825   0.330   1.144  0.1281  0.0078 -0.1375
 3646W        W19780   5.592   3.365  15.630  0.1250  0.0462 -0.0440
 3647W        W19781   0.432  10.812   3.915  0.1856  0.0627  0.0946
 3648W        W19782  15.709   8.153  15.562  0.0129 -0.2614 -0.2494
 3649W        W19783   8.219  13.484  12.755  0.0535 -0.1561 -0.1128
 3650W        W19784   3.339   7.602   5.056 -0.0392 -0.0595 -0.1721
 3651W        W19785   6.569  13.741   2.138  0.0408 -0.0695  0.1892
 3652W        W19786  14.852   7.355  15.348 -0.2700  0.0246 -0.1420
 3653W        W19787  13.218   3.983  10.356 -0.1388  0.1349  0.1454
 3654W        W19788  17.773   2.768  12.119  0.2694 -0.1261 -0.3284
 3655W        W19789  13.052   5.836   5.008 -0.1482 -0.1718 -0.1368
 3656W        W19790  10.428  11.793  12.150 -0.0067  0.0938  0.1112
 3657W        W19791   4.158   0.131  12.634  0.1509 -0.0338 -0.0461
 3658W        W19792  13.000  16.957   5.742  0.0759 -0.0660  0.1644
 3659W        W19793   4.863   9.188  11.607 -0.0607  0.0615 -0.0013
 3660W        W19794   8.643   9.207   3.641 -0.2210  0.0975 -0.0550
 3661W        W19795  12.734   1.351   2.536  0.0340 -0.0137  0.0602
 3662W        W19796  10.140   4.053   1.499  0.2429  0.0473 -0.0511
 3663W        W19797  17.438  18.012   2.874  0.0554  0.1785 -0.2084
 3664W        W19798  15.641   8.977  14.497 -0.0838 -0.0072  0.1253
 3665W        W19799  12.356   5.155  15.638 -0.0373  0.0088  0.1366
 3666W        W19800   9.677   8.852   5.517  0.2786  0.1211 -0.0446
 3667W        W19801   2.763   5.933  13.615 -0.0191  0.2322 -0.2258
 3668W        W19802   5.172  12.354  11.520  0.0702 -0.1224  0.1604
 3669W        W19803   8.867  13.778   4.376 -0.0813 -0.2971  0.0267
 3670W        W19804   0.062   4.260  11.717 -0.2219 -0.0744 -0.0523
 3671W        W19805   2.779   3.614   2.871  0.1101 -0.0880  0.0686
 3672W        W19806   7.556   4.827  14.599  0.0436  0.1277 -0.2292
 3673W        W19807   8.664  14.472   0.433 -0.1683 -0.0807  0.0682
 3674W        W19808   7.188   6.312   0.829 -0.0696  0.0349 -0.0720
 3675W        W19809  13.374  11.637  12.024  0.0391 -0.1824 -0.1147
 3676W        W19810   1.437   6.112   1.490  0.2490  0.2783  0.0436
 3677W        W19811  12.363  12.921  14.234  0.0340 -0.0874  0.4452
 3678W        W19812  12.770   5.060   2.622 -0.1390 -0.1505  0.1309
 3679W        W19813  10.306   4.263   4.178 -0.0672  0.4270  0.0436
 3680W        W19814   6.580  10.551   6.131  0.1545 -0.0982  0.0554
 3681W        W19815  10.485  10.914  13.291  0.3842 -0.0399  0.0591
 3682W        W19816  14.302  16.220   2.988  0.0685  0.5379  0.2474
 3683W        W19817  16.577  14.613  16.268 -0.1529 -0.0225  0.0074
 3684W        W19818   2.418  16.899   0.607 -0.1684 -0.0448  0.1708
 3685W        W19819   6.577   3.967   4.919 -0.2692 -0.1703 -0.2488
 3686W        W19820   7.830  16.275  15.613  0.2625 -0.1069  0.0865
 3687W        W19821   7.709   5.752   5.387  0.0877 -0.3086  0.1556
 3688W        W19822  13.434   6.137  16.375 -0.1008 -0.0040 -0.2539
 3689W        W19823  16.955  14.710   0.688  0.0972 -0.1547 -0.1009
 3690W        W19824   4.889   9.323   1.603  0.1787  0.0023  0.1508
 3691W        W19825  12.704   5.171   3.939 -0.2095  0.2530  0.1222
 3692W        W19826  10.001  17.714  11.350 -0.1654 -0.1477 -0.2029
 3693W        W19827   3.707  17.055   2.718  0.2385 -0.0729  0.0317
 3694W        W19828  16.385   8.917   2.911 -0.2738  0.0379 -0.2218
 3695W        W19829  11.053  18.069  14.428  0.3163  0.0209  0.3311
 3696W        W19830  17.163   1.709   0.614 -0.2437 -0.0219 -0.2296
 3697W        W19831  14.332  16.509   2.029  0.1194  0.1483  0.4611
 3698W        W19832  11.995  17.332   2.065 -0.0902 -0.2230 -0.0359
 3699W        W19833  10.031   3.286   0.742  0.0485 -0.2260 -0.0100
 3700W        W19834   1.957  10.386   0.486 -0.0812  0.0364  0.1953
 3701W        W19835   3.686   3.204   1.261 -0.1264 -0.1240  0.1319
 3702W        W19836   0.838   0.360   2.152  0.1014 -0.2221 -0.0218
 3703W        W19837   0.570  10.379  12.806 -0.2110 -0.0624  0.0893
 3704W        W19838   1.120  11.131  16.123  0.1405 -0.1053 -0.1009
 3705W        W19839   5.370  11.296  15.693  0.1294 -0.1375 -0.1714
 3706W        W19840   5.296  11.779   4.923 -0.0308 -0.1371  0.1356
 3707W        W19841  11.431   0.539   3.737 -0.1753  0.0882 -0.0930
 3708W        W19842  13.717   5.052  13.974  0.2646 -0.3895 -0.2256
 3709W        W19843  11.781  12.325  11.734 -0.0075 -0.2226  0.1034
 3710W        W19844  14.694   4.211  12.067  0.1673 -0.1499 -0.0411
 3711W        W19845   5.438  16.812  13.854 -0.1721 -0.2158  0.1437
 3712W        W19846   8.194  14.650   3.660 -0.0555 -0.0821  0.3381
 3713W        W19847   2.769   3.953   4.733  0.1638  0.0122 -0.0018
 3714W        W19848  14.404  13.932  16.198 -0.2004 -0.1603  0.0028
 3715W        W19849  17.402  17.954  11.360  0.1169  0.0485  0.0624
 3716W        W19850  13.023  17.563   0.507  0.0863  0.0901  0.0237
 3717W        W19851   8.526   7.324   4.456 -0.0297  0.2291  0.1673
 3718W        W19852   2.802  12.610  15.048  0.2042  0.1531 -0.0539
 3719W        W19853   0.979   9.033  12.647 -0.0498  0.3005 -0.2166
 3720W        W19854   6.124   6.477  11.922 -0.0311 -0.1841  0.1124
 3721W        W19855   9.368   7.090   2.220 -0.2184 -0.1227  0.1404
 3722W        W19856  11.694  10.719  12.814 -0.0571  0.1498  0.2019
 3723W        W19857   8.676   8.146   3.953  0.1171 -0.4577  0.2556
 3724W        W19858  10.128  16.342  13.053  0.2803 -0.0309 -0.1593
 3725W        W19859  12.658  14.864   5.802  0.1044  0.0774 -0.2537
 3726W        W19860   0.730  15.296   0.735  0.3344 -0.0924  0.3045
 3727W        W19861  13.612   8.704  16.065  0.3001 -0.0107  0.5196
 3728W        W19862  13.418  16.003  14.909 -0.2403  0.1715  0.0656
 3729W        W19863   9.240  17.165  11.183  0.2613  0.2162 -0.2360
 3730W        W19864  12.723   1.597   3.030  0.0746  0.2959 -0.0100
 3731W        W19865   0.418  15.472   4.348 -0.2505  0.0623 -0.1187
 3732W        W19866  10.818  16.196   4.396  0.3277  0.0909  0.2717
 3733W        W19867   2.082  16.165  15.750 -0.0783  0.0829 -0.0919
 3734W        W19868  15.349  15.051   4.326 -0.1347  0.3328  0.2288
 3735W        W19869  14.877  16.455  11.713  0.0231  0.0698  0.2957
 3736W        W19870   3.491   5.687  11.631  0.0332  0.0895  0.1681
 3737W        W19871   9.750   5.388  11.568  0.2720  0.0921 -0.2201
 3738W        W19872   5.280  14.683  12.798  0.2202 -0.0162 -0.1589
 3739W        W19873  14.926  15.754  14.256 -0.1402  0.0056 -0.1368
 3740W        W19874   2.299   4.094  12.390  0.3485  0.0837  0.1665
 3741W        W19875   9.053   4.591   1.044  0.1630  0.1697  0.0864
 3742W        W19876  12.915  11.327   4.922 -0.1292 -0.2550 -0.0467
 3743W        W19877   8.760  14.650   3.459 -0.0679  0.2068  0.2453
 3744W        W19878  14.106  16.818   5.087  0.2217  0.2389 -0.0688
 3745W        W19879   5.868   4.149   0.816 -0.0216 -0.1687 -0.1684
 3746W        W19880  10.027  18.067  14.493  0.0351  0.0293  0.3529
 3747W        W19881   2.591   9.829   4.960  0.0210 -0.0432  0.3166
 3748W        W19882  16.250   2.881   2.642  0.0948  0.1469 -0.2800
 3749W        W19883   0.887  17.685   0.556  0.1733  0.0788 -0.0982
 3750W        W19884  12.422  14.294  15.718  0.0758 -0.2554  0.0280
 3751W        W19885  16.012   6.759   5.064  0.0679 -0.0113 -0.2149
 3752W        W19886  14.974  13.206  16.060 -0.0755  0.0848 -0.1051
 3753W        W19887   2.719   9.022   1.310  0.0487 -0.0430  0.1717
 3754W        W19888   0.927   3.900   1.695  0.0803  0.1028  0.1785
 3755W        W19889  15.304   1.978   1.012 -0.3040 -0.0364  0.0562
 3756W        W19890   8.315  12.129  12.112  0.3702  0.0043 -0.1107
 3757W        W19891   0.183   3.663  12.203 -0.2910 -0.1735 -0.1760
 3758W        W19892  16.687  16.991  13.750 -0.2052 -0.1950  0.0364
 3759W        W19893   8.298   0.843  12.575  0.0490  0.1020  0.0165
 3760W        W19894   7.881  12.230   5.302  0.3876 -0.2024  0.0608
 3761W        W19895  11.937   7.147  11.639 -0.0082  0.0032 -0.0432
 3762W        W19896  14.966   9.237  11.442  0.0173 -0.1077 -0.0607
 3763W        W19897   3.871   7.739  14.328 -0.0757 -0.0945 -0.0665
 3764W        W19898  10.072   3.995   4.659 -0.0248 -0.1358 -0.0068
 3765W        W19899   5.929  11.230  15.725 -0.0482  0.2433  0.2814
 3766W        W19900   4.134   4.198   2.794  0.2471  0.0301  0.2098
 3767W        W19901   7.206   9.154   4.009  0.2268  0.1856  0.1088
 3768W        W19902   6.314   1.516  15.867 -0.2575  0.2579  0.0610
 3769W        W19903  11.037  17.313   4.615 -0.0498  0.1731  0.0511
 3770W        W19904  16.381   1.715  16.166 -0.1292 -0.2288 -0.2474
 3771W        W19905   2.689  14.052  11.511 -0.0556 -0.3321 -0.0258
 3772W        W19906   1.184   7.294  12.267  0.1496 -0.1287 -0.0316
 3773W        W19907  11.662  13.238  16.159 -0.1045  0.1244  0.0977
 3774W        W19908  15.970   3.695   3.426 -0.2420  0.0408 -0.0445
 3775W        W19909  10.487   1.334  11.614  0.0176  0.0934 -0.0261
 3776W        W19910   2.062   8.055   3.786  0.3678 -0.0279  0.1184
 3777W        W19911  15.829  17.325   1.342 -0.2504 -0.1848  0.0540
 3778W        W19912  17.589   3.166  13.066 -0.0692  0.2217  0.2027
 3779W        W19913   1.023  11.321   0.862  0.2390  0.0543  0.2435
 3780W        W19914  16.227   8.063  13.624  0.0273  0.2817  0.0229
 3781W        W19915  17.258   1.881   1.491  0.2038 -0.0441  0.1037
 3782W        W19916   6.162   8.157  13.642 -0.1153 -0.2121 -0.0055
 3783W        W19917   9.768  15.536  16.151 -0.0533 -0.1122 -0.0044
 3784W        W19918  11.052   2.161  16.240  0.0476 -0.0922 -0.1922
 3785W        W19919   9.278   3.768  13.067 -0.0744 -0.2720 -0.1644
 3786W        W19920   0.134   2.925   4.574 -0.2549 -0.0240 -0.1951
 3787W        W19921   1.245  13.282  13.877  0.0820  0.1485  0.0496
 3788W        W19922  17.683  13.617  13.258 -0.1167 -0.1020  0.0589
 3789W        W19923   5.996   4.596   3.143  0.1953  0.1279  0.0304
 3790W        W19924   3.170  15.816  13.307  0.4430  0.1367 -0.0115
 3791W        W19925  13.629   0.576  14.114 -0.2850 -0.0934 -0.0744
 3792W        W19926   9.662   2.948  12.871  0.2876  0.2572 -0.3416
 3793W        W19927  10.590   7.610  16.283  0.1423 -0.1796 -0.2666
 3794W        W19928   6.824   5.648   5.504 -0.0068 -0.1011 -0.2409
 3795W        W19929   3.169   3.754   4.089  0.0158 -0.1199 -0.0713
 3796W        W19930  11.557  14.198  14.280  0.0569 -0.0462  0.0114
 3797W        W19931   9.869   6.315  14.861 -0.0211 -0.2493 -0.0430
 3798W        W19932   1.861   5.228  12.618 -0.0911  0.1964  0.1483
 3799W        W19933   4.692   3.148   2.205 -0.2935  0.0384  0.2668
 3800W        W19934   2.370  11.412   1.493 -0.1922  0.1502  0.0168
 3801W        W19935  11.982   6.158  16.236  0.0030  0.2788 -0.3020
 3802W        W19936  15.685   2.004   5.207  0.0351  0.3345 -0.0727
 3803W        W19937   2.957  11.343  14.927  0.1413  0.1268  0.0700
 3804W        W19938   4.940   0.543   0.960 -0.2618 -0.0044  0.2488
 3805W        W19939  17.505   6.651  16.290 -0.0227  0.3056 -0.0467
 3806W        W19940   8.594   1.887   4.246 -0.2035 -0.0294  0.1806
 3807W        W19941  10.158  14.632   4.604  0.1816 -0.3014 -0.0785
 3808W        W19942  14.164   7.325   2.722  0.3318 -0.2488 -0.1714
 3809W        W19943   6.888   1.925  15.163  0.3718 -0.1379  0.0714
 3810W        W19944  15.358   1.833  11.280  0.1921 -0.0472  0.5649
 3811W        W19945   7.794  11.343  14.930  0.1282  0.1591  0.0508
 3812W        W19946  12.001  11.267  15.713  0.3169 -0.1829  0.0805
 3813W        W19947  10.334  17.331  10.248  0.2074  0.0270  0.1220
 3814W        W19948   5.082   7.766   3.218 -0.0245 -0.1271  0.2910
 3815W        W19949  12.954   3.045   4.083 -0.2331  0.1621  0.2660
 3816W        W19950   3.802  17.487   6.554 -0.0462 -0.2584  0.0638
 3817W        W19951   2.807  16.792  14.776 -0.0570  0.1790 -0.0123
 3818W        W19952  11.799   9.498   2.794  0.0562 -0.0362 -0.0297
 3819W        W19953   7.844   1.629  11.146 -0.3359  0.0531 -0.0968
 3820W        W19954   6.537   8.507   4.734 -0.0874 -0.2150 -0.2635
 3821W        W19955  10.124   3.665   4.120  0.0021  0.2068  0.2686
 3822W        W19956   8.843   6.590  15.330  0.0051 -0.0267  0.1731
 3823W        W19957   4.976   6.793   3.171 -0.0098  0.4928  0.2480
 3824W        W19958   2.405  10.338  15.804  0.1100 -0.0207  0.3123
 3825W        W19959  10.027   0.881   4.658  0.0648 -0.1101  0.1816
 3826W        W19960   9.976   9.819   0.486  0.0057 -0.2639  0.2327
 3827W        W19961  13.122   4.789  16.296  0.0544  0.3176  0.0224
 3828W        W19962   3.092   6.768  15.828 -0.0879 -0.2682 -0.3488
 3829W        W19963  15.033   9.412   2.711  0.0893 -0.2576  0.2303
 3830W        W19964   7.515   2.897   0.376  0.2745 -0.1115  0.0888
 3831W        W19965   7.433  16.457   0.077 -0.1337 -0.1603 -0.1154
 3832W        W19966  14.663  12.310  13.880 -0.2403  0.0126 -0.3252
 3833W        W19967   8.852   0.417   2.456 -0.1078  0.0856 -0.0493
 3834W        W19968  15.014  14.828   4.874 -0.1023  0.1546 -0.0824
 3835W        W19969   8.082   8.818  12.300 -0.2563 -0.1137 -0.0413
 3836W        W19970   7.330   2.530   0.074  0.0877  0.0640 -0.0941
 3837W        W19971   0.681  13.780  11.626  0.1118  0.0672 -0.0683
 3838W        W19972   3.965  11.076  14.460 -0.0478  0.3741 -0.1223
 3839W        W19973   1.336   0.924   3.198 -0.2001 -0.3596  0.1300
 3840W        W19974  10.677   1.598  14.448  0.1190  0.3091  0.0543
 3841W        W19975  13.950  10.758   2.688 -0.2882  0.0253 -0.0116
 3842W        W19976  13.702   6.036  14.301 -0.0201  0.1362  0.3009
 3843W        W19977   4.735   4.988  10.184 -0.2374  0.0396 -0.0458
 3844W        W19978  11.788  10.645   5.751  0.0691 -0.0760  0.2028
 3845W        W19979   2.551  14.602  14.516  0.0605 -0.0548 -0.0906
 3846W        W19980   7.022   3.706  15.117 -0.2642 -0.1438 -0.1059
 3847W        W19981   5.736   0.288   4.898  0.3724 -0.0306 -0.4485
 3848W        W19982   5.342  10.142  12.462  0.0316 -0.3250  0.3124
 3849W        W19983  12.196   4.651  12.169 -0.0494  0.1726  0.2265
 3850W        W19984  10.303   3.669   2.316  0.2124  0.2575 -0.0453
 3851W        W19985   1.310   2.551  14.369  0.0341  0.0160  0.3830
 3852W        W19986   7.184   3.924   2.075  0.2394  0.3015 -0.0797
 3853W        W19987   2.167  12.414  14.480 -0.0103  0.0840 -0.1254
 3854W        W19988   5.359   3.387  11.612  0.4289  0.0198 -0.1490
 3855W        W19989   9.192   7.116   3.025 -0.0674 -0.3281  0.0456
 3856W        W19990   5.836   0.001   1.845  0.0257  0.0355  0.1779
 3857W        W19991  10.064   7.916  16.084  0.1660 -0.2015  0.2698
 3858W        W19992  10.717   0.903  12.053  0.3860  0.1330 -0.0502
 3859W        W19993  15.495  17.135  13.145 -0.2738 -0.2938 -0.3818
 3860W        W19994   0.371   7.162   4.203  0.0414 -0.0636 -0.0199
 3861W        W19995   2.524  17.494   4.960  0.1010 -0.0816 -0.1245
 3862W        W19996  14.828  14.967  11.769  0.1170  0.3797  0.0559
 3863W        W19997   7.314  13.473  15.452  0.1201  0.1888  0.1093
 3864W        W19998   8.324  12.017   3.015  0.1191 -0.2110  0.2359
 3865W        W19999  14.674  10.500   1.375 -0.0013 -0.2153  0.0444
 3866W        W20000   0.726   6.461   5.048  0.1058 -0.1376 -0.0391
 3867W        W20001  11.380  10.882   3.821 -0.3024 -0.0572  0.2003
 3868W        W20002   0.963  16.419   1.375 -0.0605 -0.0280 -0.0441
 3869W        W20003  11.319   1.073   2.204  0.1029  0.1124 -0.1684
 3870W        W20004  11.825   7.766  12.309  0.1829 -0.3360  0.2325
 3871W        W20005  17.797  17.020   0.919  0.2063  0.1173 -0.0911
 3872W        W20006  12.416  12.732   2.834 -0.0932  0.0561  0.0655
 3873W        W20007   6.250   6.620   1.290 -0.0378  0.1993  0.1894
 3874W        W20008  17.424   7.020   4.009 -0.0292 -0.0034  0.0172
 3875W        W20009   4.242   3.861  14.404  0.0680 -0.0201 -0.1902
 3876W        W20010  16.377   4.582  14.480  0.0881  0.1191 -0.2133
 3877W        W20011  13.371   2.017   2.002 -0.0263 -0.1227 -0.0749
 3878W        W20012  16.556   5.489  14.013  0.1920 -0.0388 -0.2824
 3879W        W20013  16.169  14.870   1.089 -0.2157  0.2238 -0.2310
 3880W        W20014   8.103  14.650   1.102  0.3219 -0.3537 -0.2599
 3881W        W20015  10.031  10.493  16.265  0.1608 -0.0988 -0.3312
 3882W        W20016   9.895   9.932   0.986 -0.0048 -0.1701 -0.0125
 3883W        W20017   2.693  12.917  14.615  0.1837  0.0659 -0.1555
 3884W        W20018   9.434  17.138  14.839  0.0300  0.0213 -0.0594
 3885W        W20019  16.839   4.557  14.808 -0.0366 -0.1048 -0.2066
 3886W        W20020  16.708   2.931  12.373 -0.2343  0.0768 -0.0997
 3887W        W20021  11.167   1.682  15.004 -0.1978 -0.0077 -0.1286
 3888W        W20022  15.504   6.588   4.925 -0.2974 -0.0447 -0.1562
 3889W        W20023  10.271   4.613  11.536 -0.1194 -0.1117 -0.1274
 3890W        W20024   7.743   6.450  11.477 -0.2352  0.0103  0.2397
 3891W        W20025  10.421  12.297   4.545 -0.0673 -0.1153 -0.1309
 3892W        W20026  14.208  17.831  13.288  0.1279  0.4162  0.0973
 3893W        W20027  13.154  14.467   4.978  0.0660 -0.1179  0.0144
 3894W        W20028   8.628  10.663   4.547  0.2275  0.0951 -0.1800
 3895W        W20029   2.844   8.252   0.477 -0.0374 -0.0252 -0.0601
 3896W        W20030  11.683  15.170  15.062  0.3185  0.0768 -0.0116
 3897W        W20031   0.835   8.618   2.383 -0.0147  0.5527  0.0790
 3898W        W20032   0.059  11.081   4.219 -0.3347  0.1951 -0.0040
 3899W        W20033   9.680  12.019  14.110 -0.2874 -0.1449  0.0039
 3900W        W20034  12.363  11.615  15.590  0.1752 -0.0333 -0.2787
 3901W        W20035   0.454   2.154   4.191  0.2902 -0.1327 -0.2375
 3902W        W20036  15.587   7.716  13.045  0.2188  0.2189 -0.1025
 3903W        W20037  10.052  15.848   3.395  0.2593  0.1346 -0.1417
 3904W        W20038   4.834   6.536   1.011  0.2144  0.0339  0.3189
 3905W        W20039   7.198   0.876  12.428  0.0674  0.2016 -0.2004
 3906W        W20040   0.905   7.852  13.238 -0.1872  0.3487 -0.1871
 3907W        W20041   8.298   7.293  14.387 -0.2208  0.0023  0.1992
 3908W        W20042   7.282  11.316   4.411  0.2582 -0.3975  0.2683
 3909W        W20043   0.257  14.466  12.312  0.2257  0.1062  0.0132
 3910W        W20044   0.320  16.952  12.632  0.0515  0.2020  0.0243
 3911W        W20045   9.958  13.442   0.051 -0.1764 -0.2013 -0.0610
 3912W        W20046  12.246  14.301   2.690 -0.3841  0.0909  0.3901
 3913W        W20047  12.305  14.056   4.859  0.0105 -0.0488  0.2455
 3914W        W20048   0.884   2.040   6.064  0.0550  0.4589 -0.0330
 3915W        W20049  10.755  11.503  12.542  0.1884  0.2335  0.1302
 3916W        W20050  12.099   4.711  14.773  0.1275  0.0150 -0.2369
 3917W        W20051   7.309  14.332  12.830 -0.0293  0.1227 -0.2369
 3918W        W20052   2.286   4.420   4.996 -0.0679  0.2687 -0.0678
 3919W        W20053   7.162  16.324   3.643 -0.0479 -0.1038 -0.0085
 3920W        W20054  16.686   3.355  13.548 -0.0018 -0.2593 -0.1609
 3921W        W20055   6.227  11.405   1.443 -0.2203  0.0183  0.3030
 3922W        W20056   1.293   8.491   2.929 -0.0468 -0.0447  0.1162
 3923W        W20057   5.849   1.306   0.664  0.2907  0.0658 -0.2599
 3924W        W20058   3.617   0.430  10.971  0.0327  0.3912 -0.0102
 3925W        W20059  15.964  10.708   1.552  0.0694 -0.0193  0.2092
 3926W        W20060  13.908  15.000  10.461 -0.1703  0.1719 -0.0665
 3927W        W20061   2.278  11.128  12.889 -0.0561 -0.0155 -0.0368
 3928W        W20062   7.291   8.193  11.593  0.1487  0.1289 -0.3449
 3929W        W20063   8.655   1.177  12.674 -0.0344 -0.3303 -0.0653
 3930W        W20064   9.291   5.032   1.165  0.5891  0.1676  0.1362
 3931W        W20065  11.480   2.995  12.179 -0.0830 -0.0371 -0.0756
 3932W        W20066  14.066   3.522  13.935  0.1075  0.0189 -0.1997
 3933W        W20067   6.656  14.230   2.225  0.0863  0.2637  0.0748
 3934W        W20068   4.144  11.743  13.640  0.0470  0.1885  0.0125
 3935W        W20069  12.066  14.280  13.702  0.1128 -0.3224  0.0222
 3936W        W20070  18.051  17.241  14.317 -0.0778  0.2299  0.2178
 3937W        W20071  10.715  11.006  15.216 -0.4279 -0.1695  0.4479
 3938W        W20072   9.728  15.732   4.768 -0.2016  0.1832  0.0483
 3939W        W20073   9.734   2.103  10.687  0.0954 -0.0902  0.0277
 3940W        W20074  11.510   4.690  12.950  0.2773 -0.2865 -0.0370
 3941W        W20075   5.456   3.512  13.907  0.0916  0.2639 -0.0467
 3942W        W20076   7.208   9.607  11.925  0.1082  0.0542 -0.2396
 3943W        W20077   7.635   1.734  15.489  0.1122  0.0077 -0.1658
 3944W        W20078   0.414   6.428   4.113 -0.3284 -0.0410 -0.0757
 3945W        W20079  11.845  15.083   0.099  0.3017 -0.0031  0.0076
 3946W        W20080   6.430  12.307  12.355 -0.2361 -0.1034 -0.0644
 3947W        W20081  16.055   0.658  14.537 -0.1060 -0.0398  0.1357
 3948W        W20082   8.522   9.909   0.527  0.2438  0.0107  0.0036
 3949W        W20083   0.031   8.639   3.494  0.0802 -0.1573 -0.0885
 3950W        W20084  17.198   7.705  14.969 -0.0442  0.0170 -0.1220
 3951W        W20085  17.410   7.761   3.723  0.0156 -0.1972 -0.2900
 3952W        W20086   3.840  13.253   1.045 -0.2828  0.0618 -0.0598
 3953W        W20087   8.945  13.659   2.251 -0.0870  0.1173  0.0560
 3954W        W20088  13.359   3.562  15.277 -0.0062 -0.1385  0.1618
 3955W        W20089  11.684   4.628  13.515 -0.0691 -0.1559  0.1564
 3956W        W20090  15.510   5.749  14.219 -0.3022 -0.0847  0.0690
 3957W        W20091   8.398  16.309   4.955 -0.1223  0.1438 -0.0831
 3958W        W20092   2.148   1.957   2.474 -0.3778  0.0013  0.0579
 3959W        W20093  16.366   9.707  13.791  0.0475 -0.0717 -0.0680
 3960W        W20094   0.160   7.952  11.297  0.2047 -0.1361 -0.2617
 3961W        W20095   6.764  16.733   4.230 -0.2737  0.2195  0.2185
 3962W        W20096  17.196   6.398   1.130  0.0937  0.2127  0.0125
 3963W        W20097   4.035  13.423  13.106  0.3451  0.0226  0.1154
 3964W        W20098  14.066  17.334   0.620  0.1140  0.0796 -0.0267
 3965W        W20099   1.391   8.623  11.742 -0.0540  0.0765 -0.2372
 3966W        W20100   6.100   0.054   0.531  0.2453  0.2049 -0.2417
 3967W        W20101   9.872   5.706  11.056  0.2068 -0.3467  0.0193
 3968W        W20102   8.350   4.026  11.683  0.3061 -0.0679  0.0589
 3969W        W20103   7.838   2.660  16.395  0.0372 -0.3566  0.0470
 3970W        W20104   0.328   4.132   0.400 -0.0939 -0.2270 -0.1849
 3971W        W20105  13.916   8.254   4.940 -0.3014 -0.2003  0.3123
 3972W        W20106  16.691   4.080  15.923 -0.2218 -0.0579  0.0854
 3973W        W20107   0.967  11.819  12.893  0.0902  0.0373  0.0325
 3974W        W20108  15.731   7.755   1.723 -0.1873 -0.0943 -0.4748
 3975W        W20109   9.464  11.533  15.208  0.1746  0.0560  0.2183
 3976W        W20110   6.583  17.494  11.380 -0.3846  0.1259 -0.0435
 3977W        W20111   6.563   7.338   2.968 -0.0043 -0.0348 -0.3427
 3978W        W20112   1.002  15.648  16.409 -0.0857 -0.3863  0.1617
 3979W        W20113   2.974   1.288  11.797  0.0452  0.1846 -0.1163
 3980W        W20114  16.637   8.713   2.053  0.0591 -0.0119 -0.0052
 3981W        W20115   0.553   2.091  15.591 -0.0910  0.0002 -0.2381
 3982W        W20116  17.269  14.474  14.261  0.3114 -0.0673 -0.0169
 3983W        W20117  14.348  17.100  14.881 -0.0175  0.0246 -0.0176
 3984W        W20118   2.592  13.638  16.134 -0.0147  0.1880  0.1343
 3985W        W20119   8.677   1.753  14.650 -0.0374  0.0503 -0.0030
 3986W        W20120   4.703   8.428  13.286  0.0865 -0.0703 -0.1093
 3987W        W20121   1.085  13.978  12.647 -0.2189  0.0658  0.1563
 3988W        W20122   1.828   6.294  13.936  0.0431  0.0321 -0.3638
 3989W        W20123   5.675  12.452   2.429  0.0297  0.0895 -0.3248
 3990W        W20124  11.534   8.133   2.887 -0.0157  0.1116 -0.1582
 3991W        W20125  14.445  12.441   3.266 -0.0029  0.1085  0.0849
 3992W        W20126   5.640   3.981  13.992 -0.0152 -0.0339  0.0486
 3993W        W20127   2.542  13.796  12.860 -0.0412 -0.1040 -0.1125
 3994W        W20128   2.147   2.670  16.318  0.3387  0.0070  0.3255
 3995W        W20129  17.440  13.124  13.135 -0.1396  0.3254  0.0953
 3996W        W20130   8.633   6.778  13.845 -0.0566  0.1440 -0.1453
 3997W        W20131   6.506   6.774   1.809  0.0467 -0.3591  0.0001
 3998W        W20132  12.289   0.307   1.308  0.2272  0.2303  0.2222
 3999W        W20133  15.968   0.259   2.773 -0.0241  0.2229 -0.2239
 4000W        W20134  10.274  16.689  12.213 -0.2003  0.0021  0.0273
 4001W        W20135   6.581   0.604   0.704  0.0573  0.0855 -0.1714
 4002W        W20136  14.348  12.529   2.742 -0.3297  0.0068 -0.0009
 4003W        W20137   1.011   8.968  11.127  0.0752  0.2158  0.1112
 4004W        W20138   8.670   0.092  12.015 -0.0980  0.0143  0.0702
 4005W        W20139  12.775  14.832  16.206 -0.3092 -0.2676 -0.1875
 4006W        W20140  17.408   3.541  12.643  0.2858 -0.0022  0.0625
 4007W        W20141  13.013   3.372   2.030 -0.1031 -0.2182  0.0193
 4008W        W20142   6.449   8.741  13.091  0.2055 -0.0155  0.4086
 4009W        W20143  16.212  14.091   5.539 -0.0255  0.2015  0.1230
 4010W        W20144   3.506   7.511   5.581  0.0586 -0.0638 -0.1068
 4011W        W20145   7.149  10.551   5.080 -0.0084  0.0944 -0.0775
 4012W        W20146   4.577   9.559   6.237  0.4048 -0.1869 -0.0522
 4013W        W20147   1.186   8.032   2.858  0.0151  0.0937 -0.2671
 4014W        W20148   6.605  15.231   2.561  0.2004  0.0277 -0.2394
 4015W        W20149   2.045   1.887  14.582  0.2205  0.1662 -0.2236
 4016W        W20150  16.986  11.655  10.592  0.0441 -0.0648 -0.1096
 4017W        W20151   8.083  12.622  14.562  0.0249  0.0931 -0.4026
 4018W        W20152  17.584  13.960   5.784 -0.0802  0.0585  0.2533
 4019W        W20153   0.930   0.018  12.971 -0.1825  0.0804  0.1192
 4020W        W20154   8.058   4.718  14.689 -0.1755 -0.2252 -0.0019
 4021W        W20155  17.698   9.824   4.915 -0.1710  0.0855  0.1405
 4022W        W20156  13.229  12.262  12.963  0.0611  0.2654  0.0921
 4023W        W20157   0.675   0.290  11.517 -0.3243  0.1533  0.1616
 4024W        W20158   4.805  18.077   0.972 -0.2528  0.2047  0.1903
 4025W        W20159  11.031  11.351   1.408 -0.1449 -0.2669 -0.0407
 4026W        W20160   8.891   9.771  15.673  0.1669  0.1260  0.0595
 4027W        W20161   4.163  12.681   5.082 -0.1808 -0.1818  0.2384
 4028W        W20162   0.760   2.741   3.872 -0.4639 -0.0162 -0.0580
 4029W        W20163   4.103   7.403   0.021  0.0312  0.3857 -0.2627
 4030W        W20164  10.214  10.889  11.318 -0.1714  0.2784 -0.2754
 4031W        W20165   6.353   9.096  15.042 -0.1252 -0.1505  0.0747
 4032W        W20166  17.109   3.587   0.570  0.0192 -0.2755 -0.1034
 4033W        W20167   8.749  13.699  14.234  0.1956  0.0086 -0.2672
 4034W        W20168  12.522   3.361   4.142 -0.1655  0.0939  0.2203
 4035W        W20169   1.687  11.116   5.197  0.1524  0.1545 -0.0088
 4036W        W20170   6.243  15.162  12.697  0.1198 -0.1595 -0.0214
 4037W        W20171  17.815   7.032  11.447  0.2826  0.2550  0.0286
 4038W        W20172   8.416   6.897   2.654 -0.1595 -0.0877  0.1548
 4039W        W20173  18.067   5.862  11.476 -0.5105  0.1537  0.0870
 4040W        W20174   4.761   2.279   1.593  0.1609 -0.3200  0.2412
 4041W        W20175  12.823  10.434   1.945  0.0149  0.0513  0.0355
 4042W        W20176  12.526   9.763   3.674 -0.0338 -0.1159  0.0264
 4043W        W20177  13.622   9.411   0.845 -0.2243 -0.0547 -0.0009
 4044W        W20178  17.531   2.592  11.612  0.0911  0.0267  0.0537
 4045W        W20179  11.732   4.373   0.319  0.0968 -0.0395 -0.2205
 4046W        W20180   9.409   2.081  13.112  0.0656  0.3786 -0.2537
 4047W        W20181  14.276   3.983   0.330  0.2191 -0.1301  0.1300
 4048W        W20182   9.253   4.540   1.468  0.0372 -0.0387 -0.3822
 4049W        W20183   5.567   5.408   5.470 -0.0358 -0.3338  0.0013
 4050W        W20184  14.955  13.959   3.375  0.1018  0.1536 -0.0723
 4051W        W20185  11.348   9.065   0.555  0.0527 -0.2227 -0.2073
 4052W        W20186  10.197  11.464   3.435  0.2201 -0.1566  0.1483
 4053W        W20187  10.635  17.802  12.798 -0.1554 -0.1010  0.2004
 4054W        W20188   9.827   0.002  13.982 -0.0225 -0.1772 -0.0371
 4055W        W20189  10.679   9.483  12.039  0.0349 -0.3347 -0.0288
 4056W        W20190  17.163   2.204  11.873  0.2832  0.2061 -0.2044
 4057W        W20191  11.709  12.303  13.664  0.2529 -0.0436 -0.1367
 4058W        W20192   8.082   0.634   2.407  0.0467  0.1434 -0.0184
 4059W        W20193   9.193   6.810   5.014 -0.0666  0.0116 -0.0918
 4060W        W20194  14.471  10.037   4.206 -0.1318 -0.0167  0.1450
 4061W        W20195   5.145  16.960   1.700  0.1886 -0.1910  0.3746
 4062W        W20196   5.533   1.711   3.790  0.1772  0.0626  0.0441
 4063W        W20197  12.706  15.803  14.296 -0.3014 -0.0394 -0.4128
 4064W        W20198   2.617   5.088   1.141 -0.1142  0.0752  0.1510
 4065W        W20199   8.059   8.280  12.353  0.1424  0.1828 -0.2585
 4066W        W20200   7.157  16.227  13.130 -0.2795  0.0789  0.0716
 4067W        W20201  11.095   0.583   0.980 -0.1664  0.2415 -0.0597
 4068W        W20202   8.013   1.389   4.918 -0.1820  0.4541  0.0800
 4069W        W20203  10.326   9.520   2.892  0.1811 -0.0184 -0.3131
 4070W        W20204  16.877  13.486  12.743  0.1384  0.1284 -0.1063
 4071W        W20205  15.180   2.439  13.636 -0.0411  0.3520 -0.1441
 4072W        W20206  11.360  12.153   4.495  0.1063 -0.1929 -0.1294
 4073W        W20207   3.211  13.028   5.029  0.0323  0.0470 -0.1532
 4074W        W20208  16.570   6.247   3.126  0.2146 -0.0794 -0.2813
 4075W        W20209   6.459   9.601   3.475  0.0186 -0.1116  0.0337
 4076W        W20210   3.101   9.741   0.798  0.0037  0.2182  0.1089
 4077W        W20211  10.599  15.631  15.840  0.2497 -0.0427 -0.0606
 4078W        W20212   1.026   1.874   1.120 -0.0034  0.3050  0.5533
 4079W        W20213  17.582   7.509  11.370  0.1051 -0.1660  0.0165
 4080W        W20214  12.167   7.732  14.556 -0.0241  0.1177 -0.1248
 4081W        W20215  10.865  10.168   5.600  0.1749  0.2915 -0.5627
 4082W        W20216   4.617  14.671   1.497  0.2126 -0.0196  0.1893
 4083W        W20217   9.705  17.561  12.566  0.0317  0.1253 -0.1098
 4084W        W20218   0.612  18.018  14.341 -0.0212  0.0619  0.3469
 4085W        W20219   6.948   4.617   1.918  0.0159 -0.0996  0.0819
 4086W        W20220   4.901   3.177   3.364  0.1033  0.1000 -0.1123
 4087W        W20221   7.915   6.058   3.761 -0.2283 -0.1373  0.3613
 4088W        W20222   9.952  13.959   0.417 -0.0762  0.1630  0.0307
 4089W        W20223   7.491  17.194  13.177 -0.1810 -0.0624  0.2752
 4090W        W20224  14.775   8.663  14.894  0.0003 -0.0720 -0.4434
 4091W        W20225   3.465  16.912   1.054 -0.0051  0.2921  0.0087
 4092W        W20226   5.290  12.688   1.032  0.0239 -0.4427 -0.1173
 4093W        W20227   1.113  18.031   4.233 -0.2364 -0.1214  0.2474
 4094W        W20228  12.678   9.868  14.831  0.1729 -0.1759 -0.0228
 4095W        W20229   1.493  17.509  12.328  0.0405  0.0662  0.0023
 4096W        W20230   6.029  17.545   3.720  0.0796  0.0774  0.0714
 4097W        W20231  17.509  17.985  13.846 -0.0253  0.1472 -0.1153
 4098W        W20232  17.724   4.446   3.579  0.2717 -0.3942  0.0225
 4099W        W20233   5.094   0.026   5.428 -0.0395 -0.2749  0.4105
 4100W        W20234  16.662  15.363  15.835  0.0499  0.3968 -0.1019
 4101W        W20235   0.639  16.636   2.826 -0.1292 -0.1391 -0.0176
 4102W        W20236   4.415  13.503   1.388 -0.1480  0.0604  0.2593
 4103W        W20237  16.038   3.000   3.661  0.1668 -0.0347 -0.0218
 4104W        W20238  11.722  10.733   0.848 -0.2869 -0.0569 -0.0118
 4105W        W20239  12.430  12.037  14.889  0.0870 -0.4217 -0.1807
 4106W        W20240   3.524  13.360   4.182  0.4002 -0.1831  0.0847
 4107W        W20241   3.022  14.613  13.750  0.1829 -0.0848  0.0038
 4108W        W20242   4.142   8.132   1.796  0.1406 -0.0852 -0.2492
 4109W        W20243  12.548   6.581   2.469  0.0805 -0.1988 -0.0048
 4110W        W20244   0.054   9.582  14.104  0.3363  0.3344  0.1347
 4111W        W20245   0.430   5.628   2.426  0.1707 -0.1149 -0.2654
 4112W        W20246  14.833  11.214  15.984 -0.1135 -0.0928  0.0400
 4113W        W20247  13.569   5.564  11.273 -0.1423  0.3529 -0.1227
 4114W        W20248   8.739   0.271   0.886  0.0942  0.1083  0.0242
 4115W        W20249   7.719   6.615   3.439  0.1336 -0.0024  0.2582
 4116W        W20250   3.973   7.919  11.618  0.0465 -0.0550 -0.1103
 4117W        W20251  14.406   6.592   4.574 -0.0958  0.2043  0.0525
 4118W        W20252   4.287   7.909   0.767 -0.1291 -0.0302  0.2584
 4119W        W20253   5.679   1.603  14.190 -0.1423  0.1934 -0.3222
 4120W        W20254   2.310   1.702  15.560  0.1966  0.1063  0.0022
 4121W        W20255   2.226   9.801   5.275  0.1930  0.0556 -0.1982
 4122W        W20256   4.928   7.954  14.336 -0.0116 -0.2399 -0.2425
 4123W        W20257   9.215   1.429  11.523 -0.1308 -0.2121 -0.1549
 4124W        W20258   9.311   9.226   5.701 -0.2670 -0.2808  0.2084
 4125W        W20259  18.070   6.327   0.625 -0.0604  0.1906 -0.1153
 4126W        W20260  10.969   0.620   2.003  0.1989 -0.0471  0.1329
 4127W        W20261   2.810  17.507   1.152  0.4698  0.2489 -0.2530
 4128W        W20262  13.228  15.957   0.582  0.1847  0.3684  0.0800
 4129W        W20263   5.536  10.672   3.108  0.1810  0.1049 -0.0289
 4130W        W20264  17.158   8.307   1.964  0.1041 -0.0622 -0.0599
 4131W        W20265   2.056  10.455  12.794  0.0246 -0.0748  0.1203
 4132W        W20266  11.581   8.392  11.105 -0.1590  0.0188 -0.1579
 4133W        W20267   7.419   8.600   2.535 -0.2062 -0.0210 -0.1987
 4134W        W20268   1.702   3.434  12.548  0.0440 -0.1307 -0.1054
 4135W        W20269  14.733  12.720   4.474 -0.1402 -0.0635  0.1023
 4136W        W20270  12.017  12.509   4.943  0.1975 -0.0467  0.3077
 4137W        W20271   5.208  13.631   3.896 -0.1032  0.0110  0.0060
 4138W        W20272  14.029   8.892  15.833  0.0286 -0.2762 -0.0595
 4139W        W20273   9.044  15.763   4.017  0.0304  0.1325 -0.1137
 4140W        W20274   4.560  12.043  11.523 -0.1990  0.0189 -0.0234
 4141W        W20275  12.898  15.676   2.323  0.0852 -0.1666  0.0126
 4142W        W20276   7.980   2.708   5.625 -0.0772  0.3059 -0.3531
 4143W        W20277   8.138  12.012  12.806 -0.1118  0.1858 -0.0739
 4144W        W20278   2.595  15.830   5.393 -0.0691  0.3294 -0.4443
 4145W        W20279  17.060   6.494   0.660 -0.0234  0.0223  0.0941
 4146W        W20280   1.523   3.120  13.627  0.1023  0.1268 -0.0299
 4147W        W20281  14.397   5.636  12.363  0.1807 -0.1624  0.1291
 4148W        W20282   1.622  12.282  16.402 -0.0292 -0.2363  0.0050
 4149W        W20283   9.852   7.125   4.406 -0.2656 -0.0909  0.1171
 4150W        W20284   8.132   0.698  13.456  0.1274  0.1672 -0.1570
 4151W        W20285   8.010   8.725  14.151  0.2132 -0.1540  0.2061
 4152W        W20286   2.458   2.018   6.000 -0.0842  0.0155  0.2700
 4153W        W20287  11.133   5.631  15.198  0.1971 -0.2265 -0.3215
 4154W        W20288   3.952   9.673  14.883 -0.3117 -0.1309 -0.2480
 4155W        W20289  13.823   6.970  12.696  0.0330 -0.0042 -0.3582
 4156W        W20290   7.722   0.018  12.482  0.0034  0.0430  0.2654
 4157W        W20291  14.315   0.008   5.101  0.0183  0.3188  0.0687
 4158W        W20292  10.636  14.947   5.280  0.3458 -0.0205  0.0041
 4159W        W20293   8.205   2.455   5.026  0.2000  0.0124 -0.1268
 4160W        W20294   5.688   5.110  14.542  0.2599  0.3096  0.4198
 4161W        W20295  15.117  12.722   1.560 -0.1263  0.2158  0.2540
 4162W        W20296   2.490  12.177  14.967  0.1814  0.0207 -0.1418
 4163W        W20297   9.960   8.321  15.209 -0.3426 -0.2251 -0.0300
 4164W        W20298  12.734   0.126   4.128 -0.0187  0.1482 -0.1973
 4165W        W20299   0.911  15.235  12.137  0.1218 -0.2308 -0.2035
 4166W        W20300   2.116   4.026  15.380  0.0677 -0.1062 -0.0902
 4167W        W20301   6.859   4.789  12.255  0.2632  0.1312  0.0587
 4168W        W20302   6.624   4.155   2.578 -0.1242 -0.1702 -0.1256
 4169W        W20303   3.291  15.864   3.823  0.1534  0.3053  0.0720
 4170W        W20304  12.464   1.852  10.991  0.2228  0.1021 -0.2908
 4171W        W20305   1.568  11.228  16.337 -0.1058  0.0288  0.2004
 4172W        W20306   1.779  10.622   4.091  0.1196  0.2645 -0.1189
 4173W        W20307  11.406  17.900  11.767  0.1885 -0.0315 -0.2098
 4174W        W20308  14.122   7.276   1.757 -0.2244 -0.1771 -0.0460
 4175W        W20309   6.328  15.783  11.473 -0.1478  0.1221  0.4441
 4176W        W20310  17.652  10.794   4.001 -0.1746 -0.0440 -0.3007
 4177W        W20311   3.581   3.449  12.537  0.2234  0.0647  0.0945
 4178W        W20312   6.483  14.529   1.008 -0.0468  0.2151  0.3901
 4179W        W20313  12.841   3.815   2.260  0.0895  0.0819 -0.0764
 4180W        W20314  15.607  17.814   1.352 -0.2266  0.3461 -0.2726
 4181W        W20315  14.148   5.222   5.005 -0.0118  0.1424 -0.2333
 4182W        W20316  11.182  18.037   5.132  0.0063 -0.2017 -0.0062
 4183W        W20317   7.719   6.359   4.484  0.1414  0.3161 -0.0326
 4184W        W20318  13.368   8.933  12.368 -0.0846 -0.1151 -0.0269
 4185W        W20319   4.312   0.288  12.000  0.0731  0.0998 -0.1257
 4186W        W20320  11.511   0.228  15.225  0.4954 -0.1967  0.0959
 4187W        W20321  11.126   1.558   2.233  0.0656  0.3508  0.0176
 4188W        W20322  14.990  16.298   5.652 -0.3620  0.1411  0.1821
 4189W        W20323   8.555   5.313   3.822 -0.0500 -0.3685 -0.0537
 4190W        W20324  14.089   0.183  11.983  0.0942  0.1373 -0.0894
 4191W        W20325   5.222  13.153  13.463  0.1007  0.0573  0.3125
 4192W        W20326   1.730  17.376  15.859 -0.0013  0.0193 -0.1997
 4193W        W20327   2.318   7.873  12.125 -0.0858  0.1792  0.1139
 4194W        W20328  11.886  17.887  11.698 -0.1144 -0.0626 -0.3533
 4195W        W20329   4.273   7.882  16.365  0.1006  0.3387 -0.3671
 4196W        W20330  13.913  16.714  12.972  0.0746 -0.0674 -0.1468
 4197W        W20331   9.131  11.403   3.232 -0.2468 -0.2592  0.1044
 4198W        W20332   9.691  10.976  13.657 -0.1729  0.1304  0.1129
 4199W        W20333   8.357  11.815   5.205  0.0521 -0.0791  0.0607
 4200W        W20334  12.986   2.102  11.635 -0.0181 -0.0449  0.2582
 4201W        W20335  13.925  14.322   2.193 -0.1522 -0.0432  0.0123
 4202W        W20336  11.143   0.347   0.537  0.1745 -0.1723 -0.1098
 4203W        W20337   3.300   8.318   0.716 -0.2296 -0.4069 -0.1495
 4204W        W20338  12.895  17.984  12.632  0.1551 -0.0457 -0.0305
 4205W        W20339  10.334  11.234  16.040 -0.0591  0.3122 -0.2725
 4206W        W20340   8.339   7.328   0.993  0.0585  0.2066 -0.0238
 4207W        W20341  10.317  14.050   3.533 -0.0263  0.1504 -0.0130
 4208W        W20342  15.146  17.562   2.025  0.2150  0.0736 -0.1820
 4209W        W20343  12.658   0.397   0.340 -0.2998  0.1970 -0.2408
 4210W        W20344   3.832   5.723   0.514 -0.2222  0.1803  0.0475
 4211W        W20345   9.046   3.364   2.086 -0.0843 -0.1024 -0.2324
 4212W        W20346   9.755  17.591   2.869 -0.2085  0.1001  0.2233
 4213W        W20347  11.830   6.945  14.450 -0.0003 -0.1545 -0.1046
 4214W        W20348   1.752   3.323  14.616 -0.0890 -0.2070  0.0252
 4215W        W20349   7.162   0.138   3.703 -0.0159 -0.0123 -0.0827
 4216W        W20350  13.572   4.741   4.610  0.2632 -0.1392 -0.2287
 4217W        W20351   1.429   1.650   1.357 -0.1884 -0.0630  0.0229
 4218W        W20352   1.731  11.706  12.765  0.2366  0.0091 -0.0778
 4219W        W20353  10.263  18.010   3.485  0.2326  0.2998  0.3918
 4220W        W20354  15.038   9.270  14.095 -0.1054  0.0419  0.0902
 4221W        W20355  15.402   2.642   4.102  0.1660 -0.1128 -0.1741
 4222W        W20356   3.799  10.214  12.576  0.0774 -0.2004 -0.0480
 4223W        W20357   2.675   6.024  15.915  0.0577 -0.0037  0.3597
 4224W        W20358  14.957   2.626   3.287 -0.0231  0.1293  0.1287
 4225W        W20359   0.019   4.288   3.255  0.2228  0.1426 -0.0184
 4226W        W20360   7.412  10.541   3.998  0.0920 -0.0186 -0.1533
 4227W        W20361   3.629  11.027  13.176 -0.2439 -0.1083  0.0536
 4228W        W20362   8.504   1.068   2.183 -0.1899 -0.0217  0.2214
 4229W        W20363  11.343   0.341  11.456 -0.1088 -0.3231 -0.3880
 4230W        W20364   8.043  12.137   4.396  0.0678  0.0161 -0.0012
 4231W        W20365   1.249  17.529   4.936 -0.0676 -0.0155 -0.1254
 4232W        W20366  13.303   5.773  11.978  0.1497 -0.1081  0.0668
 4233W        W20367   1.324   0.193   2.788  0.0632 -0.1623  0.1306
 4234W        W20368  12.054  12.756  11.567  0.0362  0.1527 -0.0659
 4235W        W20369   3.962   4.842  12.175 -0.1386 -0.0416 -0.1654
 4236W        W20370   2.135   8.984   3.101  0.1798 -0.1790  0.2383
 4237W        W20371   6.302  14.920   5.453 -0.0914 -0.0569  0.1700
 4238W        W20372   5.899   9.905   3.022  0.2057 -0.1159 -0.0915
 4239W        W20373   8.304   4.210   0.943 -0.1503  0.0511 -0.2683
 4240W        W20374  15.902   7.109   3.920 -0.2486  0.1855 -0.0324
 4241W        W20375  15.838   1.365   2.118 -0.0746 -0.2307 -0.0733
 4242W        W20376   8.378   0.777   3.924  0.0362 -0.0788 -0.0027
 4243W        W20377   9.671  13.595  11.956 -0.0071 -0.1597  0.1154
 4244W        W20378   3.695   3.652   4.861  0.0700  0.3180  0.0023
 4245W        W20379  10.608   5.346   0.166  0.1040  0.1374 -0.1023
 4246W        W20380   5.929   8.058   3.739 -0.1372  0.0084 -0.2693
 4247W        W20381  15.125   8.739  11.644  0.0123 -0.1090 -0.1128
 4248W        W20382   5.477  15.193  12.319 -0.2543 -0.1839 -0.2322
 4249W        W20383   1.630   7.712   0.884  0.0591  0.0291 -0.1768
 4250W        W20384   1.547   8.813  12.814  0.1127 -0.0028 -0.1583
 4251W        W20385  15.335   4.492  15.814  0.1440  0.1065 -0.2450
 4252W        W20386   1.706   4.875  14.447 -0.0568  0.2286 -0.1675
 4253W        W20387  15.119  18.049  14.550  0.0260 -0.0996 -0.1092
 4254W        W20388  12.961   5.283  13.524 -0.0216 -0.1043  0.0375
 4255W        W20389   2.075  12.536   1.278  0.0332 -0.0809 -0.0544
 4256W        W20390  14.433  15.436   3.721  0.0586  0.1188 -0.1184
 4257W        W20391   5.190   2.604   4.287  0.5049 -0.0448 -0.0378
 4258W        W20392  13.867   4.932  15.326  0.0200  0.0272  0.1778
 4259W        W20393   5.141  12.023   3.922  0.1326  0.0582 -0.2226
 4260W        W20394   1.069   0.995   3.767 -0.0558  0.2303 -0.1337
 4261W        W20395  18.060  15.958   4.296 -0.3156  0.1218  0.1281
 4262W        W20396  10.242   7.398  15.359  0.0920  0.6287  0.3441
 4263W        W20397  10.460  12.948  11.769  0.0577 -0.1315  0.0681
 4264W        W20398   8.874  12.576   0.622  0.1795  0.0354  0.0817
 4265W        W20399   6.930   5.549  12.826 -0.1107 -0.1347  0.1866
 4266W        W20400  15.393  10.722  16.287  0.1306  0.0749  0.1458
 4267W        W20401  12.115   0.168  12.802 -0.3320  0.4077 -0.0156
 4268W        W20402   6.155   4.073  16.121  0.0371 -0.1867  0.2478
 4269W        W20403   1.671  15.215  14.094  0.1452 -0.1082  0.3478
 4270W        W20404  10.559  10.054   4.744  0.0480 -0.1088  0.1574
 4271W        W20405   8.974   3.097   2.603 -0.1351 -0.1022  0.1119
 4272W        W20406   9.034  15.270   5.564  0.1724  0.1840 -0.1173
 4273W        W20407  13.493   5.517   5.240  0.0785 -0.1258 -0.1873
 4274W        W20408  13.799   5.061  11.222 -0.0087 -0.0691 -0.2154
 4275W        W20409   2.407   5.478  11.464  0.4912  0.2006  0.0277
 4276W        W20410   6.533   4.049  11.951  0.2525  0.2142  0.1635
 4277W        W20411  12.443   8.560   1.387  0.0731  0.0113 -0.3078
 4278W        W20412   0.980   0.073   1.702 -0.2558 -0.1033  0.2023
 4279W        W20413  15.686   2.259   2.176  0.3319 -0.0722  0.0877
 4280W        W20414  10.366  12.700  13.995  0.3821 -0.1145  0.0012
 4281W        W20415  12.681   7.689  15.388 -0.0512  0.0129 -0.0064
 4282W        W20416   9.531   5.450   1.180  0.0452  0.0112  0.0706
 4283W        W20417  12.634  18.064   2.480 -0.1000 -0.1566 -0.2980
 4284W        W20418  17.605  15.541   4.807  0.0939 -0.0270  0.0146
 4285W        W20419  17.482  11.693  13.169 -0.1684  0.0546  0.2817
 4286W        W20420   2.726  16.536  15.334 -0.0759  0.2087  0.2810
 4287W        W20421   4.242   6.830   4.468  0.0438  0.3067  0.1374
 4288W        W20422   7.900   9.745   2.390 -0.1836  0.2299  0.2876
 4289W        W20423  11.937  14.418  11.831 -0.1066  0.1191  0.1123
 4290W        W20424   7.602  17.325   3.297  0.0918  0.2352  0.1699
 4291W        W20425  17.324   7.491  12.916 -0.0530 -0.2208  0.3359
 4292W        W20426   4.184   1.154   0.370  0.0526 -0.0618 -0.0512
 4293W        W20427  15.231   9.791   2.962 -0.1070 -0.1026  0.4404
 4294W        W20428  14.268  16.554  15.917  0.1169  0.0405  0.1235
 4295W        W20429  15.393  15.693   0.933  0.0053  0.1779  0.0552
 4296W        W20430  15.686  12.900   0.244  0.2066  0.1791 -0.4265
 4297W        W20431   3.300  15.785  16.051 -0.0424  0.2324 -0.1028
 4298W        W20432  11.339  11.357   0.576 -0.0803 -0.0665  0.1269
 4299W        W20433   3.791   7.844   5.088  0.1497 -0.3250 -0.1271
 4300W        W20434  13.502  13.383   5.565  0.1200 -0.0765 -0.1121
 4301W        W20435   6.215  12.949   4.382  0.0986 -0.2736 -0.0880
 4302W        W20436  13.252  17.138   3.209  0.1451  0.2351  0.3043
 4303W        W20437   8.013   5.382   3.721 -0.1795 -0.0216 -0.1367
 4304W        W20438  13.868  13.913  14.510  0.0242 -0.2879  0.1032
 4305W        W20439  10.739   3.499  11.398  0.0428  0.2571  0.3612
 4306W        W20440   2.619   8.119   5.902 -0.1255  0.1339  0.0851
 4307W        W20441   4.332  13.669   2.658  0.0067 -0.2184  0.0595
 4308W        W20442   3.702  12.947   4.350  0.0133  0.0315 -0.2164
 4309W        W20443  12.506  14.220  11.571  0.0355  0.1823 -0.0202
 4310W        W20444   0.344  14.204   0.898  0.2111  0.1132 -0.1551
 4311W        W20445   1.225   6.909  11.381 -0.0597 -0.2056 -0.1932
 4312W        W20446  11.267  12.344  10.953 -0.0224  0.0553  0.0745
 4313W        W20447   4.650  11.540  14.741 -0.2521 -0.0840  0.0977
 4314W        W20448  17.850  14.627  13.494  0.0480  0.0401  0.0495
 4315W        W20449   2.094  15.846   1.952 -0.0699  0.1275 -0.0232
 4316W        W20450   4.642  17.504   5.690  0.1326  0.2404  0.3134
 4317W        W20451  17.591  10.814  12.625  0.1981  0.1905 -0.0370
 4318W        W20452   7.989   2.390  12.383  0.0312 -0.0414 -0.1593
 4319W        W20453   1.899   5.778   5.289 -0.1216  0.3120  0.1526
 4320W        W20454   8.721   6.154  14.144 -0.0173 -0.2377  0.1051
 4321W        W20455  12.542   4.574   2.640 -0.2401 -0.2932  0.0415
 4322W        W20456   4.036   9.498   2.109 -0.0268 -0.1142 -0.2045
 4323W        W20457  12.796  11.304  11.151  0.0113  0.0942 -0.3031
 4324W        W20458   6.549  15.891  13.911  0.5037 -0.1547 -0.1227
 4325W        W20459   0.157   3.286  15.785  0.3051 -0.2169 -0.1740
 4326W        W20460  14.263  17.731  10.890  0.1796 -0.1012 -0.2578
 4327W        W20461   9.815  10.696   5.994 -0.0426 -0.0974 -0.1503
 4328W        W20462  17.246  18.024   0.592 -0.0801  0.0466  0.2814
 4329W        W20463   4.024  15.979   5.818 -0.0722  0.5362 -0.0470
 4330W        W20464   2.271  10.007   2.627  0.0838 -0.0002  0.3734
 4331W        W20465   7.260  16.231  12.181  0.0020 -0.1018  0.4021
 4332W        W20466  11.345  17.407   3.957  0.1796 -0.0655  0.1848
 4333W        W20467  17.909   2.381  12.521  0.0841  0.3945  0.1617
 4334W        W20468   6.424   9.186   3.861  0.1607  0.0299 -0.0395
 4335W        W20469  15.168   9.407   2.176  0.2102 -0.1615  0.0827
 4336W        W20470   5.267  13.951  12.094  0.2778 -0.0167 -0.2428
 4337W        W20471  11.320  13.248  11.886 -0.1831  0.0798 -0.0885
 4338W        W20472  14.100   3.915  12.927 -0.1633  0.1413 -0.1537
 4339W        W20473   3.111  13.790   1.713  0.3210  0.2468  0.1126
 4340W        W20474  14.499   5.188  11.846 -0.1024 -0.1622  0.2459
 4341W        W20475  16.482   4.241   2.354  0.1252  0.0473  0.1621
 4342W        W20476  17.668  17.627  12.325 -0.0399  0.3151  0.3061
 4343W        W20477   2.688   9.853   1.141 -0.0171  0.1815  0.1491
 4344W        W20478   2.021  18.079  15.451  0.4294  0.0753  0.0207
 4345W        W20479   0.205  13.499  14.179  0.0022 -0.0852 -0.0015
 4346W        W20480   6.515  14.257  16.308 -0.0515 -0.0635 -0.6067
 4347W        W20481  18.077  10.366  13.419 -0.1587  0.0572  0.0536
 4348W        W20482  11.048  11.198   3.946  0.0577  0.0738  0.1383
 4349W        W20483   9.588   8.391  11.461 -0.0829  0.1697  0.0598
 4350W        W20484  15.329   7.071  11.330 -0.0722  0.1170 -0.2403
 4351W        W20485  11.668  10.958   1.336  0.0989 -0.0959 -0.1287
 4352W        W20486   1.331   0.651  14.596 -0.3745  0.0509  0.0311
 4353W        W20487  11.167  14.527   0.739  0.2705 -0.1866  0.0161
 4354W        W20488   2.191  17.924  13.185  0.0450  0.0820  0.0874
 4355W        W20489   7.548   7.506   2.437  0.2198 -0.0546  0.0056
 4356W        W20490   2.094   2.447   4.820  0.0060 -0.0423  0.0904
 4357W        W20491   4.523   1.785   1.381  0.2930 -0.3341 -0.0899
 4358W        W20492   6.664  14.168  15.809 -0.1418 -0.3406  0.0770
 4359W        W20493   3.498   7.562   1.597  0.0423  0.2365  0.4653
 4360W        W20494   3.353  12.938  16.152 -0.1918 -0.3935 -0.1451
 4361W        W20495   5.715   4.605  13.141  0.3157  0.0589 -0.2936
 4362W        W20496  15.195   0.551   0.107 -0.2705 -0.2395  0.1898
 4363W        W20497  10.385   6.997  15.660  0.1328 -0.2059  0.2549
 4364W        W20498   4.110   0.776   1.112 -0.0396 -0.1089  0.3469
 4365W        W20499   8.146  16.184   2.004 -0.0618  0.0551  0.2121
 4366W        W20500   8.977  17.101  15.922  0.2440  0.0856 -0.4434
 4367W        W20501  13.036   7.687   2.265  0.0627 -0.0787 -0.0107
 4368W        W20502  13.509  18.028   3.477 -0.1467  0.1179 -0.0070
 4369W        W20503  18.087   5.780   0.525  0.1042  0.0706  0.0654
 4370W        W20504   7.960   3.482  10.576  0.1694 -0.0879 -0.0360
 4371W        W20505   9.390   6.200   4.463 -0.3958 -0.1631 -0.2428
 4372W        W20506   9.419  14.095  11.146  0.2964  0.2714  0.0392
 4373W        W20507  12.424  13.916  12.802 -0.0237  0.0506 -0.2715
 4374W        W20508   0.660   2.570  11.259  0.0476  0.0664 -0.0128
 4375W        W20509   1.875   1.710  11.052  0.0531 -0.4467 -0.0327
 4376W        W20510  12.266   5.799   1.993  0.0948  0.0603 -0.1014
 4377W        W20511  11.669  10.319   4.636  0.0659 -0.1973 -0.1933
 4378W        W20512  12.991   5.842  13.069 -0.2486  0.2077  0.1277
 4379W        W20513  12.623   6.420  14.070 -0.3420 -0.0967 -0.0678
 4380W        W20514  10.013   4.200  14.605 -0.0341  0.2146  0.0575
 4381W        W20515  16.107  16.773  15.711 -0.0172 -0.1761 -0.0572
 4382W        W20516  16.779   6.360  12.024  0.1169 -0.1618  0.1628
 4383W        W20517   7.205  12.720  11.358  0.0654 -0.0339  0.1825
 4384W        W20518  11.694  14.213  15.114 -0.2031  0.0671  0.0077
 4385W        W20519   3.948  14.181   1.053  0.0488  0.0519  0.2476
 4386W        W20520  15.750   3.101  11.050 -0.0465 -0.3559 -0.3050
 4387W        W20521   5.403   9.871   1.569  0.1037  0.0616  0.0649
 4388W        W20522   3.780  13.094   3.753  0.0702 -0.1495 -0.0144
 4389W        W20523   5.383   5.166   3.690  0.2418  0.1430 -0.1847
 4390W        W20524   0.263  16.168   3.473  0.1906 -0.0943  0.0458
 4391W        W20525  17.259   8.572  12.794  0.4596  0.2035 -0.2621
 4392W        W20526  13.607   9.592  11.158 -0.1642  0.0314 -0.0276
 4393W        W20527  10.357  10.421  14.337  0.0122  0.3771 -0.1792
 4394W        W20528   2.446  11.523  13.821 -0.1704  0.1659  0.0349
 4395W        W20529   4.220  11.422  16.202  0.3142  0.1584 -0.0065
 4396W        W20530   5.359  12.759  14.288  0.1798 -0.2062 -0.2881
 4397W        W20531   0.908   1.269   5.571  0.1981  0.0631  0.0170
 4398W        W20532  10.361   3.657   5.015  0.0893 -0.2080  0.2344
 4399W        W20533  17.409   4.531   4.616 -0.0886  0.3528  0.1319
 4400W        W20534  14.580   7.588  15.694  0.0234  0.1871  0.3591
 4401W        W20535  14.826   3.559   3.566 -0.0810 -0.0264 -0.2837
 4402W        W20536   7.253  17.653   3.444  0.1508  0.1506  0.3836
 4403W        W20537  15.784  10.652  14.307 -0.1855  0.1675  0.0869
 4404W        W20538  17.556   2.558  13.507 -0.2872 -0.1021 -0.1459
 4405W        W20539  16.765   3.623   0.127 -0.2561 -0.0510  0.1575
 4406W        W20540  12.933  14.396   3.113 -0.2618 -0.0499 -0.0095
 4407W        W20541   6.239   2.383   1.668 -0.0418 -0.1337  0.1528
 4408W        W20542   4.637  17.883  12.767  0.0927 -0.1264  0.0196
 4409W        W20543   0.895   8.025   1.383 -0.1908 -0.1064 -0.1508
 4410W        W20544  17.509  11.925   2.718 -0.1651  0.0521 -0.3748
 4411W        W20545  14.162  11.345   4.640  0.1890  0.2990  0.0031
 4412W        W20546  14.640  13.785   5.719 -0.0311  0.2802  0.1142
 4413W        W20547  10.494   9.921   1.988  0.2979  0.0155  0.1282
 4414W        W20548   2.061  15.318   3.310 -0.1339 -0.1399 -0.2557
 4415W        W20549  12.021   1.182   1.784  0.1544 -0.0229  0.1617
 4416W        W20550  13.648   2.465  10.537  0.4270  0.0193 -0.1065
 4417W        W20551  12.002   1.025   0.674  0.0623  0.0664 -0.1100
 4418W        W20552   3.645  12.843  14.061 -0.2183  0.0187 -0.1528
 4419W        W20553  12.294   8.654  10.671  0.1003  0.1808 -0.1108
 4420W        W20554   1.968  11.958   4.920 -0.3874  0.0171 -0.2205
 4421W        W20555  10.802  13.571  12.950  0.0200 -0.2506  0.0570
 4422W        W20556   7.039  17.743  16.292  0.1634 -0.0300 -0.0752
 4423W        W20557  14.523  15.469  14.072 -0.2621 -0.2739  0.2589
 4424W        W20558   3.007   8.071  15.909  0.3157 -0.2995 -0.0395
 4425W        W20559  16.127   1.004   1.265  0.0163  0.1764  0.1090
 4426W        W20560   7.272  10.719   6.374  0.0493 -0.1205  0.1995
 4427W        W20561  12.619   5.384   2.946 -0.0704  0.2519  0.0339
 4428W        W20562  14.763  17.182  15.321 -0.2877  0.1477 -0.2947
 4429W        W20563   6.089   0.870  10.292 -0.2042 -0.0083 -0.2043
 4430W        W20564   9.900  14.815   0.222 -0.0093  0.0072 -0.1379
 4431W        W20565  11.671   2.366  15.086  0.1555 -0.2427  0.0358
 4432W        W20566  16.588   4.780  15.696 -0.2800  0.0862 -0.1529
 4433W        W20567  11.865  14.947  12.106  0.3083 -0.1679 -0.1809
 4434W        W20568  17.441   6.434   1.629  0.1406 -0.2196  0.0332
 4435W        W20569   6.965   9.847   0.801 -0.0857 -0.0773 -0.3916
 4436W        W20570  13.225  13.179   0.592  0.0594 -0.0388  0.0325
 4437W        W20571   2.247   9.512   2.266  0.1635  0.0161  0.4540
 4438W        W20572   9.997   7.293   3.456  0.0789 -0.1680 -0.1995
 4439W        W20573   3.152   6.670   1.578 -0.4090 -0.2679 -0.1765
 4440W        W20574   0.086   8.533  13.365 -0.2175 -0.0168  0.0341
 4441W        W20575   1.061   3.170   1.056  0.1618 -0.0966  0.4438
 4442W        W20576   4.817   6.397  11.461 -0.1239 -0.1621 -0.0445
 4443W        W20577   6.131   7.472  12.702 -0.0492  0.1436 -0.2023
 4444W        W20578   7.018  13.498   3.017  0.1290 -0.2067  0.1658
 4445W        W20579  16.662   6.839  16.327  0.3461  0.1345 -0.3425
 4446W        W20580   1.073  15.776   4.956  0.1186  0.0385 -0.0243
 4447W        W20581  12.231   1.498   0.859  0.1792 -0.1745  0.1316
 4448W        W20582  15.243   0.303  16.064 -0.1834  0.0413  0.0497
 4449W        W20583   7.178  10.027  15.814 -0.0681  0.2672  0.2656
 4450W        W20584  11.705   7.253  13.977 -0.0130  0.2471  0.1294
 4451W        W20585   1.359  14.680   3.100  0.0775  0.0315  0.0246
 4452W        W20586   4.420   7.036  11.835  0.0528  0.2068 -0.0020
 4453W        W20587  16.822   4.514   4.824 -0.3957  0.0644 -0.1679
 4454W        W20588   6.222   7.927  11.818 -0.2458  0.0861 -0.0986
 4455W        W20589   1.751  14.884  12.412  0.0969  0.0643  0.1853
 4456W        W20590  17.858  15.341  15.230  0.0587  0.0519 -0.2240
 4457W        W20591   0.118   7.787  13.594 -0.1797 -0.1659 -0.2822
 4458W        W20592  14.415   5.640   5.033  0.1240  0.0607  0.0201
 4459W        W20593  15.086  12.435  11.942 -0.1253  0.2648 -0.1305
 4460W        W20594   2.232  16.534  13.937  0.0253 -0.0543 -0.3664
 4461W        W20595  14.692  14.452   2.928 -0.2095  0.4733 -0.2178
 4462W        W20596   4.453  11.217   2.102 -0.0490  0.2015  0.0788
 4463W        W20597  15.360  12.966  15.382  0.2057  0.2037  0.0536
 4464W        W20598   2.286   3.571  15.998  0.0967  0.0212 -0.0750
 4465W        W20599   6.985  14.724  12.574  0.4800 -0.5027  0.0206
 4466W        W20600  12.505   6.346  12.419  0.4144  0.0467 -0.0703
 4467W        W20601   4.297  13.306  15.291 -0.1860  0.0678  0.1020
 4468W        W20602  10.650  14.269   4.530  0.0811  0.0779  0.0815
 4469W        W20603  13.688  10.591   2.317  0.0223  0.0829 -0.2560
 4470W        W20604   4.343  17.649   2.789 -0.3256  0.2657  0.1505
 4471W        W20605   9.315   5.515   4.428 -0.4735  0.3855 -0.0907
 4472W        W20606   2.233   7.266  15.083  0.2560  0.3501 -0.1561
 4473W        W20607   9.877  17.971   3.179  0.0517 -0.2643  0.1157
 4474W        W20608  13.535  12.796   1.493 -0.2317 -0.1197  0.1088
 4475W        W20609  10.640   1.536  12.853 -0.2885 -0.2408 -0.2362
 4476W        W20610   3.897   2.237   4.752  0.2477 -0.0037 -0.2306
 4477W        W20611   7.558  12.164   4.167  0.2274  0.0561 -0.1027
 4478W        W20612  11.252  12.262   3.981 -0.2258  0.0822  0.3861
 4479W        W20613  17.333   4.373   1.058  0.3978 -0.1654  0.0753
 4480W        W20614   9.313  11.902  13.765  0.2354 -0.0375  0.0936
 4481W        W20615   9.948   2.234  11.499 -0.1727  0.2975  0.0786
 4482W        W20616  10.926  13.530  13.492  0.0938  0.2373  0.0630
 4483W        W20617  11.038  12.519   4.415  0.2367  0.0153  0.1150
 4484W        W20618   9.115  16.632   1.996 -0.1421 -0.1490  0.0237
 4485W        W20619  17.172  16.670  13.459  0.1817  0.1006 -0.1474
 4486W        W20620  13.740   0.017  15.873  0.1556  0.0138 -0.2378
 4487W        W20621  10.397   9.169  13.867  0.0013 -0.0412 -0.2940
 4488W        W20622   5.697   7.521  12.504  0.1579  0.0290 -0.1659
 4489W        W20623   7.255  12.219   0.263  0.2997  0.3143  0.3516
 4490W        W20624   8.674   0.621  13.404 -0.2531 -0.1947 -0.1396
 4491W        W20625   1.260  13.764  14.044 -0.0793 -0.2479  0.0276
 4492W        W20626  10.510  10.068  15.040  0.0018 -0.0555  0.0689
 4493W        W20627   2.707  12.814   3.226 -0.0952  0.0061  0.0670
 4494W        W20628  16.782  13.511   1.195  0.3180  0.3829  0.3315
 4495W        W20629  13.722  13.129   4.371  0.1119 -0.1002  0.0607
 4496W        W20630   3.923   8.265   0.630 -0.0744 -0.3574  0.0135
 4497W        W20631  12.639  12.791  13.854  0.1309  0.1952  0.1233
 4498W        W20632   0.746  12.982  12.974 -0.1547 -0.0875  0.1068
 4499W        W20633   5.783  13.845   1.973 -0.3195 -0.0363 -0.0265
 4500W        W20634   4.892   7.176   3.552 -0.3379  0.1060  0.0151
 4501W        W20635   5.093   0.667  15.295  0.2276  0.0946  0.3532
 4502W        W20636   1.256   0.518   2.357  0.4136 -0.2986  0.0303
 4503W        W20637  15.739  11.700   1.715  0.0150  0.0551 -0.1116
 4504W        W20638   5.890   8.988  14.290 -0.2243 -0.1767 -0.0516
 4505W        W20639   9.244   6.906  11.547 -0.0560 -0.1556  0.1104
 4506W        W20640  16.805   0.587  12.435  0.2915 -0.2621  0.1876
 4507W        W20641   3.488   8.264  16.097 -0.1297 -0.0522  0.4199
 4508W        W20642   9.960   6.308   4.548 -0.1222  0.2188 -0.0179
 4509W        W20643  11.460  12.573   3.530  0.1710 -0.1535 -0.2042
 4510W        W20644   0.105  14.705  14.512 -0.1308 -0.1236  0.1435
 4511W        W20645   6.552   6.228  11.713 -0.1473 -0.0306  0.0369
 4512W        W20646  11.734   8.489   4.068  0.1115 -0.1599 -0.0867
 4513W        W20647  17.090   4.736   0.767  0.1225  0.1785 -0.0339
 4514W        W20648  16.949  17.183   5.144 -0.0821 -0.1366 -0.0856
 4515W        W20649   1.723   7.774  13.781  0.0945 -0.1849  0.0116
 4516W        W20650  17.170   4.809  13.320  0.1025 -0.1354  0.2033
 4517W        W20651   7.434   6.656   5.499  0.1825  0.0144 -0.0061
 4518W        W20652   3.928  13.115  13.685 -0.0283 -0.1686  0.0438
 4519W        W20653   1.129  17.770   5.401  0.2738  0.2157 -0.0155
 4520W        W20654   3.910  10.280   0.443  0.0399  0.2777 -0.0060
 4521W        W20655  17.757  15.365   6.292 -0.1370  0.1528 -0.0867
 4522W        W20656  15.837   1.978   0.918  0.0207  0.1883 -0.2164
 4523W        W20657   6.377  17.275  13.378 -0.0675 -0.1660  0.0002
 4524W        W20658  16.669  16.439  14.443 -0.0795 -0.0375  0.2677
 4525W        W20659   1.371   3.886   4.278  0.4407 -0.1891  0.0831
 4526W        W20660  16.424   0.346   2.094  0.2284 -0.0613 -0.0718
 4527W        W20661   7.369  16.750  13.324  0.2927  0.3259  0.1937
 4528W        W20662   7.424   4.492   5.044 -0.2325  0.1942  0.2700
 4529W        W20663  16.205   4.398   6.178  0.0286  0.1158  0.4003
 4530W        W20664  17.012  16.059   3.594 -0.0233  0.0736 -0.3193
 4531W        W20665  14.626  16.288   3.951  0.0308 -0.0588  0.1624
 4532W        W20666   0.646   5.253   5.776 -0.0234  0.0153  0.0503
 4533W        W20667  17.756   3.956  11.574 -0.2629  0.0989  0.2692
 4534W        W20668  15.249   4.002   9.834  0.0481 -0.0786  0.1211
 4535W        W20669   6.912   8.944   0.427 -0.0263  0.2737 -0.0426
 4536W        W20670  13.652  17.181   1.006  0.3088 -0.3503 -0.1179
 4537W        W20671  16.692   5.981  12.318 -0.0096 -0.0382  0.2525
 4538W        W20672   7.661  10.343  14.177 -0.2161 -0.0962 -0.2383
 4539W        W20673  15.285   7.235  11.804  0.0017  0.1296  0.1568
 4540W        W20674   8.282  16.521  11.759  0.1709  0.1996  0.2311
 4541W        W20675  12.117   3.626   1.749 -0.0768 -0.0222  0.1588
 4542W        W20676  13.355   0.721   2.521  0.4180 -0.1734 -0.1178
 4543W        W20677  11.437  14.166  11.924 -0.1284 -0.1270  0.0592
 4544W        W20678  13.361  12.059  14.248  0.2065 -0.2311  0.0307
 4545W        W20679   2.765  15.923  15.083  0.0732 -0.2310 -0.2976
 4546W        W20680   5.518   0.656   1.220 -0.1914 -0.0593  0.0539
 4547W        W20681  16.539  11.684  12.278 -0.0284  0.3920 -0.0145
 4548W        W20682  16.994  11.269  16.225 -0.3081  0.0174  0.0541
 4549W        W20683  11.222   2.122   0.902 -0.2759 -0.1066 -0.0291
 4550W        W20684  17.774   4.506  13.585  0.0694  0.3559  0.0706
 4551W        W20685  11.017   0.426  16.077 -0.1056  0.0690  0.0113
 4552W        W20686  10.335   8.987  13.444  0.1297  0.0164 -0.1910
 4553W        W20687   3.891  11.223   2.043  0.0374 -0.1441  0.0095
 4554W        W20688  16.025  11.294   5.101 -0.1462  0.0519 -0.0879
 4555W        W20689  11.791  14.955  13.768 -0.0866 -0.1830  0.1658
 4556W        W20690   0.238  10.180   4.973  0.2831  0.2455  0.0883
 4557W        W20691  14.756   7.905   4.685  0.0481  0.0506 -0.2011
 4558W        W20692   8.338  15.406  12.637 -0.1533 -0.0508  0.1354
 4559W        W20693  15.242   6.874   1.934  0.1521  0.0103  0.1452
 4560W        W20694   9.278  13.497   4.302  0.0192 -0.1640 -0.0235
 4561W        W20695  13.330  16.079   3.725  0.1282  0.0910 -0.1233
 4562W        W20696  14.127  13.818  13.514 -0.1251 -0.0679 -0.1050
 4563W        W20697   3.395   8.762  12.388  0.1946 -0.1419  0.0667
 4564W        W20698  17.755  17.145   1.849  0.0480 -0.0343 -0.1877
 4565W        W20699   8.470  13.089  12.440 -0.0524  0.2695 -0.0108
 4566W        W20700  11.604   7.785  13.208 -0.3571  0.0962 -0.1551
 4567W        W20701  16.631   8.298   2.317  0.2684  0.1529  0.2071
 4568W        W20702  13.056  13.326   3.424 -0.1415 -0.2641 -0.0258
 4569W        W20703  10.245  13.855   1.717 -0.3297  0.0485 -0.3631
 4570W        W20704   5.998   0.068  10.922 -0.0670 -0.1778  0.0838
 4571W        W20705  13.377  15.779   3.275  0.2607  0.0336 -0.1470
 4572W        W20706   6.456   3.817   3.596 -0.1087 -0.3316  0.0191
 4573W        W20707   7.910  15.255   2.088  0.0246  0.1853 -0.1620
 4574W        W20708  11.215  13.245  12.369  0.1299 -0.3312 -0.0893
 4575W        W20709   9.672  12.148   3.879 -0.0440 -0.0305 -0.1539
 4576W        W20710  15.102   5.042   5.437  0.1330  0.1106  0.1071
 4577W        W20711   2.000  11.669  14.617 -0.0298  0.0098 -0.1380
 4578W        W20712   1.881   1.900   0.445 -0.0288  0.2990 -0.0155
 4579W        W20713   1.607   8.198  10.849 -0.0232 -0.1935 -0.0364
 4580W        W20714   7.286  12.494   3.816 -0.2744  0.2025 -0.0076
 4581W        W20715   3.954  16.071  14.497  0.0706 -0.0599 -0.0955
 4582W        W20716   7.162  11.847  12.515 -0.1680  0.2172 -0.3494
 4583W        W20717  12.205  14.318  12.540  0.1249  0.2058 -0.3592
 4584W        W20718   2.783   5.158   3.986 -0.0504 -0.1592  0.1820
 4585W        W20719   4.380   8.384   0.991 -0.1607  0.1848 -0.3818
 4586W        W20720   5.031  17.103  12.260  0.0326  0.0483 -0.2115
 4587W        W20721  16.685   4.728   0.518  0.1540 -0.0185  0.0434
 4588W        W20722   3.060   4.687  11.295  0.2584 -0.1390  0.3646
 4589W        W20723   0.523  17.493  15.153 -0.0407  0.1647  0.1526
 4590W        W20724  12.815   5.987  15.453  0.1799 -0.2339  0.0147
 4591W        W20725  15.893  14.291   6.006  0.0968  0.1355 -0.1263
 4592W        W20726   5.906  12.267   0.399 -0.0128 -0.0220  0.1727
 4593W        W20727  15.343   7.902  12.173 -0.2185  0.1258  0.0908
 4594W        W20728   7.741   0.944   3.728 -0.2842  0.0682  0.1009
 4595W        W20729  13.617   0.107  11.234  0.0695 -0.2854  0.0212
 4596W        W20730  15.832  13.056   4.058 -0.0850 -0.1601  0.0110
 4597W        W20731  17.187   8.466   1.165 -0.0721 -0.1578  0.1466
 4598W        W20732   1.725  11.779  16.382 -0.0416 -0.2533 -0.0451
 4599W        W20733  11.077   2.981  13.247 -0.0239 -0.1886  0.2006
 4600W        W20734   6.604   8.765   0.744 -0.2362  0.1625  0.1266
 4601W        W20735  15.061   1.484  11.977 -0.2603 -0.2035 -0.0116
 4602W        W20736  14.361   9.696   1.739  0.2855  0.2571 -0.1674
 4603W        W20737   4.201   4.959   2.422  0.1255 -0.0274  0.2567
 4604W        W20738  15.565   0.182   3.172 -0.1288  0.1944 -0.1040
 4605W        W20739   0.617   5.009   1.689  0.1014 -0.1396  0.0518
 4606W        W20740   0.837   5.216  14.257  0.3274 -0.1604  0.0340
 4607W        W20741   0.706   9.219  13.022 -0.3970  0.0014 -0.0271
 4608W        W20742   4.663   9.175  12.438 -0.0671 -0.1829  0.0375
 4609W        W20743   9.449  13.003   3.323  0.0926 -0.1649 -0.0086
 4610W        W20744   1.736  15.722   3.798  0.1299  0.2941 -0.1084
 4611W        W20745  17.867   4.403  12.735  0.2907 -0.1859 -0.0264
 4612W        W20746  14.661  14.338  16.236 -0.1605 -0.2918 -0.2227
 4613W        W20747  16.417   1.613   5.595  0.0129  0.3861  0.0135
 4614W        W20748   1.565   4.566  14.837 -0.4214  0.0409 -0.1567
 4615W        W20749   5.853   2.889  15.947 -0.1663  0.1268  0.0521
 4616W        W20750   9.737   9.139   6.378 -0.0547 -0.0616  0.1016
 4617W        W20751   9.552   7.284   2.662  0.1968  0.0705 -0.0407
 4618W        W20752   5.239   4.145   4.891  0.0854 -0.2191  0.2082
 4619W        W20753   2.837  16.750   1.448 -0.2816 -0.0803  0.3626
 4620W        W20754  11.674   7.157   5.274  0.2093  0.0609  0.1483
 4621W        W20755   5.882  13.843  10.127  0.3446 -0.2434 -0.4086
 4622W        W20756   0.727  17.531  13.767  0.2838 -0.1358  0.0520
 4623W        W20757   3.777  11.279  16.044  0.0808  0.0620  0.1528
 4624W        W20758   7.103  16.066  15.211 -0.2185 -0.3321  0.0365
 4625W        W20759   6.041  12.931   3.873 -0.1812  0.1198 -0.1538
 4626W        W20760   0.607  15.925  12.404  0.3002 -0.1074 -0.2987
 4627W        W20761  11.651   2.599  14.168 -0.0843 -0.1211  0.3750
 4628W        W20762   3.831   8.982  12.531 -0.0920  0.5318  0.1981
 4629W        W20763  17.569   7.318  15.816  0.0807  0.0869 -0.1794
 4630W        W20764   5.556   0.349  11.626  0.2180  0.0591  0.1822
 4631W        W20765   9.314   9.538  15.691  0.1553  0.1367  0.0746
 4632W        W20766  17.268  14.075  13.236  0.0831 -0.1848 -0.0191
 4633W        W20767  11.570  14.165   0.807 -0.2572 -0.0340 -0.1264
 4634W        W20768  10.063   9.793  12.611 -0.0807  0.0379  0.1165
 4635W        W20769  18.054   8.464   1.821  0.0139  0.1604 -0.0179
 4636W        W20770   8.668  17.428   0.694  0.0012  0.1546  0.1335
 4637W        W20771  17.639  17.788  14.918  0.0743  0.1438  0.1884
 4638W        W20772  16.028   9.455   3.474  0.1022  0.1820  0.0277
 4639W        W20773   6.418   1.888  15.438 -0.0154  0.2106 -0.1024
 4640W        W20774  17.859   5.460   4.369  0.0372 -0.1570 -0.0841
 4641W        W20775   4.986  12.450   4.278  0.0594 -0.0306  0.0980
 4642W        W20776  16.769   8.811  15.860  0.0251 -0.3694 -0.4680
 4643W        W20777  10.346   4.372  16.128 -0.0154  0.2274  0.2207
 4644W        W20778  17.127   9.818  10.752 -0.2370  0.1041 -0.1405
 4645W        W20779  17.460  14.341  15.118 -0.2911 -0.2940  0.0003
 4646W        W20780  12.221   3.800  13.463 -0.0305  0.0216  0.1291
 4647W        W20781   2.127   4.455   1.728  0.0834 -0.0218 -0.1700
 4648W        W20782   8.477  16.943  11.480 -0.2199  0.2781  0.1484
 4649W        W20783  12.717   7.883  12.782  0.0477  0.2273 -0.1427
 4650W        W20784   6.381  15.180   3.907 -0.1908 -0.1834  0.2555
 4651W        W20785  17.178  12.726   2.169  0.0148 -0.3338  0.1783
 4652W        W20786  16.312  10.686   3.595  0.0521 -0.1092 -0.1777
 4653W        W20787  17.156   4.518   1.595  0.0932 -0.0262  0.0989
 4654W        W20788  13.409  10.617  13.986 -0.2240 -0.1118 -0.0894
 4655W        W20789   6.446  15.039   1.681  0.1132  0.1682 -0.2179
 4656W        W20790   7.431   3.373  10.897  0.0276 -0.1809 -0.1652
 4657W        W20791   5.878   5.053   0.812 -0.1362 -0.0376 -0.0409
 4658W        W20792   3.824  11.687  16.339 -0.1557  0.1611  0.2278
 4659W        W20793  12.934   4.575   5.930 -0.1195  0.0251  0.4119
 4660W        W20794   2.388  14.929  15.126 -0.0726 -0.3934  0.1308
 4661W        W20795  15.220  15.846   0.462 -0.1894 -0.0358 -0.0953
 4662W        W20796   6.295   3.172  11.280 -0.0832 -0.1353 -0.0856
 4663W        W20797   3.760   2.126  15.693 -0.2705  0.1399  0.0012
 4664W        W20798   8.906  13.406   4.776  0.1926  0.1408  0.1386
 4665W        W20799  16.012   4.160  11.882 -0.0203  0.1924 -0.0598
 4666W        W20800  15.829   4.927   4.673 -0.0949  0.4100 -0.1437
 4667W        W20801  15.837  13.225   1.828  0.1933 -0.0278 -0.0409
 4668W        W20802  17.092   7.940  11.973 -0.1015  0.3052  0.1669
 4669W        W20803  17.110  16.580   2.740 -0.2026 -0.1514 -0.1735
 4670W        W20804   0.262   4.478  14.147  0.1117  0.0315 -0.0482
 4671W        W20805  11.066   1.946  15.479 -0.0209 -0.1514 -0.0439
 4672W        W20806   2.314   1.643   2.155  0.4404  0.1809 -0.1312
 4673W        W20807   6.930  11.356   2.271  0.0585  0.0370  0.0441
 4674W        W20808   9.251  16.605  14.058 -0.2362  0.3158 -0.0410
 4675W        W20809  14.893  16.679   5.136  0.2810 -0.0569  0.0552
 4676W        W20810   6.066   4.131  11.607  0.0578 -0.0344 -0.0795
 4677W        W20811  11.573   5.850   3.340 -0.1518  0.3197  0.3211
 4678W        W20812  17.458  14.582   3.697 -0.2349 -0.0857 -0.2210
 4679W        W20813   6.607   7.501  12.897 -0.0622 -0.1031 -0.0453
 4680W        W20814   8.739   9.980  12.931  0.1841 -0.1184 -0.1495
 4681W        W20815  15.831   5.286   0.569 -0.3495 -0.1463 -0.2005
 4682W        W20816   1.590   8.052   3.656 -0.0417 -0.1421  0.0165
 4683W        W20817   2.002   0.957   2.865  0.2484  0.1429  0.0941
 4684W        W20818   1.256   6.259  10.143 -0.0607  0.0680  0.0513
 4685W        W20819  15.342   9.568   1.637 -0.1902  0.1683  0.2275
 4686W        W20820   3.120  16.280  14.088  0.2049  0.0476 -0.1157
 4687W        W20821  15.094   1.507  13.723  0.1576 -0.0881 -0.0118
 4688W        W20822  14.514  13.910   1.206  0.0413 -0.0748 -0.0314
 4689W        W20823  14.656   5.552  15.516  0.3070  0.0961  0.0248
 4690W        W20824  11.565   1.523   5.780  0.5445  0.0787  0.0498
 4691W        W20825  11.238   9.885   5.818  0.0816 -0.1280 -0.0761
 4692W        W20826  11.245   6.063   4.555  0.1703  0.4085  0.1701
 4693W        W20827  14.121   5.567   4.117  0.2159  0.0881 -0.1429
 4694W        W20828  12.258   5.729  11.609  0.1639 -0.1246  0.1764
 4695W        W20829  13.917   9.978  13.147 -0.0320 -0.2233  0.0879
 4696W        W20830  10.944  11.903   5.396 -0.1968  0.2418 -0.0117
 4697W        W20831   5.668   9.039   2.195 -0.2236 -0.1493  0.2893
 4698W        W20832  13.837   1.280   3.552 -0.0435  0.0639 -0.2879
 4699W        W20833  14.661   4.149   4.403 -0.4491 -0.2793  0.1163
 4700W        W20834   9.263  11.154  12.565  0.2359  0.0449 -0.1911
 4701W        W20835   0.678  13.920  15.405 -0.1230  0.0032  0.0961
 4702W        W20836  14.000   8.242   0.488 -0.2334  0.1304 -0.2086
 4703W        W20837   2.605   8.545   5.652 -0.2062 -0.0100 -0.0657
 4704W        W20838   1.860  12.793   4.306  0.0322 -0.1540 -0.0523
 4705W        W20839   4.911   7.779  12.624 -0.2752 -0.0462 -0.1656
 4706W        W20840   3.005  13.397   4.115  0.4443  0.2192  0.0173
 4707W        W20841   1.740   5.186  13.122 -0.2212  0.4323  0.1209
 4708W        W20842   0.476   5.948  14.291 -0.0243  0.1830  0.0930
 4709W        W20843   2.750   7.044  12.718 -0.1438  0.1542 -0.0259
 4710W        W20844   5.979   4.944  16.091  0.0074 -0.0403  0.0688
 4711W        W20845  12.644   1.698   1.031  0.0241 -0.1491  0.2313
 4712W        W20846  13.878  18.043   1.681 -0.0411  0.1877  0.1395
 4713W        W20847   9.468  17.705   1.153  0.1981  0.1080 -0.1972
 4714W        W20848   0.350   4.981  14.098  0.0366 -0.5727  0.1562
 4715W        W20849  10.372   5.993   0.188 -0.1755  0.3335  0.2855
 4716W        W20850  17.572   3.636   4.576 -0.0526 -0.0681 -0.0330
 4717W        W20851   7.801   3.015  13.110  0.3025  0.0608  0.0758
 4718W        W20852  12.409   4.574  15.122  0.0703 -0.2493 -0.3754
 4719W        W20853   2.758   0.168  12.614  0.0418  0.0715  0.1890
 4720W        W20854   0.132  14.675   2.834 -0.0728  0.2579 -0.2728
 4721W        W20855   6.928  10.217  12.066 -0.0619  0.1344  0.2279
 4722W        W20856   0.195  13.487   1.633  0.2240 -0.2662  0.0995
 4723W        W20857  14.105  16.218  14.660  0.1848  0.0596  0.1322
 4724W        W20858  13.222  16.628  15.761  0.0704 -0.1559 -0.0369
 4725W        W20859  11.399   5.812   2.315  0.1884 -0.2484 -0.5117
 4726W        W20860   1.042   5.803  13.109  0.1343 -0.0358 -0.1610
 4727W        W20861   3.483  14.433  13.683  0.0561 -0.0490  0.1349
 4728W        W20862  14.637  13.826  15.346 -0.2393  0.0594  0.0153
 4729W        W20863  16.566   1.451   3.117  0.1493 -0.2755 -0.1929
 4730W        W20864   9.686   2.405  12.641  0.0661 -0.2413  0.0178
 4731W        W20865   6.184  15.584  11.957  0.1764 -0.0628  0.1676
 4732W        W20866  11.736  10.848   4.922 -0.0686 -0.3087  0.0614
 4733W        W20867   2.022  14.282   5.977 -0.0688 -0.0407  0.1720
 4734W        W20868   7.744   1.898   0.485 -0.1698 -0.0038  0.4043
 4735W        W20869   3.241   5.527   0.433 -0.0482 -0.0425  0.1682
 4736W        W20870   7.694  10.498  13.725  0.0528 -0.2113 -0.2014
 4737W        W20871  17.973  11.435  16.344  0.0491  0.2979  0.0409
 4738W        W20872  10.009  17.080  14.840  0.0100 -0.0638  0.2045
 4739W        W20873   2.644   3.406   4.651  0.1203 -0.1365  0.2240
 4740W        W20874   9.683   2.229   1.246  0.0398  0.0205 -0.1217
 4741W        W20875  16.786   3.006  13.134 -0.0256  0.1608  0.2012
 4742W        W20876   9.455   9.199  11.937  0.1849  0.0024  0.0267
 4743W        W20877  15.854  15.240  12.278  0.0882  0.3021 -0.3217
 4744W        W20878  15.172  16.799  15.333  0.0117 -0.0429  0.1127
 4745W        W20879   3.904   8.269   2.563  0.0055  0.3128  0.0101
 4746W        W20880   1.635   1.687   6.211 -0.0814  0.0555 -0.0173
 4747W        W20881   1.853   4.842   6.159  0.1661 -0.1929  0.0175
 4748W        W20882   1.585  14.560  11.964 -0.1685  0.0073 -0.4268
 4749W        W20883   5.878  15.073  15.614  0.2480 -0.4612  0.1322
 4750W        W20884  16.582  12.347   3.004 -0.0272 -0.0447 -0.0976
 4751W        W20885   5.407   3.680   2.588  0.1164 -0.0702  0.0477
 4752W        W20886  13.380  11.081   4.550  0.3968  0.0954 -0.0748
 4753W        W20887  11.524   3.194   2.490 -0.1429  0.0222  0.1747
 4754W        W20888   1.092  17.205  11.222 -0.2334  0.2090  0.1106
 4755W        W20889   1.702   1.810  14.960 -0.1163 -0.0434  0.1418
 4756W        W20890   4.143   4.607  16.387  0.0888 -0.1141  0.0534
 4757W        W20891   8.561   2.447  16.041 -0.0000 -0.1453 -0.0188
 4758W        W20892  11.095   5.149   0.243  0.1450 -0.1396  0.0028
 4759W        W20893   3.480   1.227  11.629  0.2067  0.1937  0.0585
 4760W        W20894   9.494   5.762   5.326  0.1006 -0.2447  0.2795
 4761W        W20895   3.047  15.054   2.286  0.1053 -0.0520 -0.1643
 4762W        W20896  15.512   4.517   1.202  0.5366 -0.1248  0.2185
 4763W        W20897  15.754   7.435  15.434  0.1311 -0.0557  0.2610
 4764W        W20898  10.017  14.950   5.801 -0.1432 -0.2728 -0.0590
 4765W        W20899   9.084   0.435  13.592 -0.0946 -0.2119  0.1447
 4766W        W20900  14.978   8.889   0.399  0.1370  0.1623  0.3980
 4767W        W20901  12.031   1.310   4.763  0.2244  0.2184 -0.2026
 4768W        W20902  14.133   7.690  13.007 -0.2008  0.2113  0.2895
 4769W        W20903  14.860  10.309  11.317 -0.0469 -0.1901  0.1356
 4770W        W20904  17.807  16.715   0.095 -0.1231  0.1130  0.3588
 4771W        W20905  17.749  12.326  13.902  0.1642  0.0922  0.0530
 4772W        W20906   1.109   0.444  11.288  0.1207  0.1778  0.0747
 4773W        W20907   8.694   7.423   3.944  0.1642 -0.0096 -0.1133
 4774W        W20908   7.524   1.101   2.113 -0.1977 -0.0547  0.0937
 4775W        W20909  13.047   0.123   0.143 -0.1540  0.3203 -0.0597
 4776W        W20910  12.333  15.578   2.338 -0.0329 -0.2657  0.1237
 4777W        W20911   0.949  13.175   2.597  0.1782 -0.2069  0.1665
 4778W        W20912  13.680  12.780   2.898  0.2945 -0.1031  0.2087
 4779W        W20913  17.172   6.071  12.940 -0.2947  0.1882 -0.0101
 4780W        W20914  11.389  16.983   4.353 -0.1293 -0.0905 -0.0375
 4781W        W20915   4.005   2.823   1.589  0.2131 -0.0040 -0.0980
 4782W        W20916   6.273   4.048  11.148  0.0947 -0.1674 -0.1238
 4783W        W20917  17.916  15.847  12.750  0.0594 -0.0129  0.2814
 4784W        W20918  14.234  10.027  12.713  0.1744 -0.1727  0.0815
 4785W        W20919  11.541  12.971   0.667  0.1601  0.1058 -0.2346
 4786W        W20920   5.117   2.801  13.409  0.1306 -0.1220  0.1080
 4787W        W20921  12.456  10.855  13.274 -0.1310  0.1707  0.0050
 4788W        W20922   4.586  11.664  15.930 -0.2643 -0.0627 -0.1278
 4789W        W20923  17.736   8.784  12.735 -0.1204  0.1825 -0.1340
 4790W        W20924   7.047   4.549   0.573 -0.1937  0.0262 -0.0194
 4791W        W20925   2.855  16.081   2.540  0.4812 -0.1204 -0.0680
 4792W        W20926   4.265  15.492   1.822 -0.0500 -0.0771 -0.1547
 4793W        W20927  11.463   8.721   1.204  0.1666  0.0950  0.3439
 4794W        W20928   2.372   3.740   2.044  0.1221 -0.2156 -0.3043
 4795W        W20929  13.951   3.204   0.400  0.0830  0.0765 -0.0289
 4796W        W20930   2.531   8.174   3.987  0.1011  0.2164  0.1895
 4797W        W20931  11.240   7.133   2.535  0.0159 -0.0939 -0.1442
 4798W        W20932   1.244  17.541   0.882 -0.0196 -0.0040 -0.0940
 4799W        W20933   0.854   8.630  10.024 -0.1000  0.0016 -0.0202
 4800W        W20934   6.448   2.241  15.012  0.1573 -0.4299 -0.1133
 4801W        W20935  11.639   7.580   3.815  0.1058  0.3437  0.0384
 4802W        W20936   1.688   3.951  11.619 -0.2739 -0.1826 -0.1196
 4803W        W20937   0.565   3.275  15.404 -0.1680 -0.0081  0.1483
 4804W        W20938   5.863  11.397   3.190 -0.0663 -0.2778 -0.0150
 4805W        W20939  10.515   1.136  14.756  0.2050  0.2434  0.0539
 4806W        W20940   1.721  11.956   3.890 -0.1877  0.0564 -0.3329
 4807W        W20941   8.673   4.946   4.223  0.0337 -0.1204  0.0785
 4808W        W20942  17.440   1.031  11.579  0.1314  0.0128 -0.1369
 4809W        W20943   6.686   4.111  15.046 -0.0612 -0.3880 -0.0172
 4810W        W20944   1.517  11.635  14.336  0.2611  0.2154  0.1086
 4811W        W20945   3.715   8.245   2.070  0.2855 -0.0840  0.0692
 4812W        W20946   8.475   4.193   5.187 -0.1223 -0.2188  0.1267
 4813W        W20947  10.532   3.272   0.628  0.3072  0.0662 -0.1113
 4814W        W20948   7.932  15.139   3.076 -0.1585  0.0295 -0.0574
 4815W        W20949   4.159  13.169   5.488  0.1314  0.1161  0.4630
 4816W        W20950   3.842   2.240   2.538  0.2118  0.0864  0.0508
 4817W        W20951  13.397   7.113   2.358 -0.1362 -0.2533  0.1925
 4818W        W20952  11.135   2.227  15.032 -0.1147  0.2512 -0.3109
 4819W        W20953   7.325   6.591  12.559  0.0242  0.0136  0.1415
 4820W        W20954  14.339   6.743   2.761  0.1263  0.3299  0.1091
 4821W        W20955  15.735  15.565   3.330  0.2385  0.1714 -0.0014
 4822W        W20956   7.538   5.589  14.999 -0.3117 -0.1029  0.0053
 4823W        W20957  13.879  10.848  13.951 -0.2061 -0.2597  0.0689
 4824W        W20958  15.944   5.748  16.107 -0.2493 -0.1199 -0.1308
 4825W        W20959   4.480  12.285   4.949  0.0315 -0.1775  0.0080
 4826W        W20960   4.668   1.472  11.406  0.2332  0.4126  0.1031
 4827W        W20961  13.833   3.984  13.885  0.1232 -0.2372 -0.0273
 4828W        W20962   4.739  12.652   5.160  0.0506  0.2576  0.1343
 4829W        W20963  11.532   7.594   1.498 -0.1478  0.0674  0.1635
 4830W        W20964  17.408  14.327   1.487  0.1376 -0.1128 -0.0127
 4831W        W20965   2.013   6.914  12.986 -0.0587  0.1130  0.0291
 4832W        W20966  13.421   6.716   3.221  0.0134 -0.0251  0.0257
 4833W        W20967  10.857  12.002   2.950 -0.2908  0.2044  0.2044
 4834W        W20968  15.901  12.768   2.683 -0.0091  0.1957 -0.0319
 4835W        W20969  12.481   2.589   2.973  0.1947  0.1208  0.1298
 4836W        W20970  10.466   7.083   4.524 -0.0108  0.3125  0.0026
 4837W        W20971   3.198   2.736   0.252  0.2665  0.0156  0.1741
 4838W        W20972   0.607   0.299   3.430 -0.1191 -0.2334  0.0658
 4839W        W20973  14.496   7.674   1.941  0.0202  0.1899 -0.1201
 4840W        W20974   3.224   1.490   4.906 -0.1760 -0.1214 -0.3436
 4841W        W20975   3.070   2.877   3.858  0.2088  0.0186 -0.0124
 4842W        W20976  10.772  10.470   1.113 -0.1664  0.0264 -0.3077
 4843W        W20977   9.601  16.088   5.213  0.1557 -0.1029  0.2763
 4844W        W20978  12.308  16.676  14.028 -0.1611  0.0878  0.0472
 4845W        W20979  17.158   9.546   1.924  0.1371  0.0745  0.1454
 4846W        W20980  12.198  15.401  12.338 -0.2742 -0.1708 -0.1725
 4847W        W20981   6.799   6.732   4.641 -0.0641 -0.0661 -0.3493
 4848W        W20982   2.823  17.486  15.671  0.1563 -0.1273 -0.1049
 4849W        W20983   6.741   6.760  16.164  0.0674  0.1993  0.3009
 4850W        W20984  15.138   1.193   1.462  0.0101  0.1256  0.1857
 4851W        W20985   1.635   2.889  15.676 -0.2896 -0.0961 -0.1622
 4852W        W20986   8.886  15.441  16.329  0.1461 -0.1835  0.1204
 4853W        W20987  15.624   5.886   3.105  0.1820  0.0690 -0.0948
 4854W        W20988   3.891   9.070  13.567 -0.2105  0.0944 -0.1525
 4855W        W20989   9.977  10.329   3.281 -0.0462 -0.3013 -0.0513
 4856W        W20990  13.824  17.241  15.170  0.1241  0.0510  0.0654
 4857W        W20991   2.601   1.627  14.222 -0.4004  0.2478  0.1283
 4858W        W20992   2.093   8.464   4.252 -0.0997  0.4426 -0.0034
 4859W        W20993   0.476   8.772   0.028 -0.1138 -0.1958  0.1565
 4860W        W20994   2.272   3.361  11.306  0.1672 -0.1543  0.1083
 4861W        W20995  17.807   6.513  14.618 -0.0339  0.0353  0.1499
 4862W        W20996   4.288  14.111   0.692  0.1078 -0.0467 -0.0153
 4863W        W20997   9.199  12.431  16.348  0.0204 -0.0499 -0.0620
 4864W        W20998   5.092  15.229   3.446  0.0445  0.0591 -0.0044
 4865W        W20999  14.790  15.446   0.990  0.0353 -0.3590 -0.0985
 4866W        W21000  14.817   0.024   5.101  0.0292 -0.1000 -0.0916
 4867W        W21001   5.199   0.305  14.337  0.3030 -0.1827  0.1178
 4868W        W21002  10.481  12.644   4.898 -0.0851 -0.0022 -0.0671
 4869W        W21003  12.115   7.951  13.257 -0.1723  0.0644 -0.0459
 4870W        W21004   6.078   7.616   4.774  0.0658 -0.1773 -0.0077
 4871W        W21005  17.031   7.274   2.341  0.2577 -0.0613 -0.0736
 4872W        W21006  15.311   9.427  11.085 -0.2007 -0.1022 -0.2712
 4873W        W21007   0.318  11.589   5.368  0.4681  0.1686 -0.2721
 4874W        W21008  14.645  14.468   1.079 -0.0664 -0.2902 -0.0856
 4875W        W21009  12.821   5.105   0.735 -0.1188 -0.0709  0.1300
 4876W        W21010   2.936   4.632  12.713 -0.2601 -0.0574  0.0188
 4877W        W21011   5.303  16.999   6.375 -0.3995 -0.0701 -0.0843
 4878W        W21012  10.589   3.251   4.772 -0.4535  0.2862  0.2148
 4879W        W21013   3.457   5.878   0.798  0.2199 -0.0367  0.1743
 4880W        W21014   2.895  13.155   3.555  0.1318  0.0565  0.0025
 4881W        W21015   7.723  12.127  14.616  0.1436  0.0497 -0.1647
 4882W        W21016   2.023  15.160  13.266 -0.1754 -0.3440 -0.2009
 4883W        W21017   3.739   0.721   3.380 -0.0944 -0.2368  0.1625
 4884W        W21018   1.136   1.051   4.411  0.0060 -0.2810 -0.2744
 4885W        W21019  17.748  11.311   0.886 -0.1651 -0.0240 -0.0795
 4886W        W21020  12.174   3.131   1.830  0.1342  0.2614  0.0254
 4887W        W21021   7.833   9.449  13.874 -0.1570  0.1191  0.0263
 4888W        W21022   0.041   2.960  11.827 -0.0952 -0.0725 -0.1212
 4889W        W21023  14.802  11.906  14.311 -0.1360 -0.1135  0.0742
 4890W        W21024   3.477  12.074   0.709 -0.0904 -0.3108  0.4147
 4891W        W21025   5.120  10.887   2.831 -0.0984 -0.0307 -0.1082
 4892W        W21026   9.752  16.695  15.820 -0.0106  0.0334 -0.0909
 4893W        W21027  17.684  10.851  15.712  0.0991  0.0703 -0.0484
 4894W        W21028  10.130   7.240  12.338 -0.2185 -0.0142 -0.3193
 4895W        W21029   7.183   0.953  11.339  0.1845 -0.1793  0.4369
 4896W        W21030   2.477  15.872  12.792 -0.1453  0.0543  0.3104
 4897W        W21031  14.318   6.812   1.835  0.4148  0.1778  0.0151
 4898W        W21032   5.655   2.405   4.439  0.0236 -0.1844  0.0167
 4899W        W21033  14.854   3.719  11.888 -0.0323 -0.3205 -0.2281
 4900W        W21034  13.661   0.014  15.355 -0.0825 -0.3454  0.0781
 4901W        W21035   5.240   9.478   1.202  0.3405 -0.0020 -0.4807
 4902W        W21036   9.202   1.308  12.382 -0.0564 -0.1542  0.0042
 4903W        W21037  15.213   0.832  15.361  0.0857 -0.0702  0.0831
 4904W        W21038  17.731  13.046   1.202 -0.1385  0.0712  0.1396
 4905W        W21039   1.795   8.751   4.849 -0.1263  0.0514  0.1960
 4906W        W21040  13.216  12.777   2.795  0.0263 -0.0938  0.1008
 4907W        W21041  15.765  17.918  15.628 -0.2287  0.0091 -0.0935
 4908W        W21042   4.943   0.817   0.527 -0.0269  0.0487  0.0277
 4909W        W21043   1.143   8.521  12.737  0.0541 -0.2758 -0.0839
 4910W        W21044   5.660   9.529   2.846 -0.0537  0.2840  0.1251
 4911W        W21045   8.585   2.687  12.706 -0.4754 -0.2317 -0.4944
 4912W        W21046  13.011  16.078  14.616 -0.1499 -0.0551  0.1848
 4913W        W21047  17.018  13.993  14.948  0.0579  0.1864 -0.0908
 4914W        W21048  10.897   4.050  10.149 -0.0525 -0.1294 -0.0247
 4915W        W21049  13.418  16.922  12.910  0.0269 -0.1777  0.1718
 4916W        W21050  11.895   0.118  12.306  0.1832 -0.1863  0.0653
 4917W        W21051   8.057   9.297  12.479 -0.4405 -0.0615  0.0147
 4918W        W21052  13.660   6.718  10.707  0.0937  0.0067  0.1250
 4919W        W21053  15.810  16.783  13.449 -0.1215 -0.2393 -0.1901
 4920W        W21054  12.785   4.594  12.429  0.0814  0.0406  0.1125
 4921W        W21055   5.837   1.986  14.505  0.2100  0.0832 -0.0423
 4922W        W21056  14.840  14.715  14.838 -0.1551  0.2630  0.0702
 4923W        W21057   5.111   6.587   1.724 -0.0096  0.2842 -0.0639
 4924W        W21058  17.603   9.797  16.323  0.1584 -0.1246  0.0987
 4925W        W21059   5.395   9.096   2.695 -0.1903  0.2767  0.0309
 4926W        W21060  12.831   2.903   2.720 -0.3469  0.2653  0.0355
 4927W        W21061   2.963   1.355   2.877 -0.1349 -0.2695 -0.0025
 4928W        W21062  11.085   7.839   5.037 -0.0762 -0.0006  0.2783
 4929W        W21063  15.926   5.393   3.133  0.0155 -0.1628 -0.1288
 4930W        W21064   2.069  11.596  14.159 -0.1283  0.1503  0.2957
 4931W        W21065   6.625  15.966   4.433 -0.1170  0.0469 -0.0916
 4932W        W21066  12.541   8.709   5.032 -0.3519  0.0258 -0.1055
 4933W        W21067  11.225   4.319  14.288 -0.0463 -0.0435 -0.1117
 4934W        W21068  15.643  10.164  13.574  0.1383  0.0724 -0.0313
 4935W        W21069  16.367  10.537  11.242 -0.2550 -0.4471 -0.0463
 4936W        W21070   3.843   3.942  16.072 -0.0053 -0.0280  0.0839
 4937W        W21071  13.393   5.402  13.770 -0.0399 -0.1491  0.1093
 4938W        W21072   2.036   1.917   3.585 -0.1035 -0.2841 -0.1472
 4939W        W21073   2.716   4.558   4.806 -0.0164 -0.0689 -0.0185
 4940W        W21074  15.481  10.186   6.246  0.1818 -0.0652 -0.0860
 4941W        W21075  16.489  15.543   4.754  0.4012  0.1037 -0.1891
 4942W        W21076  14.311   0.411   3.856 -0.1131 -0.3599  0.1411
 4943W        W21077  16.823  12.738   3.267  0.0006 -0.0704 -0.0533
 4944W        W21078   1.524  16.665   2.007  0.0304 -0.1317  0.2923
 4945W        W21079  17.391   2.165   2.892 -0.1165 -0.0545 -0.0912
 4946W        W21080   9.144   0.956  11.696 -0.0921  0.0302 -0.3792
 4947W        W21081   0.936   4.632   1.575 -0.0883  0.1920  0.1834
 4948W        W21082  16.102  11.939   2.261 -0.1383  0.1905  0.0895
 4949W        W21083   2.926   7.421   0.197  0.1211  0.3906  0.1609
 4950W        W21084   0.604  16.539   4.413 -0.0191 -0.3490 -0.1304
 4951W        W21085   8.512  11.691   4.724  0.2333 -0.1490 -0.0644
 4952W        W21086  14.634   4.705   2.885  0.0450 -0.1230  0.2655
 4953W        W21087  16.929  10.870   5.685  0.0778 -0.1863  0.1611
 4954W        W21088  14.269   0.622  12.013 -0.3408 -0.2363  0.0150
 4955W        W21089   2.022  10.960  13.373 -0.1589  0.0433 -0.2507
 4956W        W21090  10.739  13.299  15.765 -0.0821  0.2509 -0.0630
 4957W        W21091   6.565   4.648  14.375 -0.1300  0.3821 -0.0766
 4958W        W21092  13.672  17.718   4.573 -0.0345  0.0581 -0.0962
 4959W        W21093   3.761  10.126  14.539 -0.3307  0.1690  0.1149
 4960W        W21094   4.150  15.039  14.801  0.0454  0.0069  0.0851
 4961W        W21095   1.613  14.115   1.905  0.1206 -0.1210 -0.0969
 4962W        W21096  13.017   0.110  14.585 -0.1335  0.1701  0.0385
 4963W        W21097  14.300   1.970  12.953 -0.0562  0.0058 -0.0349
 4964W        W21098   2.735  11.938  13.607  0.0443  0.0467  0.1215
 4965W        W21099  14.703   3.094  16.270  0.1977 -0.1244 -0.0521
 4966W        W21100   8.527  15.703   0.846  0.2135  0.0018  0.2384
 4967W        W21101  18.066  17.062   4.053  0.0411  0.2775  0.2206
 4968W        W21102   7.192  10.735  13.783  0.1594 -0.1120  0.1136
 4969W        W21103   6.973   6.470  11.841 -0.1902 -0.1961 -0.2969
 4970W        W21104  12.144   9.885  14.895 -0.0737 -0.3598 -0.2055
 4971W        W21105  10.767   8.959  13.662 -0.0678 -0.1087 -0.0215
 4972W        W21106   4.872  17.074  11.321  0.0893 -0.1117  0.1326
 4973W        W21107   9.798  10.186   1.913  0.1233  0.1735 -0.2551
 4974W        W21108   2.234  10.656   3.726 -0.1567  0.1700 -0.1168
 4975W        W21109   8.118   8.421  13.258 -0.1306 -0.2337  0.2641
 4976W        W21110  12.222   9.829   1.130 -0.1337  0.1633  0.1074
 4977W        W21111  10.049   1.141  11.503  0.1965  0.2936  0.4233
 4978W        W21112   7.047   1.389  11.213 -0.0656 -0.3800  0.3275
 4979W        W21113   4.201   5.256   2.899  0.0484  0.2821  0.0628
 4980W        W21114   9.056   2.507  16.226 -0.2191  0.0457 -0.0183
 4981W        W21115   0.610   1.806   4.879 -0.0877  0.4406 -0.1228
 4982W        W21116  14.986  16.295  16.197 -0.2160  0.0730  0.1384
 4983W        W21117   1.924   1.530   4.386 -0.0525  0.3230  0.0634
 4984W        W21118  15.142  13.562   2.934  0.0565  0.1280 -0.0704
 4985W        W21119  17.430   6.948  13.584 -0.1637  0.2682  0.0061
 4986W        W21120  13.079   3.771   4.357 -0.2796 -0.1162  0.2341
 4987W        W21121   6.559  17.357   1.797  0.0332 -0.1272  0.0151
 4988W        W21122  17.872  10.130  11.861  0.3248  0.3985 -0.0454
 4989W        W21123   9.883   4.817   3.237 -0.4026 -0.0260 -0.3060
 4990W        W21124   3.060  14.937  13.143 -0.4139  0.4390  0.1561
 4991W        W21125   8.195   5.706   0.838  0.0265  0.3452 -0.0306
 4992W        W21126   6.602   8.260  12.176  0.3869  0.1804 -0.0474
 4993W        W21127   3.975  15.627   0.200 -0.2351 -0.2986 -0.1217
 4994W        W21128   6.846   9.077   6.093 -0.1737  0.1149  0.0614
 4995W        W21129   2.201   4.756   2.212 -0.0479  0.1485  0.0067
 4996W        W21130   5.226   7.698   5.189  0.1575 -0.2401 -0.2996
 4997W        W21131   3.316  14.150   5.370 -0.1713  0.1337 -0.2034
 4998W        W21132   4.645  13.025  15.680  0.1610  0.1667 -0.1633
 4999W        W21133  11.317  15.641  15.214 -0.0187  0.2102 -0.0940
 5000W        W21134  11.507   9.685   5.445 -0.1630  0.0071  0.2429
 5001W        W21135   6.876   8.227  16.008 -0.2321  0.0691  0.3548
 5002W        W21136   0.537   3.897   2.091  0.1860 -0.1011 -0.0760
 5003W        W21137   4.722   9.196   4.843  0.0141 -0.3434  0.1826
 5004W        W21138   6.258   9.857  16.165 -0.0594  0.0642 -0.0129
 5005W        W21139   9.900   3.948  14.204 -0.0675  0.1081 -0.1321
 5006W        W21140  13.146  10.634   3.862 -0.1385  0.1465  0.2052
 5007W        W21141   1.295   3.496  14.555 -0.1200  0.0606 -0.2679
 5008W        W21142  13.795  17.467   1.515  0.2024 -0.0008  0.0430
 5009W        W21143  15.310   0.540   3.388 -0.1653 -0.0095 -0.0920
 5010W        W21144  11.958  14.255  13.040 -0.2089 -0.2204 -0.2683
 5011W        W21145   6.867   4.297  13.394 -0.3043 -0.0313 -0.0390
 5012W        W21146  10.961   3.350   2.623 -0.2091  0.3112 -0.0844
 5013W        W21147   3.116   3.914  13.334  0.0104  0.1814  0.0891
 5014W        W21148  12.327  15.598   0.883 -0.4134 -0.1325 -0.2472
 5015W        W21149  10.049   1.132   3.392 -0.0275 -0.4007  0.3573
 5016W        W21150   4.044   1.590  12.537  0.0012  0.0110 -0.6134
 5017W        W21151   6.153  15.884   2.329  0.0403  0.0954 -0.0838
 5018W        W21152  12.256  16.488  12.388 -0.0619 -0.1597 -0.0041
 5019W        W21153  14.761  11.043   2.944  0.0590 -0.1588 -0.1233
 5020W        W21154  12.857  15.212  13.963 -0.1956 -0.1486 -0.1603
 5021W        W21155   3.504  11.148  11.360  0.0700  0.0391 -0.3084
 5022W        W21156   5.557  13.291   3.995 -0.2346 -0.0651  0.2701
 5023W        W21157  10.060   2.765   3.741  0.2091  0.0633  0.0040
 5024W        W21158  14.944  10.737  12.583 -0.0107  0.0156  0.4167
 5025W        W21159   7.471  15.532   2.276 -0.2820 -0.1683 -0.0178
 5026W        W21160   7.267  17.581   0.398  0.0952  0.2070 -0.0366
 5027W        W21161  16.562   1.143  16.371 -0.0377  0.0042 -0.0352
 5028W        W21162   5.975  12.968  12.862  0.0139  0.1655  0.0717
 5029W        W21163   3.473  11.678   4.661  0.1659  0.0544  0.1034
 5030W        W21164   1.489  16.206  15.883  0.1053 -0.0941  0.0032
 5031W        W21165   2.264   3.343   4.128  0.3232 -0.1930  0.0215
 5032W        W21166  17.197  16.882  16.015 -0.0453  0.2871 -0.3751
 5033W        W21167  10.725  16.266   2.793 -0.2243 -0.3685 -0.0771
 5034W        W21168  17.177   6.267  10.025 -0.2023  0.0813 -0.1113
 5035W        W21169   9.875   1.286   5.458 -0.0397  0.2554  0.1539
 5036W        W21170  15.683   4.397  13.964 -0.1844  0.1983  0.0894
 5037W        W21171  16.212   9.556   3.020 -0.0458 -0.1085  0.2565
 5038W        W21172   9.241   3.554   1.220 -0.1675  0.0553  0.1234
 5039W        W21173   9.030  13.143   3.510 -0.0329 -0.0778  0.2160
 5040W        W21174  17.408  10.497  14.173  0.0893  0.4079 -0.0029
 5041W        W21175  12.175  11.236   1.891 -0.1577 -0.1918 -0.0042
 5042W        W21176  17.302  10.194  11.566  0.1056  0.1020 -0.4211
 5043W        W21177   0.031   0.831  15.316  0.0606 -0.3080  0.1541
 5044W        W21178   5.325   3.861   5.280 -0.0396 -0.0471  0.3305
 5045W        W21179   1.418   2.342  13.493  0.0527 -0.1761 -0.2655
 5046W        W21180  16.162   6.852   4.392 -0.1716  0.2594 -0.0687
 5047W        W21181   9.804   0.144   1.269 -0.1369 -0.1660 -0.1510
 5048W        W21182  16.506  10.753   5.369 -0.1517 -0.2754  0.0338
 5049W        W21183   2.280   7.016  15.586 -0.2132  0.1938 -0.1428
 5050W        W21184   3.435  16.689  13.340 -0.1519  0.0297 -0.0681
 5051W        W21185   4.573  12.824  11.129 -0.2104  0.1995 -0.1051
 5052W        W21186  11.286   9.492   2.852 -0.0650  0.3139  0.0696
 5053W        W21187  12.603   6.184   2.184  0.2556  0.1351 -0.1002
 5054W        W21188   8.042  13.445  13.792  0.0967 -0.1465  0.1429
 5055W        W21189   3.258   4.535   4.520  0.0522  0.1974 -0.0613
 5056W        W21190   3.512   2.169   3.251  0.1452  0.1682 -0.2099
 5057W        W21191   3.073  15.896   4.668  0.0919  0.0192 -0.1122
 5058W        W21192  14.364   1.264  15.465 -0.1705 -0.0017  0.2757
 5059W        W21193   9.148   9.163   3.738 -0.1957  0.0243  0.0413
 5060W        W21194  14.556   2.485   5.395  0.0386  0.0382  0.0887
 5061W        W21195   8.860   6.985   3.349  0.0259 -0.0658  0.0167
 5062W        W21196  12.871   0.085  11.932 -0.0706  0.3858  0.1824
 5063W        W21197   7.596   8.017   0.268 -0.1340 -0.1442 -0.0339
 5064W        W21198  17.990   1.357  15.309  0.0590  0.0152  0.1684
 5065W        W21199   8.072   0.311   2.000 -0.1438  0.0159  0.0089
 5066W        W21200   9.847   9.213   5.824  0.0914 -0.2402 -0.1073
 5067W        W21201  12.987  13.806  16.359 -0.2551  0.0722 -0.0806
 5068W        W21202   5.196   7.616   0.311  0.1820 -0.1572  0.1804
 5069W        W21203  10.046   8.519   2.248 -0.2833 -0.0691 -0.0879
 5070W        W21204   9.622  10.865   3.986 -0.0631  0.2839  0.3339
 5071W        W21205   1.482  10.835   4.795 -0.1425 -0.0037 -0.1633
 5072W        W21206  16.441  14.311  15.672 -0.0739  0.1321  0.0266
 5073W        W21207  14.945  11.293   0.742 -0.1613  0.2617 -0.0314
 5074W        W21208   8.338   5.404  13.481 -0.1752 -0.4621 -0.0145
 5075W        W21209   3.087  14.584   0.062  0.1455 -0.0824 -0.0710
 5076W        W21210   6.269  18.085  12.061 -0.3527 -0.0683 -0.4699
 5077W        W21211  10.717   2.589  15.240 -0.0581  0.2964  0.1404
 5078W        W21212   4.530  14.378  14.320 -0.2619 -0.0323 -0.1599
 5079W        W21213   7.960  16.402  13.477 -0.3571 -0.0689 -0.1612
 5080W        W21214   3.451   5.804  14.906 -0.4242  0.2367 -0.0675
 5081W        W21215  14.951   0.603  14.416  0.1196 -0.3215 -0.0293
 5082W        W21216   1.940  12.621   2.157 -0.0658 -0.1745  0.1311
 5083W        W21217  16.503   0.403  15.386  0.0628  0.2051  0.0397
 5084W        W21218   5.575  11.235   2.787  0.3171 -0.0864  0.2363
 5085W        W21219   3.025   5.826   6.127  0.3256  0.0724  0.2044
 5086W        W21220  17.792   3.177  14.430  0.3297  0.1470 -0.3099
 5087W        W21221   0.571   7.293  16.137  0.2684 -0.2352 -0.0743
 5088W        W21222   9.805   3.139  11.625 -0.1008  0.0917 -0.3351
 5089W        W21223   9.877  14.716   3.606  0.1226  0.0208 -0.0352
 5090W        W21224   1.364   2.175  16.082 -0.1605 -0.0880 -0.1339
 5091W        W21225  17.459   7.105   2.649 -0.0322  0.2685  0.0713
 5092W        W21226  17.655  16.740  13.894 -0.0564 -0.0821 -0.3359
 5093W        W21227   8.391   9.427   4.054  0.1366 -0.1763  0.2725
 5094W        W21228   8.024   4.066   2.590  0.2340  0.0658 -0.0022
 5095W        W21229   6.764   5.909   1.986 -0.3156 -0.0279 -0.1406
 5096W        W21230  10.630   4.231  12.613 -0.0600 -0.2419 -0.0080
 5097W        W21231  17.310   3.232   4.793  0.0973  0.1712  0.0387
 5098W        W21232  17.008  14.478   0.232 -0.2760  0.1816  0.0490
 5099W        W21233  17.062   0.158  11.687 -0.2781 -0.2620  0.4286
 5100W        W21234   5.451   9.051  13.316 -0.0660 -0.2386 -0.0826
 5101W        W21235  17.506   5.311   2.007 -0.1044  0.0114 -0.0672
 5102W        W21236   1.572  15.880   1.265  0.0830  0.0236  0.1061
 5103W        W21237   7.522  11.622  10.367  0.0460 -0.0456  0.1206
 5104W        W21238   2.806   2.635   5.101 -0.3125  0.0792  0.0346
 5105W        W21239  13.294  15.258   3.004 -0.0192  0.1570  0.0038
 5106W        W21240  14.386  14.487  14.716  0.0104 -0.0963  0.0667
 5107W        W21241  13.896  18.010   5.523  0.3567 -0.1319  0.0063
 5108W        W21242  12.943   2.276   5.323 -0.0571  0.0239 -0.0257
 5109W        W21243   2.068  10.259  11.208 -0.1049 -0.1733 -0.3236
 5110W        W21244  15.012  15.131  14.737 -0.4776  0.2691  0.1756
 5111W        W21245   5.778   8.507  14.465 -0.0010 -0.0617  0.0265
 5112W        W21246   4.229  11.974   4.133 -0.0722 -0.0683  0.0327
 5113W        W21247  13.590  10.251  11.832 -0.0473 -0.0897  0.3157
 5114W        W21248   8.904  11.345   0.109 -0.0378 -0.0828  0.2713
 5115W        W21249  10.515  12.322  13.705  0.2088 -0.0757 -0.0800
 5116W        W21250   6.835   5.605   3.318  0.1427 -0.1906  0.1194
 5117W        W21251  10.936   0.643   3.574  0.4042  0.0133  0.1638
 5118W        W21252  14.648   7.239  13.511 -0.2505  0.0017  0.1485
 5119W        W21253   2.868  17.456   4.039 -0.1120 -0.1634  0.1739
 5120W        W21254   8.482  13.294  15.031  0.0938  0.1308 -0.1368
 5121W        W21255   9.468   8.924  15.755 -0.0869  0.1954  0.1200
 5122W        W21256   1.055  16.357   2.789 -0.0409 -0.1953  0.1261
 5123W        W21257   4.184   5.749   3.858  0.2143  0.0598 -0.1250
 5124W        W21258   4.512  12.372   4.407  0.2095 -0.3124 -0.0482
 5125W        W21259  14.281  16.968   2.218  0.0901 -0.2241 -0.1082
 5126W        W21260  13.156   8.586  15.604 -0.2846  0.2120 -0.1525
 5127W        W21261  11.746   8.242   4.528 -0.0409  0.1733 -0.3015
 5128W        W21262   7.409   2.468   2.183  0.3948 -0.1238  0.1176
 5129W        W21263  11.848   3.229   1.469  0.0100 -0.1947  0.0774
 5130W        W21264  13.607   2.976   2.313 -0.1651  0.1264  0.0748
 5131W        W21265  11.640  12.912  12.317  0.2126  0.0260 -0.0344
 5132W        W21266   5.729  15.457   0.282  0.1801 -0.1929  0.0442
 5133W        W21267  16.155   4.266   4.010 -0.1434  0.1984  0.0903
 5134W        W21268  12.346  10.961  15.908 -0.2320  0.1119  0.0966
 5135W        W21269  11.181  15.459  13.506  0.3035 -0.2856 -0.0558
 5136W        W21270  17.663   7.909  12.591 -0.0410  0.5764  0.0583
 5137W        W21271  10.752  14.215   9.740 -0.0148  0.0708 -0.1033
 5138W        W21272   9.492  12.526   5.369 -0.1584  0.1836 -0.3103
 5139W        W21273   4.049   4.580   4.601 -0.2076 -0.0544 -0.0982
 5140W        W21274   8.824   3.526   0.121  0.0499  0.1028  0.0878
 5141W        W21275   9.523   0.908  15.247  0.3698 -0.1810  0.0010
 5142W        W21276   1.293   8.130   0.753  0.0120  0.0028  0.0147
 5143W        W21277   5.156   7.237  11.934 -0.1161 -0.2172 -0.1053
 5144W        W21278  12.557  17.520  16.163  0.1104 -0.2797  0.0678
 5145W        W21279   8.446   7.069   0.108 -0.2845 -0.0644  0.2163
 5146W        W21280  15.122  11.124  13.442  0.1801  0.1745 -0.1010
 5147W        W21281  16.792   4.660  11.624 -0.1190 -0.0465  0.0300
 5148W        W21282  14.051  16.845  12.150 -0.1218  0.1460  0.1660
 5149W        W21283   4.455   3.573  13.604 -0.1417  0.1962 -0.0746
 5150W        W21284   9.432   3.941   3.586 -0.3596  0.0404  0.2476
 5151W        W21285  17.578   6.096  14.949 -0.1573  0.1304  0.2088
 5152W        W21286  13.743  17.765  13.085 -0.1647 -0.1203  0.0243
 5153W        W21287   2.407  10.757  14.405 -0.1456  0.0464  0.1406
 5154W        W21288   8.971   0.463   1.954 -0.2527  0.0600  0.2629
 5155W        W21289  17.372   9.212   4.268  0.0397 -0.1611 -0.2379
 5156W        W21290  15.270   9.937   0.878 -0.1264 -0.0017  0.0741
 5157W        W21291  12.649  16.484   4.532 -0.2103 -0.1847 -0.1255
 5158W        W21292  12.164   1.348   4.279 -0.0160 -0.0210 -0.1313
 5159W        W21293   4.329   0.204   1.995  0.1203 -0.1146  0.1340
 5160W        W21294  17.037   4.988   4.160  0.1653  0.0138 -0.0385
 5161W        W21295  11.387  13.825  15.232  0.1444 -0.1406  0.0709
 5162W        W21296  11.200  12.332  14.481 -0.0099 -0.5251 -0.1333
 5163W        W21297   6.043   6.466  12.484  0.0875 -0.0800 -0.0846
 5164W        W21298   5.002   2.556  11.181  0.0477  0.1155  0.0033
 5165W        W21299  13.492  15.778  15.401  0.1800 -0.0227 -0.0197
 5166W        W21300   9.021   2.296   1.872 -0.0169  0.0622 -0.0399
 5167W        W21301  14.462  17.719   4.862  0.1575  0.0895  0.1121
 5168W        W21302   7.480   1.285   2.932 -0.2690 -0.0111 -0.1549
 5169W        W21303   1.721   5.449  15.291 -0.1973  0.2479 -0.2428
 5170W        W21304   2.987  15.702  10.717 -0.1483 -0.1741  0.0324
 5171W        W21305   8.281  10.491  15.700  0.0872  0.1459 -0.0845
 5172W        W21306   2.187  17.833  14.691  0.3427 -0.2014 -0.2149
 5173W        W21307   3.165  17.590  16.061  0.2290 -0.1733 -0.2113
 5174W        W21308  12.895  12.120  14.410  0.0106 -0.2303 -0.3015
 5175W        W21309  14.507  14.390  15.236 -0.2147  0.2467  0.0328
 5176W        W21310   7.002   5.749   4.684 -0.4564 -0.0674  0.0537
 5177W        W21311  16.021   7.175   0.715 -0.4148  0.1697  0.1908
 5178W        W21312   5.921   7.510   2.778  0.0869  0.0972 -0.2813
 5179W        W21313  10.091   5.271   4.402 -0.0358  0.0741  0.1036
 5180W        W21314   8.975   4.070   3.301 -0.1299 -0.0664 -0.0758
 5181W        W21315  15.906  15.072  12.788  0.0955 -0.1305 -0.1797
 5182W        W21316  13.269   8.792  12.851  0.1269 -0.0354  0.0299
 5183W        W21317  12.543   3.965   5.410 -0.0016  0.2041 -0.1174
 5184W        W21318  14.416   9.277   2.527 -0.2366  0.0372  0.0616
 5185W        W21319   4.116  17.935  15.790 -0.0863  0.3997  0.0939
 5186W        W21320  17.962  14.342   3.786  0.0281 -0.1318 -0.0917
 5187W        W21321   6.186   6.330  14.283  0.0247 -0.0573 -0.2053
 5188W        W21322  14.912  11.919   2.043 -0.1411  0.4242 -0.0770
 5189W        W21323   2.675   5.969  11.426 -0.1736  0.4679  0.0186
 5190W        W21324  10.747  13.477  11.531  0.3097 -0.1278 -0.3554
 5191W        W21325   6.145   8.024   1.548 -0.4850 -0.2022  0.0580
 5192W        W21326  12.175   3.009   4.378  0.0127  0.3409  0.3948
 5193W        W21327  13.397   6.428   2.762  0.1428 -0.0091  0.0275
 5194W        W21328   7.884  11.167  14.474  0.0772 -0.0515  0.0956
 5195W        W21329   1.190   7.557   4.474 -0.4706  0.0393 -0.0541
 5196W        W21330   9.519  16.692  12.250 -0.0445  0.1704  0.4131
 5197W        W21331  12.526   6.655   1.503 -0.3736  0.1146  0.2900
 5198W        W21332   6.405  14.736  11.505  0.1441 -0.3278  0.0907
 5199W        W21333   3.795   8.785   4.573  0.0364 -0.1354  0.0212
 5200W        W21334  17.341   6.920  14.143 -0.1473  0.0243 -0.1137
 5201W        W21335   8.092  16.634  14.703  0.0638  0.1993  0.1237
 5202W        W21336   1.141   4.240   1.958  0.0946  0.3633  0.0788
 5203W        W21337  13.854   4.295  16.334 -0.1883 -0.0894  0.3692
 5204W        W21338   7.194  17.122   2.066 -0.0749 -0.0149 -0.1410
 5205W        W21339   7.537   7.203   1.933 -0.2421 -0.1435 -0.2902
 5206W        W21340   4.977  14.902   5.450  0.1497 -0.1598  0.0129
 5207W        W21341  12.096   7.812  12.794 -0.0324  0.0535 -0.1880
 5208W        W21342  13.589   6.533   1.445  0.0446 -0.2536  0.0761
 5209W        W21343   2.631   6.794  16.044  0.0935  0.1701  0.1252
 5210W        W21344   5.477  12.863  12.861 -0.2151  0.0908 -0.2587
 5211W        W21345   2.096  12.922  11.607 -0.4967 -0.1860  0.1432
 5212W        W21346  10.867   6.422   3.373  0.3727  0.1592  0.0603
 5213W        W21347  12.976   7.157   1.124 -0.1603 -0.1074 -0.3832
 5214W        W21348   9.858   4.357  15.889 -0.1096  0.0071  0.1571
 5215W        W21349   5.821   9.672   4.437  0.0611 -0.0360 -0.0376
 5216W        W21350   0.023  10.105   3.165 -0.0804  0.1654 -0.2210
 5217W        W21351   6.978   0.249   6.082  0.2189 -0.0083  0.1652
 5218W        W21352   1.916  16.782  14.244 -0.1229 -0.0920  0.0282
 5219W        W21353   6.315   0.711   4.062 -0.0432  0.0293  0.2642
 5220W        W21354   2.360   7.413   5.113 -0.0950 -0.0437  0.2350
 5221W        W21355   6.548  17.013   3.850  0.0472  0.2996  0.0466
 5222W        W21356  11.575   4.406  14.803 -0.0647  0.4159 -0.1003
 5223W        W21357  10.882   9.159  13.218 -0.1637  0.4204 -0.1249
 5224W        W21358   8.936   1.075  13.357 -0.1228  0.0727  0.0967
 5225W        W21359   2.948  13.535   0.375  0.1190 -0.2044 -0.0748
 5226W        W21360  12.805   0.856  15.577  0.1437 -0.1824  0.0184
 5227W        W21361  13.006  11.327  14.832 -0.1292  0.1088  0.1434
 5228W        W21362  17.218   8.302  14.615  0.1589 -0.1107  0.0292
 5229W        W21363  12.538   9.376  14.151 -0.1356  0.0675 -0.0107
 5230W        W21364  13.008  12.629  11.034 -0.1538 -0.0485 -0.0609
 5231W        W21365   5.293   1.538   2.198  0.0206 -0.2151  0.0844
 5232W        W21366   1.833   3.729  15.651  0.0836  0.0212 -0.0735
 5233W        W21367   9.553  17.434   3.407  0.3729 -0.0171 -0.2417
 5234W        W21368   0.575   8.985   3.605  0.2514 -0.1034  0.0299
 5235W        W21369   5.538   3.490  14.950  0.2787  0.0752 -0.2509
 5236W        W21370   9.578  15.261   2.540 -0.2214  0.1450  0.1158
 5237W        W21371  13.886   5.647   2.528 -0.0915  0.2776  0.2261
 5238W        W21372   1.551  11.602  14.829 -0.1856 -0.1393 -0.2235
 5239W        W21373  13.270  14.766  14.504 -0.4568  0.2972 -0.0380
 5240W        W21374  14.297   6.784  16.030  0.0670  0.1435 -0.1576
 5241W        W21375   8.184  17.379   2.987  0.1477  0.0108  0.2308
 5242W        W21376  12.647   0.718   3.257 -0.2914  0.1577  0.0440
 5243W        W21377  10.131   7.065   1.539  0.3091  0.0934 -0.2790
 5244W        W21378   4.034   3.953  12.512 -0.0449 -0.1035  0.0519
 5245W        W21379   8.191  15.667   1.970  0.1826  0.0569  0.2087
 5246W        W21380  11.038  12.118  13.921  0.1050  0.0958 -0.0491
 5247W        W21381  17.808  17.090   2.379 -0.0571  0.0006  0.0127
 5248W        W21382   5.030  17.803  15.347 -0.3152 -0.1398 -0.0447
 5249W        W21383   9.197  14.937   2.603 -0.2759  0.0070 -0.3825
 5250W        W21384   7.495   3.474  15.029 -0.0402  0.1954  0.0088
 5251W        W21385  16.912  11.176   2.871  0.0742 -0.0222  0.3671
 5252W        W21386   4.462   5.928  15.442  0.0807 -0.2313  0.1812
 5253W        W21387   2.090   8.173  12.936 -0.0130  0.0474  0.0564
 5254W        W21388   0.565   8.164  11.687 -0.2448  0.1698 -0.2870
 5255W        W21389  11.342   6.277   1.180  0.2220 -0.2667 -0.4217
 5256W        W21390  15.394  14.795  14.658 -0.5241 -0.0951  0.1704
 5257W        W21391   0.699  15.669  12.920  0.0662 -0.0812 -0.1141
 5258W        W21392   9.358   0.368   2.663 -0.2630 -0.2083  0.1697
 5259W        W21393  12.647  13.472   2.382 -0.0945 -0.2804 -0.1649
 5260W        W21394  12.385   7.204  12.835 -0.0909  0.2802  0.0435
 5261W        W21395  15.109   8.323   1.072 -0.1558  0.2613 -0.0548
 5262W        W21396  15.651  11.086   0.128 -0.0687 -0.2093  0.1594
 5263W        W21397  11.232   5.474  12.634 -0.1902  0.2454 -0.0233
 5264W        W21398  11.966   3.452   4.341  0.5219  0.1989 -0.0197
 5265W        W21399  14.394   8.723  12.494  0.1404 -0.1441  0.2717
 5266W        W21400   4.972  16.865  13.666 -0.2351 -0.1560  0.0492
 5267W        W21401   2.789  15.361  15.069 -0.2125  0.0527 -0.1605
 5268W        W21402   9.535  13.257   2.653 -0.1720  0.0252  0.1065
 5269W        W21403   0.866  13.573  13.627  0.1498 -0.0283 -0.0673
 5270W        W21404  11.339  17.887   0.774 -0.1930 -0.1160 -0.3911
 5271W        W21405   3.030  14.610  14.615  0.1296 -0.1088  0.2351
 5272W        W21406   0.934  10.876   0.582 -0.1589  0.2711 -0.1999
 5273W        W21407   0.244   9.436  10.420  0.3170 -0.2040 -0.2937
 5274W        W21408  10.488   8.916  11.149 -0.1541  0.0085  0.0129
 5275W        W21409   6.432  18.054  15.692  0.1927  0.0154 -0.1263
 5276W        W21410  14.321   3.377  14.806  0.2146 -0.1397 -0.3037
 5277W        W21411   8.795  12.826   4.648 -0.0919  0.0778  0.1950
 5278W        W21412  17.522  17.111  15.638  0.0168 -0.0034 -0.0209
 5279W        W21413   8.847   0.035  13.848  0.0333 -0.3238 -0.0443
 5280W        W21414   1.207  17.691  13.755  0.0469 -0.0691  0.1445
 5281W        W21415  10.175  10.877   4.145 -0.0395  0.1492  0.0052
 5282W        W21416  12.212   6.795   0.559  0.0447  0.1347 -0.0258
 5283W        W21417  14.970  13.080   0.240  0.1136 -0.0328 -0.1629
 5284W        W21418   1.333   7.295  11.748  0.0261  0.2706 -0.0869
 5285W        W21419  16.415  11.191   3.513 -0.0607 -0.1017 -0.0814
 5286W        W21420   0.316  16.267   0.021 -0.1255 -0.0596 -0.2215
 5287W        W21421  10.214   8.012  14.611 -0.0658 -0.1579 -0.1283
 5288W        W21422   2.448   9.416   3.160 -0.1234 -0.0546 -0.1488
 5289W        W21423  10.648  17.412   0.660 -0.1341  0.1593 -0.2422
 5290W        W21424   6.857   4.436  11.848  0.1685  0.1069  0.0659
 5291W        W21425  17.354  11.972   1.353 -0.0751  0.0253 -0.0914
 5292W        W21426  17.421  13.817   1.791  0.0842 -0.2852 -0.1217
 5293W        W21427  11.482  10.093   5.024 -0.1656 -0.0630 -0.1278
 5294W        W21428  12.386   5.680  14.584 -0.1427 -0.3455  0.2461
 5295W        W21429  17.600   6.126   1.233 -0.1033 -0.0291 -0.1651
 5296W        W21430   3.014   7.685   5.647  0.4544 -0.0972 -0.2153
 5297W        W21431  12.369   6.658   5.122 -0.1968  0.0283 -0.2735
 5298W        W21432  16.457   6.526  11.021 -0.0050 -0.1054  0.3844
 5299W        W21433   9.684  15.112  14.853 -0.1444  0.1003  0.1417
 5300W        W21434   7.170   1.189  13.705  0.3078 -0.1885  0.0531
 5301W        W21435   3.748   1.192   0.559 -0.1583 -0.1527 -0.0773
 5302W        W21436   5.153  14.072  11.608  0.0554 -0.3055 -0.0997
 5303W        W21437   9.787   6.249   4.051  0.0723 -0.0988 -0.1167
 5304W        W21438   6.215   6.710   4.913 -0.0597  0.2906  0.2526
 5305W        W21439  12.435  13.566   2.898 -0.1602 -0.2623  0.0793
 5306W        W21440   4.845   8.282  14.693  0.1811 -0.2128 -0.1531
 5307W        W21441   7.112   4.181   0.209 -0.1181  0.1500 -0.2047
 5308W        W21442   9.113  10.115   3.326  0.1344  0.0178  0.1652
 5309W        W21443   4.680  17.851   1.534  0.0623 -0.1969 -0.0099
 5310W        W21444   1.473   6.897   1.773  0.1308  0.3360 -0.0146
 5311W        W21445   5.812   4.018   5.046  0.3170 -0.2213 -0.3302
 5312W        W21446  15.565  10.752  11.408 -0.0761  0.1688 -0.0479
 5313W        W21447   8.556   7.744   0.729  0.1023  0.0002  0.1092
 5314W        W21448  15.619   6.286  15.043  0.0093 -0.1194  0.1752
 5315W        W21449  17.657   4.973  15.583  0.0956 -0.1236 -0.3057
 5316W        W21450   8.513   1.642  12.377  0.1465 -0.0806  0.1962
 5317W        W21451   2.639   8.070  13.476 -0.1574 -0.0356  0.0465
 5318W        W21452   6.588   2.374   0.780  0.2157  0.1561  0.2449
 5319W        W21453   0.060  12.537   4.428 -0.1384 -0.1322  0.1427
 5320W        W21454  17.929   2.936  15.524  0.1473  0.0688 -0.2229
 5321W        W21455  12.530   3.616  14.059  0.3095  0.0721 -0.0002
 5322W        W21456  14.736  12.823  13.847  0.0201  0.1821  0.1373
 5323W        W21457   8.224  13.861  13.326  0.2164  0.2849 -0.2650
 5324W        W21458  12.360   9.319   4.268 -0.2315  0.2092 -0.2591
 5325W        W21459  14.590   8.324   5.684  0.1749 -0.0606  0.0016
 5326W        W21460  16.040   3.834   2.306  0.1120 -0.2524 -0.1415
 5327W        W21461   0.572   3.982  13.952  0.0004  0.0208  0.0059
 5328W        W21462   3.781  11.511   3.901  0.1161  0.0116  0.1772
 5329W        W21463   5.400  16.143  13.130  0.0250  0.1150  0.2681
 5330W        W21464   6.240   0.527  12.287 -0.0054  0.3984  0.2031
 5331W        W21465   9.464   1.747  14.214 -0.1476 -0.0670  0.0055
 5332W        W21466   7.975   6.891  11.700 -0.1753 -0.0610 -0.0393
 5333W        W21467   9.810   5.315   1.588  0.1215 -0.0055  0.2296
 5334W        W21468   0.246   8.404   0.247 -0.2388  0.0082 -0.1526
 5335W        W21469   0.243  16.991   2.977 -0.1164 -0.0158 -0.1944
 5336W        W21470  16.042   4.969  15.691 -0.0943 -0.1869 -0.0069
 5337W        W21471   9.533   8.948  12.345  0.1920 -0.1800 -0.1342
 5338W        W21472  12.371   9.874  15.405  0.0538 -0.2231  0.1371
 5339W        W21473  13.469   8.484  14.793  0.1745 -0.0895 -0.0348
 5340W        W21474  15.616  16.057  12.053 -0.2342  0.0710 -0.3648
 5341W        W21475   7.201   5.947   1.683  0.0801 -0.1584  0.2007
 5342W        W21476  16.660   6.622   4.286  0.2638  0.1753  0.1659
 5343W        W21477   2.150   1.928  15.121  0.0874  0.0279  0.1066
 5344W        W21478   0.864   7.348   4.032  0.0568  0.0459 -0.0351
 5345W        W21479   8.369   8.394  11.984 -0.0265  0.2690  0.0276
 5346W        W21480  16.651  12.309   1.619 -0.2863  0.3715  0.0730
 5347W        W21481   2.774  12.175  11.809 -0.0977  0.0297  0.1165
 5348W        W21482   8.685  17.314  13.974 -0.0393 -0.0102  0.0955
 5349W        W21483   5.075   6.100   1.519  0.0697 -0.0642 -0.4134
 5350W        W21484  11.804   1.946   1.868 -0.1224  0.1580 -0.0652
 5351W        W21485   9.806   9.994   4.059 -0.0844 -0.0167 -0.0704
 5352W        W21486   4.191  13.229   2.859 -0.2877  0.1182 -0.2599
 5353W        W21487   7.936   8.816   2.929  0.1159 -0.1045  0.0226
 5354W        W21488  13.946   8.147  15.510 -0.1378 -0.0312  0.0077
 5355W        W21489   2.218  15.432   0.418 -0.1807 -0.1708  0.1082
 5356W        W21490   6.499  14.933  14.083  0.0562 -0.0726 -0.0461
 5357W        W21491   8.894   1.091   1.424  0.2864 -0.1800 -0.4755
 5358W        W21492   8.621  10.363  15.058 -0.1031 -0.1460 -0.1004
 5359W        W21493   7.363  11.067  14.653 -0.2196 -0.0726 -0.2171
 5360W        W21494   0.382   6.421   3.520  0.1144  0.2236  0.2430
 5361W        W21495  11.030  14.179  14.356  0.1054  0.4284  0.2305
 5362W        W21496   9.868  17.476  12.114 -0.0620 -0.0959  0.2531
 5363W        W21497  13.312   6.530   3.716  0.0642 -0.0660 -0.1709
 5364W        W21498  17.813   7.223   1.210  0.2316 -0.0459  0.0843
 5365W        W21499  17.722   9.651  12.083  0.1226 -0.0982 -0.0030
 5366W        W21500   7.687   0.233  10.635 -0.1213  0.2606 -0.0517
 5367W        W21501   7.612  11.370  14.058 -0.0711  0.1631  0.0002
 5368W        W21502  13.444  16.918  13.509 -0.0791  0.3217 -0.1307
 5369W        W21503   1.970   3.505  11.903 -0.1764  0.3907  0.0285
 5370W        W21504  18.029   4.487   0.156 -0.1364  0.0218 -0.0176
 5371W        W21505   6.620  15.746   5.411 -0.1268 -0.2859 -0.1606
 5372W        W21506   7.662  12.630  13.793 -0.0808  0.0366 -0.0189
 5373W        W21507  14.357  14.184   0.795  0.1988  0.0772  0.1144
 5374W        W21508  17.174   4.030   1.880  0.1338  0.6273 -0.2670
 5375W        W21509  13.773   2.262  15.613 -0.2003  0.2970 -0.2623
 5376W        W21510   9.993   2.729  12.408 -0.3878 -0.3006  0.0765
 5377W        W21511  13.986  11.089  14.946 -0.0292 -0.0692  0.0096
 5378W        W21512   7.098   8.281   2.948 -0.1801 -0.2314  0.0312
 5379W        W21513  13.952  17.676  15.387  0.0636 -0.3629  0.0603
 5380W        W21514   1.004  16.790   1.990 -0.1229  0.0328  0.2344
 5381W        W21515   6.496  15.615   2.140  0.0798  0.0255  0.0121
 5382W        W21516   6.762   2.233  15.477  0.2287  0.0035  0.0950
 5383W        W21517   0.445  16.746   1.933 -0.0378  0.2455 -0.0026
 5384W        W21518  15.381  16.393  15.661 -0.0315 -0.1551 -0.1170
 5385W        W21519  15.720   1.720   4.253 -0.0227  0.0401 -0.1862
 5386W        W21520  12.291  11.370  13.301  0.2616 -0.1353  0.1120
 5387W        W21521   2.299  10.386  14.717 -0.1520 -0.0674  0.0886
 5388W        W21522   2.200   0.321   2.170 -0.2623 -0.1642  0.0466
 5389W        W21523   6.538  11.500  13.945 -0.0204  0.0389 -0.1636
 5390W        W21524   0.782   1.998   0.703 -0.1577 -0.5421 -0.1805
 5391W        W21525  11.561  12.738  14.425  0.1142  0.1852  0.0075
 5392W        W21526   7.853   5.509  12.855  0.0209 -0.0855 -0.1239
 5393W        W21527   1.788   8.617  15.017 -0.1771  0.1088  0.2753
 5394W        W21528   7.460   9.385   1.739 -0.0121 -0.1285 -0.0655
 5395W        W21529   9.615   0.752  14.629 -0.0244 -0.0320 -0.0995
 5396W        W21530   2.596  15.504   0.004 -0.0962 -0.0815 -0.0490
 5397W        W21531   1.438   0.955   2.060  0.1343  0.4066  0.4307
 5398W        W21532   6.331   4.212  15.340  0.2006  0.1741 -0.1327
 5399W        W21533  17.490  14.726   5.197  0.1214 -0.0185  0.0783
 5400W        W21534   4.442   4.458   1.317  0.1975  0.0336  0.4886
 5401W        W21535   9.053  11.732  14.753 -0.0560  0.3312  0.2018
 5402W        W21536  12.654  14.552  12.198  0.2877 -0.0654  0.2825
 5403W        W21537   7.980  15.043  12.473 -0.1757 -0.3451 -0.0260
 5404W        W21538   7.658   4.945  15.077 -0.3635  0.0404  0.0501
 5405W        W21539   6.834   9.816   3.845 -0.1034  0.0885 -0.0171
 5406W        W21540  15.821   1.824  15.730 -0.1751 -0.1501 -0.0788
 5407W        W21541   0.582   5.379   0.544 -0.1845 -0.1830 -0.2850
 5408W        W21542   7.080  15.094  12.206 -0.1783  0.1727  0.0494
 5409W        W21543   0.474   0.132   1.859  0.1513  0.0673 -0.1297
 5410W        W21544   1.807  10.035  12.986 -0.1940  0.1921  0.0283
 5411W        W21545  14.304  13.715   2.646 -0.1608 -0.5272 -0.1191
 5412W        W21546   9.686   3.624  12.301  0.2106 -0.1332  0.3752
 5413W        W21547   4.426   4.384  13.717  0.0938  0.0063  0.0979
 5414W        W21548   6.712   9.639  16.241  0.0660  0.0314  0.1609
 5415W        W21549  11.856  16.726   4.536  0.4527 -0.0010  0.1228
 5416W        W21550   3.641  15.533  12.547  0.2319  0.2045  0.4391
 5417W        W21551  13.172  16.495  14.882  0.3046 -0.0498  0.0108
 5418W        W21552   3.032   8.902   3.321  0.1112  0.1926  0.1847
 5419W        W21553   7.196  15.985   0.145  0.0735 -0.0646 -0.0756
 5420W        W21554  12.229   4.925   1.896 -0.0147  0.0247 -0.2630
 5421W        W21555   3.874   4.449   3.195  0.0298  0.1466 -0.0660
 5422W        W21556   2.018   3.207   2.316  0.2223  0.3816 -0.0220
 5423W        W21557  10.155  13.951  16.272  0.0626 -0.0404 -0.0266
 5424W        W21558   4.206   3.997  11.229  0.1963  0.2326 -0.1222
 5425W        W21559  17.010   7.890  14.562 -0.2291 -0.0827 -0.0175
 5426W        W21560   5.861  14.418  15.651  0.2361 -0.3048  0.0803
 5427W        W21561   7.959  11.637   2.112 -0.0141 -0.2207 -0.2260
 5428W        W21562   6.673  10.313   0.622  0.2588  0.0912 -0.1431
 5429W        W21563   7.757  16.785  15.536 -0.0022  0.2747  0.2236
 5430W        W21564   1.059  15.322  14.857  0.2316  0.0832  0.2267
 5431W        W21565  13.993   1.672   4.831  0.1467  0.2279 -0.0593
 5432W        W21566   5.883   7.741   1.951  0.0579 -0.2268 -0.0357
 5433W        W21567   4.130   7.991   3.739 -0.0447 -0.0247 -0.0945
 5434W        W21568  10.851   6.405   2.472  0.0435 -0.1515 -0.0389
 5435W        W21569   5.498  15.849   1.560  0.1063 -0.0842  0.0250
 5436W        W21570   9.688   6.287   1.414  0.0164 -0.1682  0.1861
 5437W        W21571  11.741  13.676   2.242  0.0387  0.0601  0.1234
 5438W        W21572  16.330   6.558   2.843  0.3178 -0.1034 -0.0045
 5439W        W21573  11.094   7.353   0.017  0.0899  0.1718 -0.2120
 5440W        W21574  16.389  13.667   0.921  0.1829  0.1189 -0.0104
 5441W        W21575  13.069   6.052   4.049 -0.0798  0.0742 -0.0784
 5442W        W21576   8.878  12.777   3.998  0.1035 -0.1404 -0.2153
 5443W        W21577  12.798  17.303   2.453  0.0029  0.0141 -0.1622
 5444W        W21578   2.099   2.431   3.716  0.0278  0.1365  0.0447
 5445W        W21579  14.109   2.988  13.920  0.0952  0.1257 -0.1313
 5446W        W21580  16.049  11.802  12.165 -0.0331 -0.2767  0.0364
 5447W        W21581   5.779   2.235   4.879  0.1363  0.1221 -0.1010
 5448W        W21582   1.235  16.916  10.851  0.1293  0.1321 -0.1548
 5449W        W21583   9.479  17.316  12.928 -0.1075  0.0543  0.0146
 5450W        W21584  10.361  12.900   1.029 -0.0446  0.3590  0.0113
 5451W        W21585   5.896  10.802   6.109 -0.0442  0.1540  0.3695
 5452W        W21586   9.109   1.826   0.482 -0.1344 -0.1759  0.1156
 5453W        W21587  11.963  16.055  13.203 -0.1205 -0.3164  0.2479
 5454W        W21588  15.242  10.285  13.244 -0.0634  0.2025 -0.1598
 5455W        W21589  14.738   6.546   1.828 -0.5008 -0.0455 -0.2557
 5456W        W21590   6.870  10.447   3.754 -0.1900  0.1521  0.3521
 5457W        W21591   9.652   8.969   0.226  0.0068  0.3309  0.1279
 5458W        W21592   0.303  12.678   1.608 -0.4078 -0.1159  0.3744
 5459W        W21593   6.235   8.355   5.061 -0.0362 -0.0350  0.3177
 5460W        W21594   8.372  17.039   1.574 -0.1967  0.0037 -0.2921
 5461W        W21595   1.960  12.417  11.399 -0.2890 -0.0076 -0.0307
 5462W        W21596  11.772   0.211   3.816 -0.3183  0.1424 -0.0826
 5463W        W21597   0.578  15.229  15.679  0.0482 -0.5151 -0.2364
 5464W        W21598  15.259  10.864   3.059 -0.3507  0.3815  0.1618
 5465W        W21599   1.931  10.773  14.524 -0.2006  0.3199  0.2920
 5466W        W21600   7.841   9.318   2.814 -0.1429  0.0045 -0.0893
 5467W        W21601  16.442   9.723   3.450  0.3181  0.1323  0.2101
 5468W        W21602  11.489   8.674  15.816 -0.1514  0.0078 -0.2161
 5469W        W21603   7.385   2.613  12.494 -0.0723 -0.0204  0.1027
 5470W        W21604   3.686  17.143   4.268  0.2723 -0.0484  0.0249
 5471W        W21605   3.344   2.145   0.563  0.1193  0.1690  0.1875
 5472W        W21606   9.440  17.929   0.701 -0.2892  0.3327 -0.2024
 5473W        W21607   4.769  10.749   4.010 -0.3013 -0.1083 -0.2299
 5474W        W21608   9.681   3.449   3.281 -0.1086  0.0476 -0.1373
 5475W        W21609   6.322   6.433   4.532 -0.1337 -0.0620 -0.0628
 5476W        W21610   4.962  15.278  15.560 -0.0568  0.0010 -0.1005
 5477W        W21611   7.264   8.614  15.155  0.0008  0.0117 -0.1037
 5478W        W21612   0.518   6.627   4.565  0.1803  0.0265  0.1346
 5479W        W21613  12.928  17.364  11.532  0.0645 -0.0510 -0.3592
 5480W        W21614  11.871  17.382  14.454 -0.0373  0.0457 -0.2183
 5481W        W21615   4.741  10.190   5.325 -0.1377 -0.1371 -0.0496
 5482W        W21616  11.338  13.527   3.711  0.1962  0.2394 -0.0707
 5483W        W21617   1.171  15.771   3.441 -0.0431  0.0911 -0.0360
 5484W        W21618   5.178  11.140   5.548 -0.1393 -0.3372 -0.0493
 5485W        W21619  17.793   2.251  15.961 -0.2181  0.3282 -0.3388
 5486W        W21620   4.145   2.097  11.240  0.2000 -0.0069 -0.1340
 5487W        W21621  15.104  13.407   0.663  0.0135 -0.0470  0.2560
 5488W        W21622   2.471   3.645  11.882  0.0642  0.0288  0.2159
 5489W        W21623   7.559  11.676   1.252 -0.0690 -0.0404  0.2187
 5490W        W21624   6.106   8.255   2.383 -0.4762  0.4176 -0.1548
 5491W        W21625   9.019  10.379   0.020  0.1227 -0.1204 -0.3101
 5492W        W21626   5.989   0.378  11.887 -0.1265  0.0939 -0.0351
 5493W        W21627   0.854   8.136  10.396 -0.1112  0.0831 -0.0523
 5494W        W21628   6.788  10.379  15.079  0.1261 -0.2934  0.0668
 5495W        W21629   3.432   4.440  11.534  0.0327  0.2052  0.0034
 5496W        W21630   8.018   5.871   4.190 -0.0185 -0.0639  0.2572
 5497W        W21631   2.630   0.595  14.580 -0.1566 -0.1288  0.0531
 5498W        W21632  17.196   7.266   4.409 -0.1226 -0.0908  0.1727
 5499W        W21633  10.811   0.229  12.195 -0.0390 -0.2724 -0.2674
 5500W        W21634   6.086   4.086   1.319 -0.0081  0.0383  0.2324
 5501W        W21635  15.310  10.862   4.434  0.2039  0.1959 -0.0753
 5502W        W21636  17.339   0.582   0.800 -0.0420 -0.1410  0.0719
 5503W        W21637  16.039  11.466   0.826  0.1509 -0.1897 -0.0058
 5504W        W21638   3.720   5.236  11.847 -0.0931  0.0913 -0.2345
 5505W        W21639  13.233  11.780   4.817  0.1618  0.2110 -0.0827
 5506W        W21640  10.776   8.618   4.516  0.1297 -0.2264 -0.0623
 5507W        W21641  14.514   9.709  13.015  0.0372  0.3894  0.1036
 5508W        W21642   6.643  16.040   1.345  0.0198  0.0321 -0.2379
 5509W        W21643   4.962   9.828  12.753  0.0268  0.0869 -0.0749
 5510W        W21644   2.287  17.316   2.399 -0.0029 -0.1599  0.1408
 5511W        W21645   4.192   5.244   1.199 -0.2697  0.1840 -0.0751
 5512W        W21646  10.019   3.116   3.421 -0.1700 -0.0645  0.0942
 5513W        W21647   9.774   2.720  11.871 -0.0115 -0.1490 -0.0729
 5514W        W21648   1.813   6.843  13.917  0.2537  0.1503 -0.2136
 5515W        W21649  13.858  16.518  14.306 -0.5304 -0.0625  0.0640
 5516W        W21650   3.325  15.351   2.923 -0.4414  0.2450  0.1040
 5517W        W21651   4.655  13.566   5.583 -0.2623  0.0204 -0.0969
 5518W        W21652  15.513  13.552  14.258  0.1404  0.0216  0.1122
 5519W        W21653   4.464  10.338  14.385 -0.2438 -0.0468 -0.1164
 5520W        W21654   8.634  13.343   3.751 -0.0564  0.0641 -0.1514
 5521W        W21655   9.224  11.191   5.149  0.2349 -0.0298 -0.1995
 5522W        W21656   8.986   2.638  10.560  0.1101  0.0493 -0.0300
 5523W        W21657   8.215  12.530  11.753  0.1012 -0.1820  0.1870
 5524W        W21658  14.666   2.920   5.193 -0.3236  0.0410  0.3011
 5525W        W21659  12.089   7.552   3.567  0.0884 -0.0896 -0.2345
 5526W        W21660  11.403   1.560  15.430  0.7635 -0.2254 -0.1176
 5527W        W21661  15.756   9.425  15.088 -0.0595  0.1599 -0.0395
 5528W        W21662   1.984   7.731   2.894 -0.1367 -0.1005 -0.1807
 5529W        W21663  11.982   4.908  15.987  0.0546  0.1884  0.0628
 5530W        W21664   8.568  12.401  13.155  0.0241 -0.0802  0.2463
 5531W        W21665   7.139  11.820   4.834  0.2066 -0.1256  0.3008
 5532W        W21666  10.991  13.220  14.305 -0.1196  0.1813 -0.0791
 5533W        W21667   3.401   8.138   4.819 -0.2236  0.1566 -0.0645
 5534W        W21668   0.424  14.321   2.241 -0.1526  0.2665 -0.0583
 5535W        W21669   9.783  16.248   0.409  0.0785 -0.0477  0.0645
 5536W        W21670  11.366  14.678   5.861  0.1214 -0.2079 -0.2323
 5537W        W21671  10.769  11.601  16.161 -0.1113 -0.1999  0.0783
 5538W        W21672  17.482  11.394  11.343 -0.0333 -0.3829  0.0207
 5539W        W21673   1.560   2.770  14.716 -0.1055  0.1467 -0.2492
 5540W        W21674   0.213   4.382  15.252 -0.1832 -0.0613  0.1355
 5541W        W21675  16.595  15.491   1.489  0.0593 -0.1326 -0.0424
 5542W        W21676  17.473   8.853   1.218  0.1065  0.2037  0.0457
 5543W        W21677  11.286  11.240   4.641 -0.0027 -0.2812 -0.1412
 5544W        W21678  16.476   1.956   3.893 -0.0908  0.2654 -0.1318
 5545W        W21679  11.855  13.965  12.072 -0.1139  0.0042  0.1783
 5546W        W21680   8.782   3.903   1.328 -0.2976 -0.0480 -0.1146
 5547W        W21681   8.057  11.174   0.163 -0.1329 -0.2113  0.0421
 5548W        W21682  15.354  10.416   0.796  0.2435 -0.0117 -0.3646
 5549W        W21683  16.515  15.002   0.684 -0.1625  0.2040  0.1151
 5550W        W21684  16.376   3.739  13.513 -0.2294 -0.1294  0.0900
 5551W        W21685  15.840   7.277  12.115  0.0786 -0.2462  0.0907
 5552W        W21686   9.406  16.797  11.731  0.2051  0.1490  0.0530
 5553W        W21687  11.274  17.714  15.768 -0.0724 -0.0749 -0.0457
 5554W        W21688  17.173  11.794  11.414 -0.2114  0.3007  0.0800
 5555W        W21689   4.682   4.282  11.924  0.2467  0.2095 -0.2289
 5556W        W21690  12.580   1.299   1.982  0.3100 -0.0524 -0.0181
 5557W        W21691  12.059  10.651   1.270  0.0559  0.0378 -0.0615
 5558W        W21692  14.499  11.037  15.182 -0.1015  0.1107  0.0995
 5559W        W21693   5.909   3.515   4.832 -0.2569 -0.0527 -0.0592
 5560W        W21694   6.710   5.466  16.150 -0.1781  0.1178  0.0510
 5561W        W21695  11.874   7.834  15.791 -0.1865  0.2623  0.1256
 5562W        W21696  10.525   7.070  12.093 -0.2122 -0.0191  0.1272
 5563W        W21697  12.915   9.752  14.251 -0.0110  0.1547  0.2534
 5564W        W21698  11.018  16.167   5.410  0.1866 -0.0001 -0.3516
 5565W        W21699   1.391  12.105  12.847 -0.2714  0.1135 -0.0875
 5566W        W21700  13.989   5.981   3.902 -0.0290  0.1257 -0.3130
 5567W        W21701   1.009  12.241   2.913  0.1881  0.0794  0.0688
 5568W        W21702   0.337  15.379  12.132  0.4557 -0.1613  0.0207
 5569W        W21703   2.008  17.390   1.377 -0.2945 -0.0129  0.3028
 5570W        W21704  11.209   9.138   2.466 -0.1275 -0.2842 -0.1240
 5571W        W21705   2.986   9.828   5.702 -0.0765 -0.3002  0.1180
 5572W        W21706  16.548  10.646   0.315 -0.1660 -0.0254 -0.0436
 5573W        W21707  10.519  14.380   5.221 -0.0343  0.1492 -0.0395
 5574W        W21708   3.410   0.191   5.029 -0.1844  0.2246 -0.1416
 5575W        W21709   5.245   1.726  15.114 -0.1023  0.0219 -0.3070
 5576W        W21710  15.359  12.673   1.111  0.1439  0.1315  0.0994
 5577W        W21711  12.987  16.735   1.681 -0.0789  0.2332 -0.4586
 5578W        W21712   5.754  15.834  15.788  0.1572 -0.1293  0.0650
 5579W        W21713  10.158  10.187  12.909  0.0388  0.0668 -0.2509
 5580W        W21714   1.132   0.037  11.570 -0.4056 -0.0329 -0.2675
 5581W        W21715   4.690   2.675   3.388  0.0406  0.1591  0.0845
 5582W        W21716  10.570   1.128  14.227  0.0499 -0.0841  0.1278
 5583W        W21717   6.774  10.334  15.614 -0.1690  0.0181  0.1835
 5584W        W21718   2.477  16.790   1.876  0.1172 -0.0500  0.1985
 5585W        W21719  12.603  17.259   4.610 -0.1588 -0.0670  0.0420
 5586W        W21720   3.370   0.297  15.729 -0.0227  0.0349  0.2532
 5587W        W21721  11.908   3.769   1.092 -0.1463 -0.1891 -0.0001
 5588W        W21722   4.970   3.330   3.832  0.1090  0.4182 -0.1730
 5589W        W21723  12.425   3.099   2.890 -0.1059 -0.3601 -0.1432
 5590W        W21724   3.754   1.187  16.024  0.2132  0.0067  0.1480
 5591W        W21725   2.953   6.387   3.370  0.4550  0.2121 -0.3614
 5592W        W21726   2.316   7.514   4.627 -0.1532 -0.3253  0.0334
 5593W        W21727  12.530   8.921   3.993  0.1090  0.0751 -0.0415
 5594W        W21728   7.197   8.592  14.644  0.0996 -0.3636  0.0164
 5595W        W21729  12.143   9.594  14.486  0.1087 -0.0904 -0.0203
 5596W        W21730  15.646  18.022  14.606  0.1471  0.1654  0.0009
 5597W        W21731   2.504  12.058  10.841  0.0783 -0.0945 -0.0390
 5598W        W21732   2.949   0.311  13.023  0.0262 -0.0549 -0.0352
 5599W        W21733  15.238  13.862  12.210  0.2878 -0.2671 -0.1096
 5600W        W21734  16.198  11.691  13.713  0.1763 -0.3936 -0.0939
 5601W        W21735  15.364   1.331   2.296  0.1684 -0.0239  0.0449
 5602W        W21736   9.237  14.287  15.971  0.1133 -0.0999  0.1647
 5603W        W21737   3.697  11.799   3.286  0.0844  0.1359  0.0691
 5604W        W21738   5.666  16.697  15.837  0.1945 -0.1409  0.1861
 5605W        W21739  11.021  15.668  10.853  0.1425 -0.0101  0.1195
 5606W        W21740  11.283   5.763   1.814 -0.1550 -0.1615 -0.2930
 5607W        W21741  10.351   5.043   3.454 -0.0600 -0.2355  0.0961
 5608W        W21742  16.237  18.057  12.798  0.1824  0.0068 -0.2135
 5609W        W21743   1.470  14.045   3.722  0.0907 -0.0682 -0.1035
 5610W        W21744   3.114   8.240  11.742 -0.3417 -0.2383  0.1680
 5611W        W21745   6.752   6.823  14.081 -0.3676 -0.2255  0.0910
 5612W        W21746   7.399  14.336   0.555 -0.3606 -0.0568 -0.0230
 5613W        W21747   1.759  10.506  15.410  0.0194  0.1221  0.1240
 5614W        W21748  17.878   3.833   3.341  0.1643 -0.5103  0.2040
 5615W        W21749  13.349   8.505  13.771 -0.0646 -0.0708  0.2683
 5616W        W21750   2.345   2.189  13.664  0.0283  0.1029  0.0707
 5617W        W21751   8.596  11.818  16.410  0.0626  0.0052 -0.3909
 5618W        W21752   2.355   0.690   3.150  0.0144 -0.2673  0.2765
 5619W        W21753   7.753   0.584  12.441  0.2012 -0.0770  0.2365
 5620W        W21754   5.761   8.647  13.403 -0.1149  0.0196 -0.2519
 5621W        W21755   2.717  11.486   4.935  0.0407 -0.0606 -0.1215
 5622W        W21756   2.345   8.569   3.299 -0.2135  0.3194 -0.0337
 5623W        W21757  13.315   0.406   3.468 -0.1719  0.1873 -0.2680
 5624W        W21758  10.416   1.110  15.341  0.1594 -0.0754  0.1994
 5625W        W21759   8.072  12.992   4.506  0.0274 -0.1140  0.0521
 5626W        W21760   8.798  15.230  13.512 -0.0054  0.1344 -0.2456
 5627W        W21761   2.853  15.565   4.998  0.1981 -0.0933 -0.2375
 5628W        W21762  15.431  17.493   1.008 -0.0017 -0.1518  0.3330
 5629W        W21763  10.277   6.185  16.099  0.0139 -0.0242 -0.0578
 5630W        W21764   2.430  13.058  13.406 -0.3238  0.1926  0.1951
 5631W        W21765  13.310  13.873  14.503  0.4149 -0.0031  0.1368
 5632W        W21766   8.889   5.484   2.501 -0.1923 -0.0487  0.1166
 5633W        W21767   7.105   8.529  11.281  0.0962 -0.0199 -0.1366
 5634W        W21768   4.692   5.043  11.553  0.1198 -0.1208  0.2612
 5635W        W21769   1.561  15.777  12.740  0.1082 -0.0716  0.2119
 5636W        W21770   2.180  14.023   1.730  0.1115 -0.1144  0.0589
 5637W        W21771  16.979   1.325  11.805 -0.0744 -0.0385  0.2529
 5638W        W21772   0.675  13.024   1.400  0.0787 -0.1292 -0.0619
 5639W        W21773   2.703  17.975   3.851  0.3070 -0.0757 -0.0680
 5640W        W21774   1.033  16.808   3.043  0.0273  0.1699 -0.1697
 5641W        W21775   2.814   1.552   1.294  0.0200  0.0164  0.0239
 5642W        W21776   4.308  15.210  11.779  0.2434  0.1743  0.0273
 5643W        W21777   6.813   3.442   3.664  0.2280  0.1482 -0.1363
 5644W        W21778  10.784   9.242  12.545 -0.1302  0.2506 -0.0126
 5645W        W21779  17.560  15.692  13.791 -0.0866 -0.1224  0.2476
 5646W        W21780   0.593  15.536   2.061  0.1497 -0.0278 -0.1493
 5647W        W21781   4.260   1.204  16.148  0.0616 -0.1472  0.2297
 5648W        W21782  11.523   6.280   3.108 -0.1457 -0.1619  0.0419
 5649W        W21783   4.483  16.146   1.348 -0.1709 -0.1133 -0.2071
 5650W        W21784  12.523  14.873   3.402 -0.2677 -0.1072  0.0841
 5651W        W21785   6.442   0.607  14.545  0.1336  0.0383  0.1274
 5652W        W21786  11.324  13.173  13.951 -0.0254 -0.0518  0.0117
 5653W        W21787  15.995   9.852  12.278  0.1319 -0.0063 -0.0253
 5654W        W21788  10.787   8.618  14.992 -0.0997  0.1466 -0.4178
 5655W        W21789  15.845   7.958  14.711  0.2031  0.0044  0.0009
 5656W        W21790  15.316  10.565   3.550 -0.1250  0.0416  0.1693
 5657W        W21791   7.547  12.714  12.835  0.1460  0.1779  0.0305
 5658W        W21792   6.439   2.220   3.319  0.3284 -0.0945  0.1606
 5659W        W21793   4.205  14.536   1.914 -0.2408 -0.1197  0.0271
 5660W        W21794   3.174  10.563   0.288 -0.2656  0.0842 -0.2121
 5661W        W21795  11.335   1.826   3.907 -0.0272 -0.0253 -0.0982
 5662W        W21796   1.752  13.787   2.716 -0.0629 -0.0096  0.0508
 5663W        W21797  12.980  13.655   3.831 -0.0064  0.0093 -0.1900
 5664W        W21798  18.050   9.264   2.774 -0.2487  0.0324  0.1212
 5665W        W21799  16.143  15.631  12.778  0.4317 -0.0067 -0.1207
 5666W        W21800  10.065  10.048   1.443 -0.3844 -0.2318  0.1334
 5667W        W21801   1.632   1.693   3.287 -0.1867 -0.0451 -0.1016
 5668W        W21802   7.704  13.241  12.808  0.2833  0.0872  0.0579
 5669W        W21803  13.434  13.714   0.767  0.0333  0.1845  0.0609
 5670W        W21804  17.026  14.366   3.923 -0.0467  0.0850  0.1062
 5671W        W21805   3.403   6.988   4.853 -0.1315  0.3803  0.1630
 5672W        W21806   2.146   6.618   0.622 -0.0920  0.2326 -0.1461
 5673W        W21807  15.503   5.758  15.748 -0.0887  0.0098 -0.0528
 5674W        W21808   7.753   6.722  12.757  0.1231  0.2591 -0.1698
 5675W        W21809   0.628  17.125   1.109 -0.1943 -0.1025  0.0836
 5676W        W21810  10.942   5.302  12.180  0.1809 -0.0844 -0.1082
 5677W        W21811   9.008   8.594   3.827 -0.2951 -0.0444  0.1920
 5678W        W21812  12.663  17.005  15.567 -0.0863 -0.3410  0.2647
 5679W        W21813   6.471  10.484  11.849  0.1241  0.0210  0.1858
 5680W        W21814  10.837  18.022  13.196  0.2313  0.4521 -0.2158
 5681W        W21815   4.888  16.509  11.094 -0.0685 -0.1199  0.2744
 5682W        W21816  16.382  11.023   1.540  0.1686  0.2604  0.0637
 5683W        W21817  11.731   6.076   6.038 -0.0751  0.2611 -0.0072
 5684W        W21818   0.578  12.371   0.003  0.4639  0.0711  0.1139
 5685W        W21819   3.365  14.602   2.082  0.1095 -0.0560 -0.1671
 5686W        W21820   5.296   9.552   5.183 -0.0843  0.0792  0.2002
 5687W        W21821  17.039  15.176  14.712 -0.0485  0.0642 -0.1123
 5688W        W21822   2.335  18.067  12.249 -0.1878 -0.0569 -0.2524
 5689W        W21823  13.350  13.734  10.615 -0.0553  0.0164  0.1444
 5690W        W21824   3.245   8.010   1.289  0.2946  0.2057 -0.5331
 5691W        W21825   3.386   2.315   1.560  0.2168  0.1694 -0.0539
 5692W        W21826  14.663  14.097   2.522  0.5957  0.5467 -0.0283
 5693W        W21827   7.994   7.548  13.017  0.2745 -0.0827  0.0141
 5694W        W21828  15.487  10.810  15.585 -0.3077  0.0535  0.0136
 5695W        W21829  14.660   0.551   4.328 -0.2512  0.2751 -0.2315
 5696W        W21830   6.472   4.020   0.104  0.1060  0.0174 -0.0238
 5697W        W21831   6.231  16.446  16.410  0.1628 -0.2678 -0.0440
 5698W        W21832   4.040   5.844  12.470  0.0684  0.1033  0.5076
 5699W        W21833   4.105   2.658  16.360 -0.3100 -0.2471  0.0917
 5700W        W21834  16.031  16.168  12.844  0.2434 -0.0465 -0.0046
 5701W        W21835  13.825  12.554  12.220  0.0432  0.2106 -0.0309
 5702W        W21836  17.699   4.380   3.026  0.1877 -0.2300  0.1322
 5703W        W21837  13.312  11.362  15.700  0.1522 -0.3215  0.2765
 5704W        W21838   4.560  14.098  11.464  0.0332  0.0638 -0.0591
 5705W        W21839  15.128   4.894  15.995 -0.2976 -0.0837 -0.2488
 5706W        W21840  12.692   6.250   5.021  0.2894  0.0769 -0.1938
 5707W        W21841   8.860   4.800   0.596  0.0191 -0.1224 -0.1642
 5708W        W21842  10.975   6.595   0.293  0.0436  0.2745 -0.2454
 5709W        W21843   1.288   6.170  12.914  0.1090 -0.2289  0.0532
 5710W        W21844  10.971   1.354   0.532  0.1979  0.0738 -0.0746
 5711W        W21845   3.022  12.881  12.841  0.0048  0.1717 -0.0824
 5712W        W21846   7.933  15.110   1.256 -0.1356 -0.0342  0.1911
 5713W        W21847   1.346   4.453   3.023  0.0007 -0.0362 -0.3158
 5714W        W21848  16.339  15.061  16.221 -0.0303  0.0100  0.1221
 5715W        W21849  12.385  16.144  12.739  0.3766  0.0493 -0.2426
 5716W        W21850  10.987  16.427  15.636  0.0645  0.2272  0.1511
 5717W        W21851   6.301  11.088  15.966 -0.2205  0.2778 -0.1114
 5718W        W21852   2.983   8.538   4.102  0.0320 -0.0146 -0.0719
 5719W        W21853   5.013  14.943   1.802  0.1850  0.2925  0.2759
 5720W        W21854   9.806  16.789   5.037  0.1032 -0.0071 -0.0994
 5721W        W21855   1.402   3.838  15.506 -0.0040 -0.1635  0.4663
 5722W        W21856   4.400  14.127  12.827 -0.0438 -0.2544 -0.1759
 5723W        W21857  10.501  11.267   2.772 -0.1054  0.1083 -0.0554
 5724W        W21858  11.785   9.138  15.849  0.2682  0.0437  0.1771
 5725W        W21859  12.552   4.523  14.640 -0.3546  0.1752 -0.1233
 5726W        W21860   9.376   8.812  13.228 -0.1548 -0.2278  0.1441
 5727W        W21861   6.334   3.250   2.359 -0.1016 -0.0320 -0.0294
 5728W        W21862  10.092   2.848   2.004 -0.0784  0.0905 -0.0513
 5729W        W21863   1.229   7.686   0.484  0.1768 -0.0004 -0.0433
 5730W        W21864   5.093  12.766   1.813 -0.3139 -0.0837  0.4139
 5731W        W21865   5.148   6.405  12.018  0.1177  0.0459  0.1682
 5732W        W21866   4.979  12.571   1.392  0.0983  0.0268  0.1016
 5733W        W21867   8.655   0.900  11.887  0.2980  0.0884 -0.2509
 5734W        W21868  18.085   7.473  11.294  0.0020 -0.1431  0.0374
 5735W        W21869  14.868   2.870  12.881  0.0310 -0.2396 -0.0370
 5736W        W21870   6.738   6.545   2.225 -0.0468  0.1780 -0.0621
 5737W        W21871   0.149  17.560  13.866  0.2326 -0.1191  0.1773
 5738W        W21872   0.264   7.638   3.565 -0.1054  0.1653 -0.2694
 5739W        W21873   3.841   7.938   4.549  0.0234  0.2095  0.2354
 5740W        W21874   2.424   5.775   2.832  0.0871 -0.1937  0.0849
 5741W        W21875   1.880   9.511  15.160 -0.2780  0.2791  0.1163
 5742W        W21876  17.348   5.815  13.612 -0.1627 -0.4448  0.0508
 5743W        W21877   5.043   4.322   0.741  0.1922  0.1610 -0.1969
 5744W        W21878   4.241   0.495  14.611  0.0978 -0.0900  0.0698
 5745W        W21879   3.717   4.120  12.962  0.1653  0.0443  0.0816
 5746W        W21880   0.469   2.991  12.992 -0.1398  0.2118  0.3759
 5747W        W21881  14.135  16.939   4.072  0.0812  0.1394  0.1970
 5748W        W21882   5.516   9.341   4.775 -0.1198 -0.0656  0.1737
 5749W        W21883   8.005  10.683  12.963  0.2674 -0.1981 -0.1004
 5750W        W21884   8.927   6.519   3.427  0.1160  0.2663 -0.0412
 5751W        W21885  16.274  15.902   5.368  0.0541 -0.1684 -0.0588
 5752W        W21886  17.637   4.322  12.328  0.0399 -0.0660 -0.2105
 5753W        W21887  17.143  16.362  10.809 -0.1089 -0.2034  0.1691
 5754W        W21888  12.080  16.179   3.926  0.0567  0.1283  0.2436
 5755W        W21889   3.407  13.911   3.461  0.2050  0.3893 -0.2883
 5756W        W21890  14.041   2.474   3.665  0.1424  0.0439  0.0122
 5757W        W21891   1.104  13.173   5.343 -0.0909 -0.0846  0.0941
 5758W        W21892  17.116   3.103   5.236  0.0666 -0.1473  0.0845
 5759W        W21893   4.342  14.074   3.310 -0.2051 -0.0502  0.2952
 5760W        W21894   1.223   9.791  12.316 -0.2440 -0.2096  0.1386
 5761W        W21895  12.506   7.886   3.865 -0.0694 -0.1748 -0.2044
 5762W        W21896   0.640   7.156  13.536 -0.0633 -0.1251 -0.2467
 5763W        W21897   7.817   2.009  12.973  0.3844  0.2474  0.1663
 5764W        W21898   3.857  10.096  13.077  0.0527 -0.0342  0.2085
 5765W        W21899   3.729   9.479   3.569 -0.0246 -0.0505  0.0140
 5766W        W21900   8.803  11.433   2.785 -0.0012  0.0193  0.0528
 5767W        W21901   7.180   0.488  11.112  0.0885 -0.0864  0.3557
 5768W        W21902  16.122   2.436   4.499 -0.3204 -0.2901  0.4150
 5769W        W21903  15.285   5.511   5.278  0.0678  0.0860 -0.1711
 5770W        W21904  16.330  15.974   1.367  0.1911 -0.0942 -0.3285
 5771W        W21905   4.938  16.721   2.958 -0.0428 -0.1224  0.0700
 5772W        W21906  12.839   9.153  13.232 -0.3420  0.0314 -0.0417
 5773W        W21907   1.217   6.174  14.512  0.0642  0.0125 -0.1403
 5774W        W21908   2.274   2.479   2.730  0.0128 -0.1266 -0.1090
 5775W        W21909  14.609   7.895  14.669  0.1543  0.1712 -0.2471
 5776W        W21910   5.562   8.090   5.420  0.2174 -0.0107  0.1722
 5777W        W21911  11.517  16.759   0.625 -0.0103 -0.1530  0.2918
 5778W        W21912  15.623   0.313  15.698  0.1858  0.1963 -0.1801
 5779W        W21913   3.650  14.150   1.602 -0.0970  0.5160 -0.2782
 5780W        W21914   1.936   2.053   6.022  0.0203 -0.1915  0.0553
 5781W        W21915  17.302   8.771   0.735 -0.4496  0.2066 -0.0328
 5782W        W21916   1.252   6.153  13.975 -0.0040  0.3875  0.0344
 5783W        W21917  17.574  12.591  10.522 -0.1096 -0.1312 -0.0338
 5784W        W21918  12.635  17.584  13.923  0.0355  0.0108 -0.3014
 5785W        W21919  10.890  12.027  12.860 -0.0539 -0.2636  0.0775
 5786W        W21920  14.464  17.600   3.328  0.0528 -0.3009  0.0427
 5787W        W21921   5.746  15.627  13.261  0.2127 -0.0291 -0.1839
 5788W        W21922   1.544   8.252   4.964 -0.1229  0.0790 -0.0540
 5789W        W21923   9.762  11.230   5.281 -0.2582  0.0743 -0.2166
 5790W        W21924  15.485  12.177  14.882  0.0059  0.5347  0.1477
 5791W        W21925  13.875   3.414   3.947  0.1665  0.0672 -0.3876
 5792W        W21926   7.530   5.969   4.049  0.0012  0.1166 -0.0975
 5793W        W21927   4.588   5.405  16.297 -0.3226 -0.1025 -0.1720
 5794W        W21928  11.047   3.509  15.137 -0.0864 -0.0082  0.0625
 5795W        W21929  12.505  14.314  14.463 -0.0438 -0.1153  0.3540
 5796W        W21930  10.660   1.577  14.918 -0.0990 -0.2112 -0.1379
 5797W        W21931  13.432   6.298  13.651 -0.1752 -0.1648  0.1789
 5798W        W21932  13.598   9.435   5.035  0.1976  0.1184 -0.1110
 5799W        W21933  14.425   4.800   0.884  0.1304 -0.1777  0.1929
 5800W        W21934  15.729  16.064  15.696  0.1793 -0.0258  0.0238
 5801W        W21935  13.736   3.104  12.251  0.1709 -0.1112  0.0047
 5802W        W21936   8.710   6.561  14.827  0.1115  0.2230 -0.1415
 5803W        W21937  15.006  12.404   4.752 -0.2175  0.0791  0.0204
 5804W        W21938  15.671  15.590   4.939 -0.1515  0.0335  0.3689
 5805W        W21939  14.914   1.034   2.546 -0.0800  0.1580 -0.1907
 5806W        W21940  12.245   8.565   3.843 -0.1414  0.2093  0.1878
 5807W        W21941  13.789  11.852   2.545 -0.2392  0.0833 -0.0146
 5808W        W21942  10.008   0.507   0.508  0.1092 -0.1878 -0.1875
 5809W        W21943  14.846   7.979  12.097  0.0640 -0.0178  0.2395
 5810W        W21944   2.606   5.747  15.001 -0.1623 -0.0493  0.1057
 5811W        W21945   8.781  11.804   3.218 -0.0306 -0.1184  0.0703
 5812W        W21946  11.016  12.854   3.452 -0.2032  0.3093  0.4007
 5813W        W21947  12.542   5.727   0.424 -0.1814  0.0017  0.1537
 5814W        W21948   5.757   1.722   1.883  0.0788 -0.0787  0.3003
 5815W        W21949   8.140   0.362  14.773  0.3843 -0.0860  0.0570
 5816W        W21950  10.235   2.133  13.857  0.0609  0.3224  0.1044
 5817W        W21951  16.680  14.699  12.553  0.0180  0.0110 -0.0377
 5818W        W21952  17.723   2.513   1.782  0.0493  0.0495  0.1329
 5819W        W21953   2.677   4.939   3.503 -0.2445 -0.0469 -0.1651
 5820W        W21954  14.363   0.405   4.718  0.1041  0.2404  0.1341
 5821W        W21955   0.867   8.025  15.117 -0.0370 -0.0433 -0.4504
 5822W        W21956  15.690   1.114  13.627  0.1183  0.0173  0.0719
 5823W        W21957  10.257   5.936   0.941  0.1220 -0.0888 -0.0541
 5824W        W21958   1.368   2.217   4.445 -0.0033 -0.1656  0.0363
 5825W        W21959   0.297   0.724   1.417  0.1808 -0.2172  0.0576
 5826W        W21960   6.463  17.544  15.814  0.3391 -0.0302  0.2130
 5827W        W21961   2.692   2.508   4.015  0.0427  0.1736 -0.4116
 5828W        W21962   2.047  11.532   1.919 -0.0424 -0.1030  0.1135
 5829W        W21963   1.229  10.140  16.251 -0.2138  0.1555  0.0190
 5830W        W21964   0.111   3.449  16.277  0.0049  0.1585  0.0187
 5831W        W21965   0.134  17.738   5.513  0.0973 -0.3548 -0.2270
 5832W        W21966  15.322   7.324   5.300 -0.0255 -0.0051 -0.1344
 5833W        W21967   4.730   3.662   1.443 -0.2695 -0.1868 -0.0616
 5834W        W21968  10.841  16.215   3.884 -0.2205  0.1830  0.1656
 5835W        W21969  11.339   2.352  15.488  0.1045  0.0566 -0.0752
 5836W        W21970   0.223   5.400  13.154 -0.1647  0.3124 -0.1049
 5837W        W21971   1.801   1.919  15.844 -0.2169  0.2075  0.1725
 5838W        W21972  17.106  14.206   5.826  0.0958 -0.2728  0.5777
 5839W        W21973   0.759   7.665   3.593 -0.0499 -0.2931 -0.2957
 5840W        W21974  16.213   9.275  15.278 -0.0949  0.0895 -0.2593
 5841W        W21975  12.599   9.202   4.845  0.1567 -0.0588  0.1133
 5842W        W21976  13.253  15.480   5.073  0.1272  0.1287 -0.0911
 5843W        W21977  13.674   2.728  14.856  0.2141 -0.1679  0.0697
 5844W        W21978   9.995  16.692  13.562 -0.3559 -0.0417  0.0000
 5845W        W21979  11.208  13.162   1.027 -0.1033  0.0515 -0.0288
 5846W        W21980  13.866   9.664  16.258 -0.1800 -0.0268 -0.1666
 5847W        W21981  12.623   2.718   1.066 -0.0804  0.3295 -0.2556
 5848W        W21982   1.724   5.274   0.141  0.0647 -0.0897  0.2245
 5849W        W21983  16.927   1.010   2.515 -0.3394  0.2124 -0.0332
 5850W        W21984  11.966   9.007   0.798 -0.0112  0.1097 -0.0496
 5851W        W21985  12.019   0.395   5.158 -0.2934 -0.1340  0.0729
 5852W        W21986  17.842   4.059   0.316 -0.2481 -0.2223 -0.0017
 5853W        W21987  16.160  12.940   3.143 -0.1281  0.1747  0.0373
 5854W        W21988   6.126  14.593  12.754  0.1257 -0.0821 -0.0419
 5855W        W21989  10.670   4.029   5.007 -0.1292 -0.0387 -0.0779
 5856W        W21990  16.596   0.603   0.065 -0.1062  0.3551  0.0573
 5857W        W21991   4.754  14.260   3.518 -0.1497 -0.1039  0.3492
 5858W        W21992  16.432   7.636   2.497 -0.2902  0.1715 -0.0778
 5859W        W21993  13.759   3.375   5.782  0.1255  0.0948 -0.2544
 5860W        W21994   5.570   0.672  13.974  0.2355 -0.4076 -0.2371
 5861W        W21995  14.112   4.476  14.994 -0.0047  0.2762 -0.0562
 5862W        W21996  17.166   3.431   3.141  0.0191  0.2162 -0.1002
 5863W        W21997   9.510  15.541  12.851 -0.0006  0.1217 -0.0581
 5864W        W21998  16.841   3.900   5.444  0.0445 -0.1553 -0.1541
 5865W        W21999   4.603  15.121   0.494  0.2108 -0.0383  0.1260
 5866W        W22000  11.815   6.144  11.248  0.1051  0.0081 -0.2400
 5867W        W22001   7.407   6.063   1.200  0.1779  0.0451  0.1838
 5868W        W22002   6.600   8.392   4.295  0.4969 -0.1495 -0.0755
 5869W        W22003   0.068   3.668   0.394  0.1133  0.0629  0.1952
 5870W        W22004  10.749   1.749  11.564  0.0801 -0.2753 -0.1570
 5871W        W22005   2.207   0.046   1.653 -0.1186  0.1702 -0.2302
 5872W        W22006  13.108   8.383  11.250  0.0565 -0.3260 -0.2272
 5873W        W22007   8.410   9.597  15.134 -0.3655  0.1841  0.2806
 5874W        W22008   5.490   8.112  14.383 -0.0384 -0.3199  0.4167
 5875W        W22009  11.266   2.772   1.752  0.2474 -0.1281  0.1265
 5876W        W22010  18.060  16.482  15.428 -0.1682 -0.1425  0.2841
 5877W        W22011   8.540  17.866   1.722 -0.3471 -0.1310  0.1217
 5878W        W22012   0.726  12.123  13.329  0.1056 -0.1284 -0.4703
 5879W        W22013  14.942   7.853  15.935 -0.3419  0.0680 -0.0334
 5880W        W22014  14.584   3.663  12.328  0.0967 -0.1083 -0.1870
 5881W        W22015   9.748   2.885   0.693  0.2536  0.2544 -0.0179
 5882W        W22016  12.804  14.791  14.700 -0.1615  0.0243  0.1336
 5883W        W22017  13.973   9.489  14.264 -0.2564 -0.0786 -0.1132
 5884W        W22018   4.833   3.297  11.600  0.2672  0.0558  0.1469
 5885W        W22019   6.872   0.467  14.376 -0.0318  0.1258 -0.0326
 5886W        W22020  17.303   8.364   5.644 -0.0900  0.1714 -0.0635
 5887W        W22021   9.430   8.843  13.838 -0.1051  0.2418  0.0001
 5888W        W22022  11.230  16.665  13.239 -0.1693 -0.4577  0.0980
 5889W        W22023   4.341   2.881   5.179 -0.2439  0.0619  0.1279
 5890W        W22024   5.915  17.597   1.424  0.4145 -0.1493 -0.1187
 5891W        W22025   5.685  12.881  12.225 -0.1673  0.1902  0.1316
 5892W        W22026   9.857   2.835  14.696 -0.2513  0.1172  0.3481
 5893W        W22027  17.999   1.647   1.067 -0.0134  0.1893 -0.1665
 5894W        W22028   1.861  16.429   2.468 -0.0020 -0.1642 -0.5050
 5895W        W22029   8.013  15.342  14.124 -0.1560 -0.1375  0.1069
 5896W        W22030  16.025   3.435   4.592  0.0078  0.0289  0.2035
 5897W        W22031  12.236  14.653  16.380 -0.2131  0.0528  0.0517
 5898W        W22032   0.922   3.164  11.404 -0.3068  0.1482  0.1143
 5899W        W22033  11.913  13.445   3.973 -0.1995  0.1990  0.0760
 5900W        W22034   3.521  17.609   0.555  0.1235 -0.1377 -0.0851
 5901W        W22035  11.459   1.217   3.123  0.0588 -0.1180  0.1647
 5902W        W22036  10.200  11.335   5.576 -0.1982 -0.3070 -0.0768
 5903W        W22037  11.434  13.215   4.137 -0.0334  0.1617 -0.1239
 5904W        W22038   1.182  17.337  16.192  0.0036 -0.3598 -0.0492
 5905W        W22039   4.304  14.544   3.499 -0.0922 -0.1174  0.1226
 5906W        W22040   2.255   1.822   3.084  0.0521  0.1304  0.4858
 5907W        W22041   9.817   0.434  11.942  0.0408 -0.0377  0.3646
 5908W        W22042   3.285  12.929   3.976 -0.0688 -0.0227 -0.0755
 5909W        W22043   3.300   3.580  15.336 -0.1253 -0.1916  0.2574
 5910W        W22044   8.749  10.339  15.500 -0.2024 -0.1913  0.0806
 5911W        W22045  13.593   3.104  13.910 -0.3387 -0.4010 -0.0585
 5912W        W22046   0.233  17.907   3.845 -0.0028 -0.0627 -0.1602
 5913W        W22047   4.804  11.221  13.456 -0.0313 -0.4546 -0.0782
 5914W        W22048   8.382   7.272  13.314  0.1107 -0.0428 -0.0375
 5915W        W22049   6.313   1.874   5.509  0.1208 -0.0181 -0.3499
 5916W        W22050   1.070  15.776  15.520 -0.2596 -0.1059 -0.3155
 5917W        W22051   9.635   6.872   1.364 -0.2364  0.1333 -0.0275
 5918W        W22052   5.119   8.838  15.119 -0.2385  0.0891  0.2092
 5919W        W22053  10.853  13.627  15.037  0.0968  0.1915 -0.0060
 5920W        W22054   7.346   5.288  15.335  0.3210 -0.3814  0.1425
 5921W        W22055   4.350   7.446   3.761 -0.0003  0.0386  0.0715
 5922W        W22056   5.545  16.372   3.813  0.0213 -0.4178  0.0293
 5923W        W22057   5.319   1.475   5.267  0.1634 -0.4074 -0.1185
 5924W        W22058   6.075   1.020   1.566  0.1124 -0.0119 -0.3358
 5925W        W22059   2.461   2.270  12.198 -0.0316 -0.0301  0.0375
 5926W        W22060   3.514   1.597   2.204 -0.1106  0.1605 -0.1915
 5927W        W22061   4.857   9.676  11.628  0.2653  0.2358 -0.3308
 5928W        W22062   8.161   1.709  13.128  0.1197 -0.1581 -0.1709
 5929W        W22063   5.191  14.518  15.811  0.2110 -0.1165 -0.2749
 5930W        W22064   2.610   6.503  15.640 -0.3569  0.0717 -0.3089
 5931W        W22065   9.370   3.418   5.936 -0.0316 -0.1012 -0.2234
 5932W        W22066   8.476   6.639   2.214  0.0589 -0.0701  0.2534
 5933W        W22067   2.498   1.428  13.477 -0.0323 -0.0220  0.2815
 5934W        W22068  10.576  14.475  12.341 -0.0793 -0.2070 -0.0676
 5935W        W22069   8.354  17.269   4.977 -0.2093  0.2822  0.1236
 5936W        W22070   5.776   9.553   2.169  0.1431  0.0941  0.1074
 5937W        W22071   6.409   5.403   1.401  0.0283  0.1218 -0.1048
 5938W        W22072   3.552   9.701  15.843  0.2194 -0.1174  0.2084
 5939W        W22073  14.932  16.868   0.574 -0.0370 -0.1277 -0.0320
 5940W        W22074   7.747   8.331  15.045  0.0300 -0.0883 -0.0058
 5941W        W22075   5.497  10.188  13.273  0.0439 -0.1526  0.0805
 5942W        W22076   0.639   4.461  13.064 -0.4725  0.2881  0.0871
 5943W        W22077   2.513  10.390   1.310  0.1912  0.3634 -0.0908
 5944W        W22078  17.146   9.177   5.267  0.1017 -0.2023 -0.0415
 5945W        W22079  10.686  13.512   1.816  0.1776  0.1252 -0.0681
 5946W        W22080   4.623  16.643  11.525  0.1640  0.0540  0.1649
 5947W        W22081   5.699   5.572  14.230 -0.0547  0.0848 -0.0549
 5948W        W22082   8.807   2.993  11.842 -0.0553 -0.0213  0.1701
 5949W        W22083  15.430   8.461   1.426  0.2052 -0.0358 -0.0172
 5950W        W22084   5.472   1.726   0.692 -0.1819 -0.3209  0.0450
 5951W        W22085  11.517   7.122  10.535  0.4920 -0.0374 -0.0668
 5952W        W22086   4.937  13.934   1.568  0.2139 -0.0457 -0.3306
 5953W        W22087  11.034  13.690   1.501 -0.1843 -0.1245  0.1111
 5954W        W22088   9.595  10.167   1.427  0.0460 -0.0095 -0.2877
 5955W        W22089   2.349  11.206   4.658 -0.2218  0.0314  0.2251
 5956W        W22090  13.965   3.881   4.141 -0.2642  0.1122  0.0549
 5957W        W22091  10.101  11.103   6.792 -0.0080  0.4249 -0.2480
 5958W        W22092   0.523   5.816  16.314 -0.2291  0.2065 -0.1004
 5959W        W22093   4.956   5.537  12.917  0.0131  0.2535  0.1112
 5960W        W22094   3.490  14.996   2.557  0.0934 -0.0248  0.0236
 5961W        W22095  14.421   6.337  13.260 -0.2048 -0.0648  0.1529
 5962W        W22096   4.163   2.140   0.486  0.0524 -0.3345 -0.1707
 5963W        W22097   5.235  16.753   3.544 -0.0846  0.1525  0.6125
 5964W        W22098  11.989  10.826  15.366 -0.0781  0.0714 -0.1181
 5965W        W22099   2.530  16.119  14.738  0.4746 -0.1167 -0.1322
 5966W        W22100  13.087   1.022  14.698  0.0215 -0.1069 -0.1125
 5967W        W22101   4.198   1.662   0.416 -0.1297 -0.2649 -0.3549
 5968W        W22102  12.360   6.088  13.622  0.1111  0.2404 -0.2396
 5969W        W22103  15.384   5.046  13.455 -0.0439  0.1337  0.0989
 5970W        W22104   1.289   1.992   6.371 -0.0094 -0.0542 -0.2247
 5971W        W22105   9.914  16.090   3.899  0.0514 -0.0265 -0.0173
 5972W        W22106   4.665   5.795   1.582 -0.0652  0.0503  0.1221
 5973W        W22107  13.870   1.281   1.042  0.1856 -0.3954  0.5003
 5974W        W22108   7.463  12.278   3.185  0.0578 -0.0812 -0.1083
 5975W        W22109  17.965   7.070   2.708 -0.1064 -0.0778 -0.0685
 5976W        W22110  10.178  12.492  13.420  0.1193 -0.0153 -0.1006
 5977W        W22111   3.741   5.390   3.040  0.0144  0.2863  0.0948
 5978W        W22112  17.546  17.085  11.720 -0.1371 -0.0307  0.1445
 5979W        W22113   0.994   3.610   3.005  0.0235 -0.0079  0.0405
 5980W        W22114   8.739   6.330   6.090  0.0761  0.0846 -0.0508
 5981W        W22115  14.739   1.933   0.558 -0.2579 -0.0576 -0.1184
 5982W        W22116  15.181   2.333   2.009  0.1849  0.3223 -0.0959
 5983W        W22117   5.838  12.402  13.139 -0.1483 -0.0708  0.0591
 5984W        W22118   7.537   6.079   0.251 -0.0123  0.0785 -0.2040
 5985W        W22119   5.497   2.527   2.750 -0.1480  0.1962  0.0619
 5986W        W22120  14.403  15.632   2.322 -0.1202  0.4693 -0.0680
 5987W        W22121  15.488  13.461   0.979  0.3277  0.0071  0.0405
 5988W        W22122  13.863   8.794   1.301  0.1910 -0.0310 -0.1026
 5989W        W22123  12.418  16.787  14.605 -0.1122  0.1767 -0.2144
 5990W        W22124   9.231  12.611  15.351 -0.1206  0.2941 -0.3247
 5991W        W22125   6.849   7.342  15.624 -0.3689 -0.2089 -0.1145
 5992W        W22126   9.508  17.420   3.913  0.2173 -0.1509  0.0026
 5993W        W22127  17.604   2.952   3.439  0.2450 -0.1236 -0.0699
 5994W        W22128   1.163   3.885  13.041 -0.0373 -0.0526  0.0363
 5995W        W22129  15.290   5.915   1.529  0.1455  0.0279 -0.0735
 5996W        W22130   5.337   6.085  15.306  0.1963 -0.0980  0.1226
 5997W        W22131   6.213   9.530  15.310 -0.0753  0.0667 -0.0094
 5998W        W22132   1.044  13.488   4.028  0.0595 -0.1258  0.1903
 5999W        W22133  14.627   3.639  11.492  0.0691 -0.0631 -0.1428
 6000W        W22134   3.969  14.811  12.477  0.2039  0.0122  0.0088
 6001W        W22135  17.024   3.577  14.231 -0.0165  0.1026 -0.2918
 6002W        W22136   2.509   4.463   3.470  0.2264  0.1414 -0.1646
 6003W        W22137   4.442  15.415  12.287  0.1616  0.2528 -0.0709
 6004W        W22138   4.418  15.047   2.085  0.1043 -0.2111  0.0280
 6005W        W22139   7.661   8.743   4.212 -0.1241 -0.1844 -0.1149
 6006W        W22140  13.815   3.452  14.894  0.0419  0.1379  0.1456
 6007W        W22141  15.113  12.086  12.887 -0.0914  0.0479  0.0789
 6008W        W22142  11.666   5.619   1.497  0.0414 -0.0202 -0.4035
 6009W        W22143   9.957  13.200   5.543  0.2768 -0.1134 -0.0280
 6010W        W22144   2.954  14.488   3.186  0.2541  0.0183 -0.0509
 6011W        W22145   6.157   8.630  11.315 -0.1174  0.4023 -0.0199
 6012W        W22146   8.328   9.743   3.658  0.0548 -0.1754 -0.0163
 6013W        W22147   8.426  11.158   4.590  0.1892  0.0521  0.0587
 6014W        W22148  17.028  14.246   2.017  0.3098  0.0535 -0.3608
 6015W        W22149  17.633   5.938  13.158  0.0893 -0.2037 -0.2389
 6016W        W22150   2.899  12.328   3.176  0.3529  0.2187  0.0017
 6017W        W22151  16.255   7.655   5.232 -0.0111  0.1781  0.1262
 6018W        W22152   3.299   6.646  11.520  0.1398  0.0018  0.1951
 6019W        W22153   9.275   1.050   4.083  0.1737 -0.0287  0.2079
 6020W        W22154   5.760   4.368   2.729 -0.3902 -0.0597 -0.1332
 6021W        W22155  17.343  12.117   4.896  0.1426  0.0016 -0.2108
 6022W        W22156   2.930   3.160   0.235  0.2766 -0.0022  0.1311
 6023W        W22157   6.986  12.596  10.344 -0.1645 -0.1763  0.1858
 6024W        W22158  13.078  13.174   4.566  0.0843 -0.1812  0.2424
 6025W        W22159  14.918   7.877   3.636 -0.2574  0.0222 -0.1686
 6026W        W22160   8.395   2.179   3.383  0.0810  0.0024  0.0284
 6027W        W22161  10.911   5.289   0.670 -0.0550  0.2730  0.1408
 6028W        W22162  10.266  15.850  11.410  0.0131 -0.0332 -0.2941
 6029W        W22163  10.502   8.833   4.095  0.1018 -0.1153  0.0514
 6030W        W22164   5.588  17.540   1.007 -0.0462  0.1701 -0.1414
 6031W        W22165  16.507   8.716   0.067  0.1617  0.2553  0.1150
 6032W        W22166  10.588   2.285  12.169 -0.0688  0.0801 -0.1057
 6033W        W22167  15.983   0.348  11.749 -0.1839 -0.0863  0.0467
 6034W        W22168   9.344   9.098  16.208 -0.0417  0.0156  0.2601
 6035W        W22169   8.744  12.432   1.172  0.0889 -0.1832  0.1770
 6036W        W22170  13.387  10.652   5.524 -0.1302 -0.0535 -0.0742
 6037W        W22171  17.495   3.121  11.822  0.0534  0.0560  0.0509
 6038W        W22172  12.980  12.697   4.596 -0.6421 -0.2438  0.1301
 6039W        W22173  12.083   3.373  13.658 -0.1753 -0.0629 -0.0460
 6040W        W22174  13.096   8.870   2.855 -0.0004 -0.0199  0.1228
 6041W        W22175  12.617  12.852  12.319 -0.0536 -0.2354  0.0812
 6042W        W22176   0.629  14.336   0.096 -0.1612 -0.0205 -0.2158
 6043W        W22177  13.213   2.185   4.039 -0.0246 -0.0578  0.1100
 6044W        W22178   3.379  15.261  15.749 -0.0411 -0.1136  0.2895
 6045W        W22179   4.786  12.506   2.956  0.1933 -0.0494  0.0991
 6046W        W22180   4.094  16.726  14.011 -0.0431  0.2826  0.0660
 6047W        W22181   0.274  17.049  11.565  0.1157  0.3493 -0.0210
 6048W        W22182  15.875   7.614   3.875 -0.1361  0.3194  0.0313
 6049W        W22183  10.152  17.396  15.213  0.1970 -0.0720  0.3452
 6050W        W22184   7.180   0.012   5.234 -0.0897 -0.0739 -0.0230
 6051W        W22185   1.783  17.646  13.212 -0.0413 -0.2077  0.1421
 6052W        W22186   3.511  16.676  14.852 -0.0403  0.1825 -0.0332
 6053W        W22187  15.074  12.746  14.674 -0.0330  0.4384 -0.1649
 6054W        W22188   1.321  10.855  15.410 -0.0577  0.2809  0.0653
 6055W        W22189  15.431   1.292  14.019  0.2865  0.0026  0.3358
 6056W        W22190   8.923   8.103  14.277 -0.1544  0.0457  0.1285
 6057W        W22191  12.930  16.277  11.531 -0.0019 -0.0932 -0.1172
 6058W        W22192  15.633   5.181  12.737  0.0689  0.3338 -0.0382
 6059W        W22193  12.217  17.880   2.715 -0.1233  0.0374 -0.1602
 6060W        W22194   8.380  15.351   2.844 -0.0364  0.0185 -0.0194
 6061W        W22195   8.710  13.582  13.037  0.0855  0.2470 -0.1938
 6062W        W22196  12.685  12.856   1.525  0.1487 -0.1009  0.1378
 6063W        W22197   0.419   6.032   1.585 -0.0323  0.2874  0.1708
 6064W        W22198  14.155   9.643   0.274  0.2869  0.2472 -0.0397
 6065W        W22199   4.397   1.183   1.280  0.1241  0.1846  0.0233
 6066W        W22200   0.001   1.006  13.062  0.3021  0.0425 -0.0849
 6067W        W22201  11.037   4.554  12.783  0.1378  0.1340  0.1586
 6068W        W22202   0.343  10.564  16.186 -0.1012 -0.1146 -0.0921
 6069W        W22203  17.683   2.127  11.674  0.1060 -0.0219 -0.0525
 6070W        W22204  10.399  12.190  13.006 -0.0866 -0.2834 -0.1277
 6071W        W22205   4.694   9.876  14.599 -0.4900 -0.1008 -0.1210
 6072W        W22206   0.300   7.677  11.696  0.0094 -0.2163  0.0278
 6073W        W22207   3.833   8.206  13.423  0.0298  0.0812  0.1337
 6074W        W22208  15.387  17.047  13.639  0.0113 -0.1648  0.1555
 6075W        W22209   4.066  15.254  14.144  0.1699  0.1146  0.0189
 6076W        W22210  10.054   4.076  12.298  0.3506 -0.2705 -0.0592
 6077W        W22211   2.727   4.545   0.150 -0.1526  0.1288 -0.2475
 6078W        W22212  13.993  10.456  13.177 -0.0020 -0.2182  0.1940
 6079W        W22213  11.723  10.714   2.919 -0.1720 -0.2537  0.0776
 6080W        W22214  15.129   5.308  11.223  0.2351 -0.1676  0.3699
 6081W        W22215  10.081   9.667   1.867 -0.0848 -0.1075  0.1016
 6082W        W22216   1.670   7.606   1.375  0.2236  0.0456 -0.0267
 6083W        W22217  16.939   8.620  14.955  0.0988 -0.0781 -0.0126
 6084W        W22218   3.696  13.248   0.598  0.0084 -0.0423  0.0618
 6085W        W22219   0.292  13.260   2.480  0.1703 -0.1989  0.0062
 6086W        W22220  10.778  17.172   5.017 -0.0116  0.0144 -0.1866
 6087W        W22221  12.686  11.466   2.037  0.0306 -0.1755 -0.0555
 6088W        W22222  16.207  16.740   0.130 -0.2520 -0.1556 -0.0832
 6089W        W22223  16.994   1.754  14.442  0.2566 -0.1318  0.2104
 6090W        W22224  10.346  14.442  11.464  0.0100 -0.0823 -0.2807
 6091W        W22225  11.859   2.206   0.327  0.1057 -0.2129 -0.2855
 6092W        W22226  14.801  10.993   1.173  0.1020 -0.1090 -0.0132
 6093W        W22227  14.163   5.918   2.082 -0.4187 -0.2432 -0.0950
 6094W        W22228  11.351  10.443   2.841  0.0095  0.0255  0.1476
 6095W        W22229   1.845   2.835   3.401 -0.0533 -0.2639 -0.1209
 6096W        W22230   7.549   8.852   0.011 -0.1861 -0.0062 -0.1194
 6097W        W22231   0.855  13.435   0.578 -0.0734  0.2568  0.0089
 6098W        W22232   8.332  11.092   2.543 -0.3973  0.0868  0.1081
 6099W        W22233   2.555  16.334  16.336 -0.0652 -0.1355 -0.0610
 6100W        W22234  17.448   4.832   1.235  0.0848 -0.1032  0.0880
 6101W        W22235   2.675   4.131   3.844 -0.0467 -0.1967 -0.0357
 6102W        W22236   9.416   4.607  16.171 -0.2313 -0.0420 -0.0352
 6103W        W22237   7.779   6.906   4.307 -0.1520  0.1805  0.0356
 6104W        W22238   4.801   3.560   5.517 -0.1124  0.0795  0.0684
 6105W        W22239  17.225   8.573   3.361 -0.0633  0.1107  0.1028
 6106W        W22240   5.886  15.999   0.014  0.2584 -0.0052 -0.1994
 6107W        W22241  17.650  12.469   1.356  0.0151  0.2216 -0.3666
 6108W        W22242   6.588  15.804   2.630  0.0481 -0.0552 -0.1463
 6109W        W22243   8.518  11.990   5.658 -0.0635  0.2555  0.0997
 6110W        W22244   9.281   4.443  10.747  0.0707  0.0648  0.1550
 6111W        W22245   8.977   0.439   5.112 -0.0161 -0.0340  0.0355
 6112W        W22246   1.951  16.888  16.376  0.1041  0.0395  0.2404
 6113W        W22247   0.432   5.082   4.861 -0.0155  0.0608  0.0754
 6114W        W22248  13.985   3.404  11.850  0.1704 -0.2912 -0.0675
 6115W        W22249  14.377   3.513   0.483 -0.0858  0.2275  0.2076
 6116W        W22250   1.586   4.422   1.692 -0.0849  0.1619 -0.0698
 6117W        W22251  11.928   3.094   0.524 -0.0484  0.0840  0.4982
 6118W        W22252   2.501  12.612  14.166  0.0104  0.0369  0.0314
 6119W        W22253  11.917  14.936  15.959 -0.0525  0.1093 -0.1797
 6120W        W22254  15.317  12.145   4.365  0.0881  0.0495 -0.0460
 6121W        W22255  17.168  17.026   5.552  0.0316 -0.3153  0.0526
 6122W        W22256  16.575  14.278   4.137 -0.1357  0.3250  0.0257
 6123W        W22257   6.702  12.263   4.753  0.0952 -0.0083  0.1177
 6124W        W22258  12.839  16.077   6.063  0.0072 -0.1156 -0.4242
 6125W        W22259   0.985  17.592   3.595 -0.0951 -0.0253  0.2003
 6126W        W22260   0.113  10.857  13.957  0.0703 -0.0310  0.2196
 6127W        W22261   2.010   4.278  11.411  0.0384 -0.4249 -0.1148
 6128W        W22262   4.070   7.170  14.087  0.1017 -0.0685  0.2000
 6129W        W22263   3.158  10.732  11.300  0.1976 -0.1478 -0.0388
 6130W        W22264  12.535   1.024   4.538 -0.1507 -0.0280  0.1582
 6131W        W22265   2.589   7.888   1.981  0.0871  0.0436  0.1904
 6132W        W22266  16.920  11.984  12.468 -0.2463 -0.0891 -0.3595
 6133W        W22267  10.813   2.608  12.582  0.0658 -0.0409 -0.1553
 6134W        W22268   3.621   2.086   5.577  0.2765 -0.1224 -0.0017
 6135W        W22269   0.326  16.835  15.561  0.0448 -0.1707  0.0862
 6136W        W22270  12.514   2.443  11.843  0.0818 -0.0483  0.1139
 6137W        W22271   5.699  13.877  11.750 -0.0494 -0.0976 -0.2084
 6138W        W22272   5.924   2.891   0.506 -0.0936  0.0889  0.1390
 6139W        W22273   4.590  11.758   3.696  0.0372  0.3434 -0.0890
 6140W        W22274   2.621   3.633  12.437  0.0849 -0.0109 -0.0674
 6141W        W22275   5.525   6.822  16.062 -0.0878 -0.0310  0.1301
 6142W        W22276   4.793  14.396   3.000  0.1215  0.1054 -0.0132
 6143W        W22277   0.700  14.522   3.674 -0.2453  0.1807 -0.0287
 6144W        W22278   7.367   2.329  12.930  0.0340  0.2520 -0.2934
 6145W        W22279   6.052  17.048   4.703 -0.2781 -0.0963  0.1334
 6146W        W22280  15.002  16.333   2.672 -0.0184 -0.0510 -0.1695
 6147W        W22281   0.072   4.566  10.371 -0.0361  0.3268  0.0994
 6148W        W22282  12.893   9.536  13.796 -0.0628  0.0898 -0.0882
 6149W        W22283   2.447  10.529   0.821  0.1027  0.0423 -0.0344
 6150W        W22284   7.979   0.760  11.600 -0.1177 -0.2093  0.1985
 6151W        W22285   9.890   5.824  11.807  0.1451 -0.1001 -0.0271
 6152W        W22286   9.756   1.556   1.992 -0.4854  0.1370  0.0101
 6153W        W22287   2.663   2.419  12.772 -0.3206  0.1413 -0.1570
 6154W        W22288   7.674   0.263   5.548 -0.0580 -0.1378 -0.0430
 6155W        W22289   1.334  11.173   3.917 -0.1095  0.1296 -0.1730
 6156W        W22290  17.122  11.339   1.993 -0.0539  0.1646  0.1043
 6157W        W22291  17.690  10.254   2.198  0.0010 -0.1462  0.3569
 6158W        W22292   5.481   4.022   2.946 -0.0204 -0.0228  0.2433
 6159W        W22293  11.097  11.294  15.390  0.0341 -0.0797  0.1843
 6160W        W22294   6.796  11.339   4.352  0.0992  0.0258 -0.2291
 6161W        W22295   3.545  11.852   5.882 -0.3219 -0.2175 -0.1773
 6162W        W22296  17.412   7.503  14.545  0.1034 -0.1081  0.0203
 6163W        W22297   3.852   4.822   0.440 -0.3672  0.2366 -0.0402
 6164W        W22298   4.271   8.312  12.539  0.2058 -0.1595 -0.0932
 6165W        W22299   1.335   2.800   5.119 -0.2718  0.3572 -0.0974
 6166W        W22300  13.247  17.546   1.310 -0.2343 -0.0288  0.3970
 6167W        W22301   6.708  14.029  15.260  0.2799  0.1547 -0.0986
 6168W        W22302  17.706  12.551   5.597  0.2187  0.2700  0.2963
 6169W        W22303  13.343   8.197   3.635 -0.6893  0.2052 -0.3267
 6170W        W22304   6.325  15.757   3.964 -0.0192 -0.2276  0.0480
 6171W        W22305  15.529  16.200   5.791  0.2558 -0.0069  0.0399
 6172W        W22306   9.528  10.202   3.098  0.1447 -0.2728 -0.1053
 6173W        W22307   5.630  15.373   3.395  0.1138 -0.1775  0.0567
 6174W        W22308  17.429  15.311  12.811 -0.1798 -0.2026 -0.0874
 6175W        W22309   8.895  17.625   5.090  0.2262  0.2728 -0.1390
 6176W        W22310   6.798   4.081   0.616 -0.1530 -0.1410 -0.0347
 6177W        W22311   1.534   8.077   0.194 -0.1372 -0.2159 -0.0080
 6178W        W22312  12.303   0.748   4.957 -0.1271  0.1961  0.3310
 6179W        W22313  12.650  16.967  11.844  0.2679 -0.0768 -0.1369
 6180W        W22314   9.195  17.733   5.674 -0.1196 -0.2022 -0.0062
 6181W        W22315  14.991   4.397  16.175  0.0588  0.1691 -0.3614
 6182W        W22316  16.707   8.300  14.516 -0.2128 -0.0628  0.2029
 6183W        W22317   7.705  13.683  15.231  0.2981 -0.1881 -0.0128
 6184W        W22318  17.062   3.412  15.401 -0.4718 -0.1023  0.0817
 6185W        W22319  15.002  14.653  11.252  0.1841 -0.0003  0.1089
 6186W        W22320   4.375  13.982   2.154 -0.3452  0.4230 -0.0028
 6187W        W22321   4.241   6.248   4.319  0.3013 -0.1651 -0.0018
 6188W        W22322   0.665  10.396   4.847 -0.3222 -0.2275  0.0857
 6189W        W22323   8.914  14.981   0.103 -0.1427 -0.2114  0.0009
 6190W        W22324   6.150   8.734   2.687 -0.2203  0.2874  0.1742
 6191W        W22325  11.324   4.799  14.502 -0.1819 -0.2604 -0.0949
 6192W        W22326   3.342   7.466  15.702  0.1248  0.1375  0.2713
 6193W        W22327  10.994   7.955   4.079  0.1070  0.2365  0.3444
 6194W        W22328  15.923  12.982  13.802  0.3496  0.0901  0.0463
 6195W        W22329   3.824  14.535   2.611 -0.0170 -0.1250  0.3498
 6196W        W22330  17.996   3.972   0.778 -0.0754 -0.0026 -0.1757
 6197W        W22331   4.316   4.799  13.467 -0.2655 -0.0817  0.0392
 6198W        W22332   2.570  10.667   5.191  0.3818  0.1616 -0.0896
 6199W        W22333  15.281   3.749  10.281 -0.0986 -0.0318 -0.2797
 6200W        W22334  15.952   6.651   3.317  0.2737 -0.3195  0.0083
 6201W        W22335  10.494   1.594   2.574  0.4538 -0.0629 -0.2884
 6202W        W22336  16.398   9.646  14.566 -0.0115  0.3648  0.0256
 6203W        W22337  14.962   8.729   1.432  0.1316  0.3390  0.2461
 6204W        W22338   5.275  12.490  15.148 -0.2134  0.2968 -0.3396
 6205W        W22339   0.713   3.423   5.031  0.0093 -0.1683  0.0520
 6206W        W22340   4.340   2.157  16.372  0.1061 -0.3443 -0.1277
 6207W        W22341  13.137  17.066  12.503 -0.2817  0.1272  0.1717
 6208W        W22342   7.038   6.929  11.708 -0.1133  0.0522  0.1670
 6209W        W22343   6.940  12.728  11.850  0.0673 -0.0455 -0.0786
 6210W        W22344   5.469  10.173  11.913 -0.1707 -0.1027 -0.1972
 6211W        W22345  13.431   4.131   1.952 -0.0088  0.0448  0.1440
 6212W        W22346   9.529   0.650   0.531  0.1352  0.0681 -0.0980
 6213W        W22347  12.389  14.770   4.301 -0.0051  0.1862 -0.0636
 6214W        W22348   6.382   9.707  14.906 -0.5450 -0.0908 -0.0203
 6215W        W22349   1.292  11.686  11.536 -0.3386 -0.0270  0.0800
 6216W        W22350  10.321   2.348   0.666 -0.2326  0.0900 -0.2291
 6217W        W22351  10.895  15.783   1.018 -0.1932  0.3757 -0.2849
 6218W        W22352  14.411   7.759   2.804  0.0740 -0.2078 -0.0456
 6219W        W22353   1.863  12.757  14.830 -0.0029  0.0263  0.3001
 6220W        W22354   7.209  14.615   2.197 -0.1731 -0.1186 -0.0121
 6221W        W22355   7.352  16.588  14.328 -0.0542 -0.1319 -0.1009
 6222W        W22356  11.354   9.351  13.071 -0.4270  0.0688  0.0012
 6223W        W22357   7.402  14.383  11.608  0.3436  0.3288 -0.0202
 6224W        W22358   5.260  14.514   5.312  0.2614  0.4633  0.1101
 6225W        W22359  13.294  15.712  14.468  0.0320 -0.1274 -0.0749
 6226W        W22360   1.106   1.607   0.039  0.1007  0.0578  0.0965
 6227W        W22361  15.640  11.234   1.138 -0.2779 -0.2036  0.1862
 6228W        W22362   6.847   9.281  15.745  0.2402 -0.0067  0.0782
 6229W        W22363   6.011   8.812   0.590  0.1016 -0.0658  0.1480
 6230W        W22364  17.476  13.837  15.207  0.0054  0.0167 -0.2384
 6231W        W22365  16.941  18.083   0.189 -0.2440 -0.2000 -0.0767
 6232W        W22366   8.293   7.548   0.234  0.0839  0.2409  0.0912
 6233W        W22367   6.640   7.120   2.214  0.1173 -0.0176  0.0330
 6234W        W22368   4.293   3.546   0.098 -0.1316 -0.0418  0.1356
 6235W        W22369  13.204   2.808  13.665 -0.0061 -0.3844 -0.1379
 6236W        W22370  11.343  11.126   5.246 -0.0608  0.1796  0.1938
 6237W        W22371   8.802  11.231  15.983 -0.2587 -0.1496 -0.0029
 6238W        W22372  13.082  11.186  12.777 -0.0501 -0.0560  0.1810
 6239W        W22373   8.702  14.431   2.951 -0.1476 -0.2455 -0.3875
 6240W        W22374   2.319  13.904   3.069 -0.2095 -0.1763  0.1777
 6241W        W22375  12.234  11.338   2.409  0.0630 -0.3314  0.0736
 6242W        W22376  15.285   3.173  15.855  0.1419 -0.3739  0.6545
 6243W        W22377  11.932   7.287  12.713 -0.1408 -0.1647  0.2005
 6244W        W22378   2.186  15.668   4.926 -0.0213  0.1794 -0.0992
 6245W        W22379   1.805   0.827   2.409 -0.3115  0.0763  0.1449
 6246W        W22380   8.266  14.760  13.904 -0.3182  0.1767 -0.1484
 6247W        W22381   9.438  10.313   5.842  0.2014  0.0509 -0.0765
 6248W        W22382  17.784   1.439   2.649  0.0835 -0.1086 -0.0223
 6249W        W22383   0.323   2.501   3.804  0.0242 -0.0302 -0.2929
 6250W        W22384   3.778   5.609  14.365 -0.0422 -0.0863 -0.2792
 6251W        W22385   3.147   5.807  13.331 -0.0887 -0.2408  0.0209
 6252W        W22386   2.736   3.800   1.332  0.2875  0.1906  0.0380
 6253W        W22387   6.133  13.562  12.236  0.0029 -0.1516  0.1759
 6254W        W22388   4.392   6.561  13.641  0.2033  0.0296  0.0822
 6255W        W22389   0.518   4.935  10.982 -0.2137 -0.1662 -0.0395
 6256W        W22390   9.410  14.919   0.280  0.3830 -0.0874 -0.1078
 6257W        W22391   5.132  14.687  13.266  0.2907  0.0706 -0.1095
 6258W        W22392   2.396   3.855  11.108 -0.0188  0.1645 -0.1378
 6259W        W22393   2.470  14.229  13.616  0.1091 -0.4289  0.0473
 6260W        W22394   9.497  15.827   1.035  0.4602 -0.0390 -0.1815
 6261W        W22395  17.142  14.922  15.862  0.3791 -0.2498  0.0532
 6262W        W22396  11.662  10.103   2.743 -0.1695  0.2166 -0.1503
 6263W        W22397   0.636  17.018  15.079  0.0395  0.0085  0.5210
 6264W        W22398   3.807  16.337  14.061  0.1249 -0.4956 -0.3118
 6265W        W22399  17.730   5.440  12.869 -0.0309 -0.2156  0.0393
 6266W        W22400  15.795  13.005  15.620 -0.2847  0.0394 -0.2564
 6267W        W22401   1.855  15.219   5.624 -0.0850 -0.3492  0.0132
 6268W        W22402   9.372  18.020  14.735  0.2097  0.1732 -0.0856
 6269W        W22403  13.228   9.231   4.035 -0.0262 -0.2458 -0.0447
 6270W        W22404   2.135   5.051  15.324 -0.2573 -0.2443  0.0555
 6271W        W22405  15.296  17.053   0.233 -0.4904 -0.0520  0.0540
 6272W        W22406  12.549  13.715  11.686 -0.1731 -0.1972 -0.1450
 6273W        W22407  17.327  11.650  12.620  0.0048 -0.0077  0.1516
 6274W        W22408   3.232   3.995   4.514  0.1476  0.1498  0.2666
 6275W        W22409   1.879   6.867   0.965  0.0937 -0.0722 -0.1352
 6276W        W22410   1.677   9.202   3.004 -0.1774  0.0275 -0.5415
 6277W        W22411   7.992  12.704   5.094  0.3117  0.1555  0.3521
 6278W        W22412   9.868   1.449  14.076 -0.1971 -0.0686 -0.1500
 6279W        W22413   9.421   5.694   5.824  0.3531 -0.0027 -0.0864
 6280W        W22414  11.689   6.808  15.764  0.2466 -0.0329  0.0150
 6281W        W22415   8.181  17.414  12.183 -0.1041  0.1599 -0.0575
 6282W        W22416   0.687   4.495   0.390  0.2812  0.2262  0.0682
 6283W        W22417  10.998   1.990  12.140  0.0329  0.1016 -0.1232
 6284W        W22418  14.036  10.231   2.872 -0.0747  0.0560  0.0809
 6285W        W22419  15.243  10.201   5.362  0.2423 -0.0201  0.0353
 6286W        W22420   0.345  17.494  16.388 -0.2536  0.1561  0.0584
 6287W        W22421  15.815  10.598  13.443 -0.0727  0.2334  0.2459
 6288W        W22422   0.770   9.459   0.295  0.0770  0.2349  0.1880
 6289W        W22423   3.936  17.134   3.192 -0.1427  0.1875  0.1946
 6290W        W22424   4.373  16.501  13.260 -0.0295  0.2298 -0.1552
 6291W        W22425   5.413  18.054   4.171  0.1207  0.3318  0.1654
 6292W        W22426  16.033  17.113  14.223  0.0138  0.1903 -0.3967
 6293W        W22427  13.528  12.111   2.224 -0.0676 -0.1560  0.1955
 6294W        W22428  13.854   1.418   2.663  0.2268 -0.1203 -0.1218
 6295W        W22429   6.344   1.787   4.067  0.2735 -0.1063  0.2472
 6296W        W22430  16.090   8.462  13.940 -0.2202  0.0335  0.3135
 6297W        W22431   9.228   2.770   3.212  0.0654  0.3566 -0.0186
 6298W        W22432   5.166  13.035   4.148 -0.0770 -0.3627 -0.0413
 6299W        W22433  10.078   7.227   0.303 -0.0892 -0.3196  0.2500
 6300W        W22434  11.272  13.202  13.471  0.2056 -0.0192  0.1117
 6301W        W22435  11.245  16.568   5.675 -0.0466 -0.0828 -0.1141
 6302W        W22436   9.590   6.586   4.793 -0.1445 -0.0793  0.0887
 6303W        W22437  13.355   4.224   1.023  0.1703  0.0298 -0.0587
 6304W        W22438   1.760   6.981   4.071  0.1815  0.1059  0.0404
 6305W        W22439  12.397  11.752   5.445 -0.0803  0.1798  0.2537
 6306W        W22440   6.426   9.922   1.105 -0.6142 -0.0900 -0.1734
 6307W        W22441  16.934   0.002  11.219 -0.1392  0.1092 -0.3737
 6308W        W22442   1.626   1.556  16.214 -0.2926  0.2365  0.2388
 6309W        W22443   7.056  16.282  16.132  0.0191  0.3000  0.0841
 6310W        W22444   2.251   7.387   2.662 -0.0585  0.2979 -0.2186
 6311W        W22445   7.658  16.073  14.903  0.0501 -0.0253  0.2251
 6312W        W22446   3.161   4.416   5.907  0.0849  0.2307  0.1121
 6313W        W22447   4.009  13.828  12.514 -0.0922 -0.2442 -0.2025
 6314W        W22448   7.299   2.940  16.260 -0.0429  0.0944 -0.0203
 6315W        W22449  10.372   2.419  12.661  0.5677 -0.0008  0.3285
 6316W        W22450   2.608   6.359  15.096 -0.0346 -0.0740 -0.0792
 6317W        W22451  13.457  17.795   1.828 -0.6156 -0.0059 -0.1496
 6318W        W22452  14.113   3.453   1.768 -0.0387 -0.1449 -0.1679
 6319W        W22453  13.822  16.751   3.125  0.3428 -0.0731  0.1194
 6320W        W22454   7.092   1.039   4.035 -0.1863 -0.1012 -0.3097
 6321W        W22455  15.907   7.889   0.748 -0.0505  0.2377  0.2487
 6322W        W22456   7.217  15.321   2.733  0.0127 -0.0675  0.4019
 6323W        W22457  10.716   9.189   3.623 -0.1530  0.1760  0.2892
 6324W        W22458  11.107  17.223  15.016 -0.1575  0.1898 -0.0116
 6325W        W22459  15.448  12.010  15.927 -0.0767 -0.0526 -0.0871
 6326W        W22460   1.591  16.260  14.837 -0.0345  0.0272  0.2482
 6327W        W22461   9.167  10.819  16.282 -0.4404  0.0422  0.0471
 6328W        W22462   7.420  16.081  14.154  0.2931 -0.2086  0.1757
 6329W        W22463  17.169  10.656  11.721  0.1802  0.1194  0.2506
 6330W        W22464   4.678  11.746   4.215 -0.0634  0.1547  0.2633
 6331W        W22465   4.082  15.147   4.765 -0.2065  0.0717  0.2779
 6332W        W22466  13.424   9.415   3.577 -0.0196 -0.0275 -0.0505
 6333W        W22467  12.840  13.691   0.402  0.1413  0.0213 -0.3102
 6334W        W22468  15.957  13.470  10.546 -0.3018 -0.3087  0.0227
 6335W        W22469  15.423  15.408   5.715 -0.2014  0.0458 -0.4317
 6336W        W22470  14.472   8.909   0.795 -0.0307 -0.0503 -0.1057
 6337W        W22471  11.957   5.555  14.211  0.2680 -0.0507  0.2572
 6338W        W22472   8.176   3.039  12.653  0.0469  0.0971 -0.1395
 6339W        W22473   1.394   1.119  14.340  0.2266 -0.3117  0.2894
 6340W        W22474  10.170  12.758   3.859  0.2266 -0.0511 -0.1706
 6341W        W22475  13.166   8.472  13.248 -0.1014  0.0448 -0.0593
 6342W        W22476   3.952   8.453   3.672  0.1338 -0.1116 -0.1177
 6343W        W22477  14.921   5.194   0.338  0.3443 -0.1730 -0.1594
 6344W        W22478  10.840  17.477   4.073  0.1273  0.0196  0.3322
 6345W        W22479   4.539  11.567   4.984  0.0550  0.1859  0.2324
 6346W        W22480  15.322  14.551  13.109 -0.2250  0.0045  0.3205
 6347W        W22481  10.231  10.938  14.967 -0.1961 -0.2046 -0.2979
 6348W        W22482   8.761   6.246  12.164 -0.1817  0.1732 -0.0846
 6349W        W22483   7.663   0.062   2.053  0.5901  0.0488 -0.1168
 6350W        W22484  15.272   6.492   0.702  0.1106 -0.0434 -0.0887
 6351W        W22485   2.255   8.561  14.535 -0.1401 -0.1033 -0.0997
 6352W        W22486   1.806   8.708   3.506  0.1853  0.1324 -0.0018
 6353W        W22487   3.525   2.586  16.251  0.2646 -0.0108  0.1714
 6354W        W22488   9.308  13.116   3.910  0.0871 -0.1954 -0.0853
 6355W        W22489  11.371   7.340  15.570  0.3752 -0.2429  0.1677
 6356W        W22490   3.257   5.211  11.529  0.0435  0.2233  0.1270
 6357W        W22491  14.314   7.843   4.897  0.2296  0.1324  0.1242
 6358W        W22492   8.333   2.722   1.509 -0.1684  0.3295 -0.1190
 6359W        W22493   0.659  10.263   0.043  0.2327 -0.0820 -0.2768
 6360W        W22494   6.810  11.288   0.428 -0.1399  0.1394 -0.1023
 6361W        W22495  15.662  13.510   2.620 -0.0543  0.3481 -0.2460
 6362W        W22496   0.082   7.491   2.080  0.0200  0.2154  0.2138
 6363W        W22497   1.870   4.028   1.925  0.0610 -0.0233 -0.0640
 6364W        W22498  13.235  13.159   1.518  0.2492  0.2123  0.2159
 6365W        W22499  12.079   6.561   0.099 -0.0033  0.0907  0.0668
 6366W        W22500   2.462  17.346   3.762  0.1920  0.4362  0.0694
 6367W        W22501   3.490  15.894   0.203 -0.0575 -0.0266 -0.0936
 6368W        W22502  16.062   8.869  15.069  0.3403 -0.1815  0.1062
 6369W        W22503  16.026   3.700  14.278 -0.1188  0.1389  0.2449
 6370W        W22504   1.444  13.019  14.880 -0.0297  0.1231 -0.1732
 6371W        W22505   3.893  17.912   0.391  0.2441 -0.1268 -0.0065
 6372W        W22506  12.546  13.442   5.675 -0.1624  0.0334 -0.3145
 6373W        W22507  18.035   7.316  11.780  0.0363  0.0638 -0.1645
 6374W        W22508  14.095  12.231  11.390 -0.1979  0.0840 -0.3082
 6375W        W22509   5.120  17.660   3.862 -0.1056  0.0780  0.2800
 6376W        W22510   4.187   5.133  16.264  0.2836 -0.1593 -0.0926
 6377W        W22511   4.368   7.617  14.167 -0.0315 -0.1641  0.0978
 6378W        W22512   2.383   3.575  15.377 -0.0469 -0.0637  0.0984
 6379W        W22513   6.317   5.935  14.069  0.2510  0.0635 -0.1080
 6380W        W22514  17.262  15.527   4.427  0.0903 -0.0602  0.0984
 6381W        W22515  10.450  13.787  14.683  0.2375  0.1224  0.0647
 6382W        W22516   3.293   5.455  13.645 -0.0678 -0.0128 -0.2525
 6383W        W22517   2.623   9.862   2.231  0.1704  0.0094  0.2927
 6384W        W22518   5.419  15.700  12.504  0.2671 -0.0454 -0.0373
 6385W        W22519  16.251   6.179   5.023 -0.1612 -0.0207  0.1603
 6386W        W22520  16.477  10.013  11.299 -0.0019 -0.1547  0.0734
 6387W        W22521   9.969   8.083  13.459 -0.0743  0.1084  0.2590
 6388W        W22522  10.269  17.665   0.397 -0.0093  0.0510 -0.0218
 6389W        W22523  10.745  10.604  11.527  0.0819 -0.0594 -0.1383
 6390W        W22524  17.667   7.829  16.072  0.6445  0.0724  0.0943
 6391W        W22525  16.903  15.860   1.664 -0.0697  0.2260  0.0007
 6392W        W22526   9.783   6.497  12.258  0.2793 -0.0222  0.0707
 6393W        W22527   7.231   2.455   5.278  0.2907 -0.2224 -0.1559
 6394W        W22528  13.425   1.514  12.965  0.0690  0.3081  0.0395
 6395W        W22529  15.482  16.319  15.173  0.1106  0.0990  0.1027
 6396W        W22530   1.288   1.732  15.233 -0.1961  0.3667  0.0780
 6397W        W22531   8.781  15.258   2.619  0.1327  0.0170 -0.1681
 6398W        W22532   5.539   7.616   3.551  0.1208 -0.0393 -0.0193
 6399W        W22533  13.961   9.324  13.776  0.0803  0.1617 -0.0210
 6400W        W22534   3.140  11.709   0.625 -0.2328 -0.1673  0.0191
 6401W        W22535  10.450   6.214  14.608 -0.0885 -0.0262  0.0326
 6402W        W22536  15.312  14.892  15.116 -0.0402  0.0731 -0.0134
 6403W        W22537   1.134  11.771   3.002  0.0159  0.3964 -0.1330
 6404W        W22538  11.945   1.134  15.804  0.0569  0.2086  0.0063
 6405W        W22539   7.764   8.653   2.084 -0.0312  0.1767  0.1783
 6406W        W22540   2.005  15.851  11.995  0.1433  0.1741 -0.3120
 6407W        W22541  11.348  11.996  13.122  0.1921  0.5499 -0.0776
 6408W        W22542   6.593  15.766  10.513  0.2303 -0.1536 -0.0832
 6409W        W22543   3.355   9.915   2.330  0.1491 -0.1222  0.3521
 6410W        W22544   0.157  17.866  16.125 -0.0727 -0.1893 -0.1999
 6411W        W22545  16.149   2.425  14.874  0.2042 -0.1522  0.0487
 6412W        W22546   4.077   7.015   1.678 -0.1115  0.3501 -0.0913
 6413W        W22547  10.154  16.504   4.526 -0.2551  0.1969  0.1212
 6414W        W22548  10.829   3.073  15.998  0.0864  0.1665 -0.2163
 6415W        W22549  12.416   0.630  11.542  0.2216 -0.3073  0.1581
 6416W        W22550  10.328   8.106   2.955  0.0544 -0.0802 -0.1485
 6417W        W22551  10.140   6.492   3.767 -0.1021  0.1333 -0.0562
 6418W        W22552   5.060   1.274  11.055  0.0276  0.0861  0.1060
 6419W        W22553   9.531   6.719   3.765 -0.1124 -0.1021 -0.1077
 6420W        W22554  11.678   2.461   1.923  0.1253 -0.4481  0.1438
 6421W        W22555   8.818  13.185  11.749  0.0901  0.0844  0.2436
 6422W        W22556  10.695  17.961  15.075 -0.0392 -0.0726 -0.2646
 6423W        W22557  14.839   5.960   5.082 -0.0928 -0.1772  0.4111
 6424W        W22558   0.284  11.178   1.447  0.1829  0.1989  0.1317
 6425W        W22559  13.744  17.944   5.054 -0.0056 -0.1479 -0.0664
 6426W        W22560   5.253   3.921  13.633  0.0653 -0.1123 -0.1753
 6427W        W22561   4.932   5.296   4.033  0.1671 -0.1185  0.2377
 6428W        W22562  15.659   6.677  16.248 -0.0785  0.0588 -0.0843
 6429W        W22563   5.623   2.823   4.745  0.1479 -0.1562  0.3245
 6430W        W22564   7.380   4.727  15.901 -0.1163 -0.0404  0.1555
 6431W        W22565  17.889  14.407   5.309 -0.1146  0.0095 -0.1207
 6432W        W22566  13.163  11.011   5.865 -0.0073  0.1854 -0.0975
 6433W        W22567  12.041   4.098  11.420 -0.1921  0.3255  0.1291
 6434W        W22568  13.250   2.173  12.917 -0.0104 -0.1188 -0.0338
 6435W        W22569  12.778   8.288  15.877  0.1346 -0.0199 -0.0289
 6436W        W22570  13.315   6.650  16.134 -0.0045 -0.1174 -0.0561
 6437W        W22571   4.798  17.944  11.584 -0.1308 -0.2412  0.3494
 6438W        W22572   0.559   4.145  12.476  0.3121  0.2156  0.0282
 6439W        W22573  12.638  12.220   1.378  0.1066  0.0370  0.0311
 6440W        W22574   6.461  10.041   4.208  0.1218 -0.1962 -0.0829
 6441W        W22575  11.345   0.783  14.623  0.1233 -0.0558 -0.2757
 6442W        W22576  11.583  14.142  11.329  0.3428  0.1609 -0.1724
 6443W        W22577  11.222   3.743   3.393  0.2578  0.0444 -0.0862
 6444W        W22578   3.876   4.662  11.713 -0.0463  0.2055 -0.1216
 6445W        W22579  17.244   1.827   5.922  0.0053  0.1379 -0.0518
 6446W        W22580  13.150  16.043  14.116 -0.3066  0.0521 -0.0102
 6447W        W22581   1.844  10.488   5.076  0.1650  0.0049  0.0197
 6448W        W22582   3.425  13.350   5.353 -0.1746  0.1561 -0.2246
 6449W        W22583  14.798   5.704  10.586  0.1745 -0.0802 -0.1986
 6450W        W22584   9.809   0.046  14.928 -0.0478  0.1579  0.1123
 6451W        W22585  10.355   6.011  11.923  0.1545  0.1408 -0.0141
 6452W        W22586  12.175  12.366   4.268  0.0840 -0.0112  0.0842
 6453W        W22587  10.508   5.657  16.117  0.0224 -0.0810 -0.2035
 6454W        W22588  14.716   1.059   5.102  0.5643 -0.1940  0.2207
 6455W        W22589   6.040   3.317  15.765 -0.2644  0.0397 -0.0631
 6456W        W22590  11.814  15.949  13.718 -0.1265 -0.2006  0.1032
 6457W        W22591   4.855   4.131   2.401 -0.0908 -0.1323 -0.0663
 6458W        W22592  12.785   4.239   0.148 -0.2457 -0.3722 -0.0608
 6459W        W22593   9.723  11.054  14.476  0.1448  0.2355 -0.0663
 6460W        W22594  14.963  16.807   4.021  0.0292 -0.0047 -0.1279
 6461W        W22595   6.558  17.901   0.675 -0.0918 -0.0359  0.2969
 6462W        W22596   7.490  10.634   2.199 -0.0711 -0.0160 -0.1004
 6463W        W22597  10.292   1.082   5.100  0.2305 -0.2252  0.1952
 6464W        W22598   0.795  13.633   5.772 -0.1070 -0.0863  0.3212
 6465W        W22599   9.484   3.521  11.444  0.3354 -0.0436  0.1675
 6466W        W22600   8.686  14.520   5.658 -0.2796  0.1411  0.3523
 6467W        W22601  16.444  16.857  14.178 -0.1810  0.3494 -0.1320
 6468W        W22602   5.741   8.024  13.896 -0.2183  0.0267  0.0340
 6469W        W22603   6.442  15.483   1.380 -0.2332 -0.0568  0.1670
 6470W        W22604   8.959   0.886  12.300 -0.0431  0.1075  0.2341
 6471W        W22605  13.486   7.512   1.316  0.1338  0.0943 -0.4369
 6472W        W22606   8.722  14.079   4.794 -0.1801  0.2631 -0.1535
 6473W        W22607   0.148  15.533  15.732  0.2739  0.0732 -0.2677
 6474W        W22608   4.432   7.612  15.507 -0.2645  0.3030 -0.0999
 6475W        W22609   8.218   6.332  11.433 -0.1178  0.1320 -0.0340
 6476W        W22610   0.697   0.443   5.309 -0.1666 -0.2500  0.1825
 6477W        W22611  12.840   0.768   1.815  0.2323 -0.1606 -0.1443
 6478W        W22612   0.413   8.624  15.519  0.1926 -0.0666 -0.2091
 6479W        W22613   3.043  11.186  11.064  0.1294  0.1110  0.0996
 6480W        W22614  15.891   7.685  11.380  0.0034 -0.1491 -0.0320
 6481W        W22615   6.375   5.340   3.808 -0.0066  0.1635 -0.0499
 6482W        W22616  10.897  17.429  15.888 -0.2008 -0.1182 -0.1573
 6483W        W22617  17.496  12.300   3.769  0.1290  0.3132  0.0658
 6484W        W22618   8.746   9.910  13.563 -0.1124  0.2512 -0.2502
 6485W        W22619   0.139  15.883   2.361 -0.1766  0.1328  0.0418
 6486W        W22620   6.304  16.293   4.119  0.0844 -0.1409  0.2262
 6487W        W22621   5.758   1.259   1.174  0.3509  0.3340 -0.1402
 6488W        W22622   0.712  15.457  15.226 -0.1447  0.3029  0.0144
 6489W        W22623  11.323  13.796  15.791  0.0597 -0.1329  0.2128
 6490W        W22624  17.004  11.767  13.493 -0.0589  0.2672  0.0430
 6491W        W22625   5.243   4.367   2.048 -0.2053 -0.2364  0.1556
 6492W        W22626   2.399   9.047   2.575 -0.0115  0.2103  0.2798
 6493W        W22627  16.255   6.717   0.743  0.3070 -0.3403 -0.1421
 6494W        W22628  16.606  16.001  15.246 -0.2179 -0.3170  0.1140
 6495W        W22629   0.735   2.139   2.630  0.0007 -0.1880 -0.0533
 6496W        W22630  17.770   9.346   2.374 -0.1367 -0.3931  0.2534
 6497W        W22631  16.433  17.140   0.332  0.0251 -0.0057 -0.1265
 6498W        W22632  17.123   1.935   2.034 -0.0399  0.2986 -0.0862
 6499W        W22633   2.359  13.906   4.583  0.0227 -0.2628  0.1819
 6500W        W22634   2.202   8.796  14.065 -0.3311  0.0420 -0.0557
 6501W        W22635  17.413   8.816  11.225  0.0396 -0.0902  0.0808
 6502W        W22636   3.398  14.991   3.281 -0.1559  0.3119  0.2676
 6503W        W22637  12.885  13.352  12.184 -0.3921  0.2045 -0.3645
 6504W        W22638   5.631  13.498   0.707  0.0885  0.0173  0.0429
 6505W        W22639  13.420   1.520   1.754  0.0079 -0.0499  0.0049
 6506W        W22640  11.123  10.870  11.343  0.0839 -0.2851  0.0145
 6507W        W22641   4.806   7.949   2.478 -0.1346 -0.2274  0.3369
 6508W        W22642   5.244  10.494  15.562  0.1390  0.2007  0.1202
 6509W        W22643   2.619   9.074  11.058  0.0107  0.1148 -0.0391
 6510W        W22644  11.002   7.091  12.531  0.4215  0.0041  0.1086
 6511W        W22645   7.322   4.968  12.266  0.0991  0.0475 -0.0668
 6512W        W22646   9.028   2.636   5.339  0.0022  0.1079 -0.0922
 6513W        W22647   8.313   8.203  14.908 -0.2778  0.0052  0.2793
 6514W        W22648  16.350  11.797  15.030  0.1055 -0.1236 -0.0517
 6515W        W22649  17.167  17.191  13.586 -0.0096  0.0217 -0.0128
 6516W        W22650  13.981  13.836   2.247 -0.0582  0.4342  0.2360
 6517W        W22651   3.771  15.550   3.893  0.1967 -0.1138 -0.4015
 6518W        W22652   1.600   4.041   1.170  0.1117 -0.0807 -0.1540
 6519W        W22653   1.052   3.498  15.316 -0.0850  0.0932 -0.1156
 6520W        W22654  14.308   3.017   3.888 -0.0125 -0.0512  0.0621
 6521W        W22655  17.545  16.826  12.596  0.1630  0.1342  0.3275
 6522W        W22656  17.628  10.317  16.300  0.0342  0.2437  0.0474
 6523W        W22657   4.683  10.642  14.864 -0.0909 -0.0380  0.0989
 6524W        W22658  13.311  10.496   1.274  0.0409  0.0961  0.0617
 6525W        W22659  17.251   6.370   2.861 -0.0626 -0.0934  0.0781
 6526W        W22660  17.191  16.456  14.159 -0.3380  0.1471 -0.1385
 6527W        W22661   8.068   3.090  14.660 -0.0502 -0.0526  0.1239
 6528W        W22662   4.804   6.833  15.520  0.2469  0.1904 -0.0016
 6529W        W22663   9.341  10.010   0.080 -0.2381 -0.2559 -0.1698
 6530W        W22664  13.536  11.206  13.935  0.1491 -0.0284 -0.0250
 6531W        W22665   4.639   3.322  12.413 -0.1285 -0.1871 -0.1163
 6532W        W22666  11.781   9.747   0.880 -0.1235 -0.0901 -0.0433
 6533W        W22667  11.877   8.943  14.957 -0.0887  0.3124  0.1262
 6534W        W22668   0.052  11.610   1.082  0.0409  0.1150 -0.1254
 6535W        W22669  16.265  15.076   5.450 -0.0259  0.0378 -0.0876
 6536W        W22670  14.252   1.422   3.878 -0.2899 -0.0672  0.0500
 6537W        W22671  15.205   1.680  15.223  0.2105 -0.0164  0.1591
 6538W        W22672   9.377  14.848  15.178  0.1049 -0.0968  0.0371
 6539W        W22673   1.080  14.037   4.957  0.1732  0.3370  0.1100
 6540W        W22674  17.482  10.122  14.484  0.0584  0.0148 -0.2735
 6541W        W22675  15.700  17.139   4.765  0.0178 -0.1102  0.1955
 6542W        W22676  10.104   4.208   0.670 -0.2055  0.0086  0.1176
 6543W        W22677  11.987  16.989   3.594  0.0522  0.2046 -0.1604
 6544W        W22678  12.950  12.886   3.218  0.4659 -0.2348  0.0438
 6545W        W22679   6.069   5.434  13.884 -0.0593 -0.0500  0.3197
 6546W        W22680   8.623  13.322   2.487 -0.0688  0.2994 -0.0184
 6547W        W22681   3.753   9.257  14.683 -0.0465 -0.0873 -0.0960
 6548W        W22682   9.205   6.976  12.037  0.1164  0.2125 -0.3112
 6549W        W22683   7.940  14.659  11.520  0.0526 -0.0306 -0.0184
 6550W        W22684  17.228  13.989  12.736 -0.3299  0.0456 -0.0973
 6551W        W22685  17.709   8.865   0.548 -0.1081  0.1987 -0.0832
 6552W        W22686   4.836  13.560  13.347 -0.0846  0.4339 -0.2370
 6553W        W22687  17.237  15.043   4.442 -0.1644  0.1807 -0.0193
 6554W        W22688  12.565   1.176  13.473 -0.0835  0.0959  0.1861
 6555W        W22689  16.856   7.575   3.611  0.0502 -0.0095  0.2574
 6556W        W22690   0.563  12.428  12.158 -0.2125  0.2018  0.0524
 6557W        W22691   8.697  13.313  14.528 -0.1429  0.2003 -0.1377
 6558W        W22692  15.664  13.030   2.354  0.1401  0.2145  0.4214
 6559W        W22693  15.286   9.912  14.725 -0.0690  0.2300  0.0097
 6560W        W22694  12.214  10.670   5.192  0.1736 -0.2339  0.1485
 6561W        W22695   5.438  13.533   3.475  0.0001  0.1236 -0.1708
 6562W        W22696   1.937   6.918  11.196 -0.1223 -0.0155  0.3002
 6563W        W22697   4.343   0.204  14.046 -0.2423  0.0492  0.0462
 6564W        W22698   2.755  14.104   1.337 -0.1945 -0.2768 -0.0010
 6565W        W22699  11.991   8.270   3.106 -0.0312  0.0347 -0.0732
 6566W        W22700  10.018   7.358   2.948  0.0689  0.1862  0.0004
 6567W        W22701  16.008  13.797   5.185  0.0389  0.0131 -0.1373
 6568W        W22702   0.521   4.314   4.642  0.1338  0.2495  0.0314
 6569W        W22703  13.495   2.584   0.896  0.1836 -0.4714 -0.0835
 6570W        W22704  12.041  15.580  15.189 -0.1095  0.0019 -0.1534
 6571W        W22705   7.514   4.748  13.162  0.1143 -0.0894 -0.3107
 6572W        W22706  13.716   9.968  12.688 -0.1476  0.0088  0.0215
 6573W        W22707   7.352  13.163  15.806 -0.3796 -0.0178 -0.1104
 6574W        W22708   0.240   2.650   5.029 -0.1606 -0.1093 -0.1493
 6575W        W22709   1.142  14.192  15.250  0.3197 -0.1541  0.3095
 6576W        W22710   8.293   1.506  10.859 -0.1302 -0.0258 -0.1007
 6577W        W22711  11.392  11.880   2.824 -0.1576 -0.0767 -0.0688
 6578W        W22712   1.897   7.747   3.389 -0.0539  0.0825  0.1666
 6579W        W22713  17.730  15.296   5.348  0.2675  0.3459  0.0545
 6580W        W22714  12.047  14.622  15.517  0.4652 -0.0820 -0.1446
 6581W        W22715  11.156  10.613  12.384  0.0322 -0.3578  0.1025
 6582W        W22716   7.304   7.547   0.193 -0.0516 -0.0256  0.1578
 6583W        W22717  16.973  10.036  13.695  0.2643  0.2300 -0.3965
 6584W        W22718  12.107   6.540  15.989 -0.0561 -0.0313  0.1009
 6585W        W22719   5.473   8.006  13.493 -0.3204 -0.2191  0.2253
 6586W        W22720   8.140   4.619   1.341  0.0696 -0.1589  0.0658
 6587W        W22721   8.635  13.413  15.550 -0.0843  0.1694 -0.1838
 6588W        W22722   9.099  13.621   3.323  0.2068 -0.0276  0.1013
 6589W        W22723  10.083  12.868   2.312 -0.0662  0.0632 -0.0550
 6590W        W22724   2.992   2.260   4.690 -0.1485 -0.1088 -0.3064
 6591W        W22725  10.848   9.529   2.603  0.3285 -0.0350 -0.2626
 6592W        W22726   6.087  12.951   1.375  0.0280 -0.0111  0.0019
 6593W        W22727   9.991   2.674   5.190 -0.2023  0.1216 -0.1723
 6594W        W22728  13.482  10.417  12.971 -0.2625 -0.0691 -0.1984
 6595W        W22729  11.331   0.671   3.235  0.1249 -0.0040 -0.3721
 6596W        W22730   3.498   5.932  12.437  0.0930 -0.1969  0.1864
 6597W        W22731  13.341  13.575  15.239 -0.2730  0.0317 -0.0740
 6598W        W22732   9.292  11.150  15.823  0.0439  0.0358  0.1132
 6599W        W22733   3.928   9.097   2.639  0.1353  0.0738 -0.4375
 6600W        W22734  15.152   1.257   3.047 -0.1792  0.0128  0.0834
 6601W        W22735  11.886   7.664   0.299  0.2427  0.0017  0.1871
 6602W        W22736   3.150  16.502   2.431 -0.1573 -0.0443 -0.2017
 6603W        W22737   3.841  13.795   6.089 -0.1467 -0.0536 -0.1341
 6604W        W22738   0.126   1.652  13.117 -0.0112 -0.1589 -0.3048
 6605W        W22739   3.545   7.699   3.159  0.0217 -0.0499  0.3299
 6606W        W22740  16.728  11.306   3.931 -0.0907  0.1948 -0.1388
 6607W        W22741   5.650  11.444  14.647  0.1998  0.0167  0.0197
 6608W        W22742   4.594   6.788   0.601 -0.2252  0.1050 -0.1386
 6609W        W22743   8.799  13.877  13.457  0.0326  0.1078 -0.1288
 6610W        W22744   6.827   0.278   2.444  0.2517  0.2922 -0.1653
 6611W        W22745   7.584   3.969  14.819 -0.0906 -0.0832  0.1939
 6612W        W22746   3.994   2.896   5.632  0.2382 -0.0478  0.1822
 6613W        W22747  11.924   5.435  15.569  0.1044  0.1198  0.3972
 6614W        W22748   7.407  11.319   2.883  0.0361  0.0216 -0.1728
 6615W        W22749  17.494   6.854  11.054  0.1877  0.1631  0.2804
 6616W        W22750   2.844  11.074   5.181  0.1056  0.0553  0.0607
 6617W        W22751  13.931   5.942   4.482 -0.1214  0.3003 -0.1508
 6618W        W22752  10.032  13.644  13.994  0.0777 -0.2657  0.1700
 6619W        W22753   4.488   4.574   5.354 -0.1695  0.3778  0.0706
 6620W        W22754  16.584   6.316  16.104  0.2932  0.1761  0.2258
 6621W        W22755   0.645   5.450   3.105  0.0888 -0.0625 -0.0237
 6622W        W22756  17.570  10.491   2.848 -0.0813  0.0287  0.0258
 6623W        W22757  10.980   9.578  11.443 -0.1255  0.1096 -0.0801
 6624W        W22758   6.434  14.105  14.498  0.0148  0.1980  0.3707
 6625W        W22759   6.926  12.191  12.209 -0.1630  0.2045  0.4933
 6626W        W22760   0.080   7.127   0.817 -0.1805 -0.0446 -0.1447
 6627W        W22761  16.423  11.799   0.904 -0.0210 -0.2186 -0.2279
 6628W        W22762  15.775   0.740  12.738  0.1545 -0.3414  0.0783
 6629W        W22763   1.715  12.561  15.965  0.0923 -0.2257 -0.0979
 6630W        W22764   1.640  16.526   0.282  0.2057  0.3098  0.0563
 6631W        W22765   9.556   6.994  10.439  0.2453  0.1750 -0.1293
 6632W        W22766   3.276  18.054   4.620  0.1559  0.0570 -0.0432
 6633W        W22767  13.492  10.909  16.054 -0.0470  0.1300 -0.0009
 6634W        W22768   2.587   5.911  14.114  0.2463  0.2074  0.0109
 6635W        W22769   4.750  11.572  16.394 -0.0575 -0.0583  0.1506
 6636W        W22770  14.227   4.962   3.246  0.3643  0.0612 -0.1291
 6637W        W22771  14.288  14.267  13.744 -0.2170 -0.1598 -0.0894
 6638W        W22772   2.327   8.227   2.500 -0.1459  0.1860  0.0456
 6639W        W22773  12.677   8.278   0.760 -0.2314 -0.3875  0.1510
 6640W        W22774  15.437   7.686  16.381  0.2981  0.0783  0.0269
 6641W        W22775   3.409  12.430  15.858 -0.1692  0.1992  0.0780
 6642W        W22776  17.362  17.932  15.493 -0.0632 -0.0579  0.2909
 6643W        W22777  17.363  15.649  14.688  0.0027 -0.0468  0.1569
 6644W        W22778   0.874  10.587  13.248 -0.1027 -0.0463  0.0986
 6645W        W22779   1.872  10.511   4.555  0.0266  0.0761  0.1373
 6646W        W22780   2.486  13.741  14.384  0.1344 -0.2905 -0.3451
 6647W        W22781  13.945   1.509  15.205 -0.0340  0.1420  0.0273
 6648W        W22782   4.426   3.916   4.331  0.0022 -0.0958 -0.1121
 6649W        W22783   4.452   6.211  14.526 -0.0590 -0.2930  0.1658
 6650W        W22784   1.685  16.617   0.780 -0.0280  0.0834 -0.1911
 6651W        W22785  13.374   5.557   3.715  0.0792 -0.0928  0.1363
 6652W        W22786   1.804   7.973   1.656  0.0370 -0.2448  0.1711
 6653W        W22787  12.723   0.679   4.190  0.1190 -0.1360  0.0554
 6654W        W22788  10.788  12.508  13.261 -0.2003 -0.0350  0.2079
 6655W        W22789   1.865  11.081   4.397  0.1295 -0.1254 -0.0601
 6656W        W22790  13.880  11.308   0.645 -0.0480  0.0467  0.1786
 6657W        W22791  13.700   5.173   0.450 -0.1454 -0.1082 -0.1141
 6658W        W22792  12.445  13.494   3.774  0.1707  0.0876  0.1706
 6659W        W22793  10.611   5.456   3.526  0.2148  0.2041 -0.0163
 6660W        W22794   1.214   9.356  11.537  0.0798 -0.1011  0.0737
 6661W        W22795   7.733   6.990   3.795 -0.5005 -0.0263 -0.0473
 6662W        W22796  17.405   0.369  13.204  0.1279  0.1240 -0.1614
 6663W        W22797  11.161   6.442   0.760 -0.3371  0.0365  0.0839
 6664W        W22798   8.162   3.573  12.382  0.0451  0.2941 -0.3662
 6665W        W22799  15.707  11.057   0.653  0.1051  0.0091 -0.0931
 6666W        W22800   2.041  17.796  15.863  0.1092  0.4207  0.0999
 6667W        W22801   1.777   6.563  12.122  0.0428 -0.0827 -0.0366
 6668W        W22802  10.056  17.933  15.354 -0.1470  0.1215  0.0766
 6669W        W22803   9.826  15.470   1.131 -0.1613 -0.2719 -0.0885
 6670W        W22804   4.030   4.049   4.547  0.1484 -0.0782 -0.1162
 6671W        W22805   2.297   5.280  14.897 -0.1936  0.2756 -0.0518
 6672W        W22806  15.719   6.387   5.431  0.2273 -0.3119  0.0647
 6673W        W22807  14.586   4.061   2.181 -0.0850 -0.3282  0.2748
 6674W        W22808   2.315  16.966  13.249 -0.0264  0.0044 -0.2208
 6675W        W22809  17.648   6.292  10.451  0.1982  0.0379 -0.1663
 6676W        W22810   9.097   3.203  15.547 -0.2070 -0.2908  0.0908
 6677W        W22811   6.785   8.795  15.297 -0.4524  0.1628 -0.0578
 6678W        W22812   2.569   0.024   2.343  0.2008  0.1697  0.1666
 6679W        W22813  11.940  11.901  11.181  0.2772  0.2484  0.0784
 6680W        W22814   8.661  16.064  15.845  0.2557  0.0120 -0.0476
 6681W        W22815   9.085   1.264   5.856  0.0548 -0.0291 -0.1482
 6682W        W22816  15.177   1.585   0.559 -0.0802 -0.1759  0.1384
 6683W        W22817  15.268   2.869   4.823 -0.0285 -0.0892  0.2805
 6684W        W22818  11.761   1.291  11.894 -0.0461 -0.2088 -0.3424
 6685W        W22819   2.344   5.695  13.223  0.0142 -0.3472 -0.0650
 6686W        W22820  15.225  15.727   4.400  0.0281 -0.0093 -0.2318
 6687W        W22821  12.427   7.401  12.409  0.0636  0.1580  0.2350
 6688W        W22822   6.962  13.250   1.538 -0.2744 -0.0785 -0.1791
 6689W        W22823   0.746  10.462   0.968  0.1886  0.0030  0.1606
 6690W        W22824   6.846   1.666  13.029  0.0450  0.2378 -0.0539
 6691W        W22825   7.710  13.028  14.561 -0.1064  0.0567  0.1289
 6692W        W22826   7.182  17.455  15.861 -0.1734  0.1341  0.2064
 6693W        W22827  14.744   8.277  16.230  0.1229 -0.2324 -0.0690
 6694W        W22828  13.799  11.779   0.967  0.1146 -0.1696  0.0075
 6695W        W22829  10.654  13.275  14.718 -0.1192  0.1475 -0.1373
 6696W        W22830  13.176   7.604   3.366  0.4076 -0.0875  0.0055
 6697W        W22831  10.557  15.311  11.629 -0.0979 -0.0029  0.0725
 6698W        W22832   8.402   3.544  13.761  0.2938 -0.0662 -0.1522
 6699W        W22833  13.016   6.934  15.852 -0.1063  0.2041  0.0012
 6700W        W22834  16.986  17.649   4.866 -0.2233 -0.1319  0.0587
 6701W        W22835  13.800   6.920   3.611  0.1350  0.1332 -0.1714
 6702W        W22836  10.433  14.336  16.313 -0.3788 -0.0301 -0.3555
 6703W        W22837   8.627   2.335  14.295 -0.1930  0.2368 -0.1748
 6704W        W22838   9.016  17.172   2.708 -0.1726  0.1541 -0.1094
 6705W        W22839  11.293   7.303  12.931 -0.1482  0.0602 -0.1477
 6706W        W22840   7.655   0.411   0.734  0.2667  0.1531  0.0473
 6707W        W22841  11.862   8.416   1.229  0.3788 -0.0314  0.1345
 6708W        W22842  14.879   0.276  13.175 -0.0677  0.1190 -0.1493
 6709W        W22843   5.955  16.123  14.403  0.0207 -0.2759 -0.1952
 6710W        W22844  10.200  10.283  13.830 -0.1511 -0.0466  0.0667
 6711W        W22845  15.081  18.079   1.764 -0.2559 -0.0184  0.1257
 6712W        W22846  10.321   3.305  15.957  0.1465 -0.0271 -0.0571
 6713W        W22847  14.750   9.764  11.174  0.2471 -0.2380  0.0818
 6714W        W22848   2.297   1.242  13.899  0.0212  0.1151  0.0780
 6715W        W22849  13.316   7.716  13.809  0.2787  0.1430  0.0257
 6716W        W22850   3.096   4.029  15.517 -0.0844 -0.0120 -0.0742
 6717W        W22851   0.361  17.482   3.087  0.1400  0.2083 -0.1133
 6718W        W22852  13.569   5.397  15.266 -0.0529  0.1286 -0.3253
 6719W        W22853   0.895  14.887   0.404 -0.1163 -0.0828 -0.4879
 6720W        W22854   7.225  15.230  11.132 -0.2927  0.1191  0.3481
 6721W        W22855   8.483  17.783  13.878  0.1493  0.0883  0.0653
 6722W        W22856   8.738   7.232   2.856  0.0027  0.0579  0.0593
 6723W        W22857  16.909   0.395   1.564  0.2964  0.0924 -0.1110
 6724W        W22858  16.952   8.498   4.836 -0.2776  0.0688  0.1937
 6725W        W22859   2.099   2.307   3.172  0.3509 -0.0405  0.2101
 6726W        W22860   0.980   2.008   4.596 -0.1725  0.2499 -0.0477
 6727W        W22861   7.869  17.190  11.498  0.0504 -0.1551  0.0182
 6728W        W22862   5.781   0.522  15.926  0.0953  0.1338  0.2327
 6729W        W22863  15.201   2.010  14.454 -0.1913  0.0724 -0.0612
 6730W        W22864   8.659   1.189   4.910  0.0250 -0.1954 -0.0053
 6731W        W22865   1.796  16.669   5.606 -0.2591 -0.3719 -0.4595
 6732W        W22866   4.193  12.475   2.158 -0.0852  0.1387  0.3685
 6733W        W22867  15.362  16.274   0.176 -0.0879  0.0227  0.1274
 6734W        W22868  17.501   5.574  10.808  0.0708  0.0442  0.1949
 6735W        W22869   3.713  13.336  16.117 -0.0008 -0.0123  0.2599
 6736W        W22870   9.831   9.803  16.274 -0.0093 -0.0407 -0.3996
 6737W        W22871   1.118   1.070  13.113  0.0665  0.2946 -0.0029
 6738W        W22872   3.455   3.742  11.549  0.0125  0.0286 -0.3623
 6739W        W22873  12.565  11.261   1.583 -0.1083 -0.0544  0.0063
 6740W        W22874   9.390  15.965   6.208  0.0316  0.0596 -0.2456
 6741W        W22875   1.088   1.278   1.836  0.2577 -0.0101  0.2108
 6742W        W22876   6.006   7.971   0.175  0.0868 -0.0376  0.0251
 6743W        W22877  13.006  16.054   3.255 -0.1390  0.0106 -0.1190
 6744W        W22878   0.459   7.829  15.928 -0.1049  0.1174  0.0916
 6745W        W22879  15.554  13.209   3.042 -0.1982  0.1407  0.1170
 6746W        W22880  12.349   0.293  15.942  0.1099 -0.0479  0.0221
 6747W        W22881  15.633  14.096  13.432  0.1312 -0.1767  0.0979
 6748W        W22882   1.942   0.119  12.872  0.3783 -0.1621 -0.0400
 6749W        W22883   4.399  15.358   5.792 -0.0411 -0.4141 -0.0161
 6750W        W22884   3.963   6.038   0.100 -0.2266 -0.1056 -0.0983
 6751W        W22885   8.601   2.760   2.462  0.0357 -0.4965  0.1743
 6752W        W22886   2.484  17.895  15.599  0.2322  0.0116  0.3380
 6753W        W22887  10.453  11.988   1.268  0.2286 -0.1246  0.1778
 6754W        W22888   2.412   5.916   1.394 -0.1512  0.1298 -0.1341
 6755W        W22889   5.847  16.363   2.054 -0.0275 -0.1049 -0.0295
 6756W        W22890   2.461   9.089  14.584 -0.1401  0.3298  0.1111
 6757W        W22891   8.456   0.250  15.915 -0.0619 -0.0937 -0.1392
 6758W        W22892  15.245  11.791  14.569  0.1858 -0.3816  0.0378
 6759W        W22893   8.201  17.538   1.497  0.0751  0.0016  0.2231
 6760W        W22894   7.708  16.006   2.551  0.0457 -0.2536 -0.0160
 6761W        W22895  17.094   5.412  11.208  0.0205 -0.0126  0.0259
 6762W        W22896   3.942   4.435  13.258 -0.0521  0.0195 -0.4046
 6763W        W22897  15.332  13.063   5.613 -0.0428  0.3193 -0.0089
 6764W        W22898   0.191  13.095   5.166 -0.4428 -0.0019 -0.2549
 6765W        W22899  17.725  14.036  13.530  0.1339  0.1608 -0.0010
 6766W        W22900   1.649  13.608  14.332 -0.0111 -0.1282 -0.0952
 6767W        W22901   9.990   0.697   5.726  0.2548  0.0651  0.0195
 6768W        W22902  17.703  16.039  15.968  0.2442 -0.1805 -0.0289
 6769W        W22903  13.359  15.276  15.371  0.0482  0.0278 -0.0157
 6770W        W22904  12.735   7.335   2.620  0.0548 -0.1408  0.0140
 6771W        W22905   1.019   2.148  14.530 -0.0146  0.0928  0.1280
 6772W        W22906  12.559   3.935   1.805 -0.1182  0.0190 -0.3768
 6773W        W22907  12.218  13.111  13.693  0.0328 -0.1246  0.0840
 6774W        W22908   5.864  11.162   4.507  0.0035  0.0600 -0.0186
 6775W        W22909  16.885  15.447   1.997  0.0207  0.0015  0.0476
 6776W        W22910   7.233   0.673   3.515  0.1866  0.0780  0.0022
 6777W        W22911  12.216  11.473  13.822 -0.2577 -0.0877  0.2227
 6778W        W22912   6.057  13.365   4.183 -0.1672 -0.0997  0.2169
 6779W        W22913  16.693   8.523  12.414  0.0145  0.0499 -0.0732
 6780W        W22914  14.540   1.600   1.799  0.1060 -0.0436  0.3919
 6781W        W22915   5.194   4.931   0.925  0.0710 -0.4068  0.1711
 6782W        W22916   0.561   2.271  14.259 -0.1133 -0.0026  0.1993
 6783W        W22917   8.241  11.588   1.667  0.0234 -0.0825 -0.0945
 6784W        W22918  14.546  15.799  15.400 -0.1210 -0.1835  0.3313
 6785W        W22919   3.970   8.714   3.240 -0.4005  0.2683  0.1161
 6786W        W22920   8.760   5.373   1.656  0.1366 -0.0071 -0.0839
 6787W        W22921   5.740   9.050  13.765 -0.2556 -0.2334 -0.0880
 6788W        W22922  14.211  13.691  12.565  0.1333 -0.0805 -0.0850
 6789W        W22923   5.162  12.343  15.614 -0.2032  0.1667 -0.1052
 6790W        W22924  13.299   5.914   2.740 -0.1005  0.1147  0.1184
 6791W        W22925   5.402  15.323  13.551  0.1408  0.0116  0.1150
 6792W        W22926   0.135   4.222  11.195  0.0223 -0.0624 -0.2288
 6793W        W22927   3.802   0.063   3.244  0.0027  0.2922  0.0578
 6794W        W22928  13.335   2.632  15.924 -0.0102  0.0592 -0.2256
 6795W        W22929   0.836  13.541  16.054  0.1904  0.1082  0.0217
 6796W        W22930   9.093   7.408   2.559  0.0713 -0.2955 -0.1371
 6797W        W22931  10.496   5.772  14.391 -0.0924  0.4101 -0.1170
 6798W        W22932  12.088  11.631   1.078  0.0836  0.1845  0.1583
 6799W        W22933  18.085  15.723   3.496 -0.2023  0.1664 -0.1799
 6800W        W22934   1.870  16.408  15.204  0.0677  0.4160  0.0086
 6801W        W22935  17.346   6.605  13.171  0.0322 -0.0358 -0.2207
 6802W        W22936  10.469  15.236  16.103  0.0183  0.0298  0.2259
 6803W        W22937   1.840   4.305  12.526  0.0988 -0.1806  0.0990
 6804W        W22938   0.493   4.644   2.598 -0.2290  0.0757  0.0901
 6805W        W22939   4.991  14.992  15.082 -0.1340 -0.1090 -0.1690
 6806W        W22940  12.210   6.513   4.228 -0.0164 -0.1718  0.0723
 6807W        W22941   6.444  11.470   3.996 -0.0493 -0.5086 -0.1135
 6808W        W22942   7.813  17.447  11.883  0.1635  0.3302 -0.2979
 6809W        W22943   7.128  15.114   4.411  0.2405 -0.0241  0.1549
 6810W        W22944   5.249   7.713  12.193 -0.2229  0.0656  0.0200
 6811W        W22945   9.123   4.955  12.298 -0.1194  0.2858 -0.0617
 6812W        W22946   6.859  17.906  13.127  0.2267 -0.0640 -0.1402
 6813W        W22947   4.712  11.610  11.927  0.0447 -0.0973 -0.0609
 6814W        W22948  16.990  16.282   1.440  0.2571  0.0561 -0.1068
 6815W        W22949   0.925   8.942   5.145 -0.0970  0.1577 -0.3012
 6816W        W22950  15.756   6.739  12.801  0.1895 -0.5295 -0.0351
 6817W        W22951   2.021   1.501  15.936  0.1782  0.1911 -0.0322
 6818W        W22952  13.416   2.418   0.230 -0.1183 -0.0938 -0.0103
 6819W        W22953   8.419   6.951  14.726 -0.0348 -0.0398  0.2284
 6820W        W22954   2.035   6.011   0.711 -0.0209 -0.2297  0.0185
 6821W        W22955   0.097  11.357   2.655  0.1405  0.3866  0.2238
 6822W        W22956  12.242  15.621  14.520 -0.1407 -0.0351 -0.0864
 6823W        W22957   5.487   4.911   0.457 -0.2939  0.0899  0.3524
 6824W        W22958   4.454  17.565   3.640  0.0944 -0.0713  0.1258
 6825W        W22959   5.076  11.829   2.097 -0.1672  0.0571 -0.0219
 6826W        W22960   8.498  13.673  13.824 -0.1253  0.0615 -0.1557
 6827W        W22961   8.919   4.785  14.937 -0.2403  0.3521 -0.2806
 6828W        W22962   9.279  16.604  15.662 -0.0997  0.0171  0.2553
 6829W        W22963   7.256  10.077   3.814 -0.0922  0.2567  0.2457
 6830W        W22964   6.224  17.710  10.181 -0.1935  0.2442  0.2646
 6831W        W22965  13.310   8.866   4.416 -0.4330 -0.1188 -0.0443
 6832W        W22966   1.911   0.571   0.713  0.1561  0.0076  0.1802
 6833W        W22967   5.424   5.441   2.711 -0.0300  0.0358 -0.1040
 6834W        W22968  12.391  14.798  15.882 -0.1559  0.2941  0.0452
 6835W        W22969   0.662   6.157  14.728  0.2304 -0.2309  0.0432
 6836W        W22970   6.381   3.309   1.560 -0.1618 -0.0051 -0.1827
 6837W        W22971   1.855   1.953  14.095 -0.0489  0.0086 -0.0832
 6838W        W22972   3.344  13.771   3.970 -0.0676 -0.5146 -0.1141
 6839W        W22973  17.681   9.268   3.488 -0.1257 -0.4444  0.0023
 6840W        W22974   2.482   2.805   3.409 -0.0202 -0.2218  0.1734
 6841W        W22975  16.528  11.574  16.330 -0.0548  0.0167 -0.2982
 6842W        W22976   9.714   0.846   1.990  0.0783 -0.0158  0.1590
 6843W        W22977  11.897  10.200  12.896  0.0751  0.0826 -0.2788
 6844W        W22978  16.846  18.084  15.364  0.2017  0.0744 -0.0190
 6845W        W22979  13.581   3.761   1.662  0.0281 -0.0631  0.1271
 6846W        W22980  10.595  15.631  11.102 -0.0413  0.2515 -0.0423
 6847W        W22981  14.967   7.473   4.856 -0.0101 -0.2519 -0.0987
 6848W        W22982   3.282   3.543  14.826  0.0616 -0.2216  0.0387
 6849W        W22983  14.185   4.460   0.207 -0.5473  0.0756 -0.2435
 6850W        W22984   8.862   7.294   2.071 -0.1390 -0.2330  0.1000
 6851W        W22985  14.401  11.557   2.818  0.0649  0.5125  0.1836
 6852W        W22986   2.526   8.683   4.177 -0.2024  0.0387  0.0325
 6853W        W22987   6.773   2.323   1.662  0.0033  0.0968  0.1754
 6854W        W22988  16.678   4.593   6.023  0.1190 -0.0743  0.3362
 6855W        W22989   3.664   7.703  13.428 -0.1023  0.1624 -0.0035
 6856W        W22990   9.078   8.302   4.231 -0.2570 -0.0608  0.2267
 6857W        W22991  12.922   4.807   5.478  0.3067  0.1610 -0.0373
 6858W        W22992   5.772   6.677   1.367  0.2098  0.1287 -0.3279
 6859W        W22993   5.798   6.608   5.178 -0.1284 -0.3509  0.0674
 6860W        W22994  13.736  12.208   5.303 -0.0995 -0.3353 -0.2347
 6861W        W22995  11.904  16.327   2.547 -0.0053  0.2146 -0.2959
 6862W        W22996   7.585  10.958   3.471  0.3691 -0.5263  0.1984
 6863W        W22997   1.642   2.859  16.206 -0.2419 -0.2634 -0.4945
 6864W        W22998   4.274  14.924   5.964  0.0802 -0.0511 -0.2115
 6865W        W22999  10.819  18.078   2.801  0.1067  0.2497  0.1877
 6866W        W23000  11.273   8.121  12.328 -0.0580  0.0629 -0.2254
 6867W        W23001   5.108   2.001   0.886  0.0040 -0.0098  0.1259
 6868W        W23002  10.325   8.524   1.085 -0.1698  0.0273 -0.5382
 6869W        W23003  10.835   4.617  12.275  0.0019  0.0902 -0.0868
 6870W        W23004  12.582   0.370   5.169  0.2796 -0.1744  0.1244
 6871W        W23005   6.544  15.276  12.116 -0.0667  0.1191 -0.3004
 6872W        W23006   5.079   8.832   2.326 -0.1836 -0.0331 -0.1623
 6873W        W23007  11.060   8.147  15.817  0.1640 -0.1079  0.1621
 6874W        W23008  16.409  13.596   2.607 -0.1947 -0.3706 -0.3429
 6875W        W23009  13.583   9.301   1.673 -0.6318  0.1059  0.1579
 6876W        W23010  12.347   7.310   3.239  0.0317 -0.0703 -0.1659
 6877W        W23011   8.227  15.113   4.326 -0.0447  0.2002  0.1611
 6878W        W23012  14.348   2.860   0.329 -0.0010 -0.2187 -0.3574
 6879W        W23013  16.347  14.421   1.389 -0.1567 -0.2028  0.3753
 6880W        W23014  14.963   5.770   4.013 -0.4304  0.1546  0.0506
 6881W        W23015  17.865   7.888  11.686  0.0125  0.3432 -0.0515
 6882W        W23016  13.770   4.289   0.455 -0.1095  0.0916 -0.1715
 6883W        W23017   3.774   0.974  15.209  0.1913  0.1939  0.3136
 6884W        W23018   0.465  15.726   0.906 -0.0712 -0.1801 -0.0477
 6885W        W23019   6.678   7.230  11.460 -0.1425  0.1999  0.0669
 6886W        W23020  11.747   1.478   1.006  0.0938 -0.0389  0.4583
 6887W        W23021   7.372   5.009   5.141 -0.1090 -0.0910  0.1459
 6888W        W23022   5.439  12.379   4.153  0.1682  0.1320  0.0739
 6889W        W23023  14.729   0.801  12.281  0.0730  0.2660  0.0657
 6890W        W23024  11.748  11.770   2.318 -0.1879 -0.0536  0.0727
 6891W        W23025  10.741  10.037  14.590  0.2245  0.0677  0.0782
 6892W        W23026  11.046   2.196   4.023  0.0293  0.0242  0.0638
 6893W        W23027   7.786  10.953   0.618  0.0806 -0.3550  0.0384
 6894W        W23028  10.725   2.942   2.965 -0.1098  0.1484  0.2363
 6895W        W23029  17.151   9.722  14.241 -0.4315  0.1919  0.0866
 6896W        W23030   9.177   0.785   3.304  0.0401  0.1895  0.0661
 6897W        W23031  13.069   6.539  12.301 -0.3181 -0.1710 -0.0488
 6898W        W23032   9.334   7.251  16.378 -0.1464  0.1386 -0.1124
 6899W        W23033  12.056   8.863   1.300  0.4205  0.0818 -0.2558
 6900W        W23034   2.529   4.970  12.163 -0.1262  0.3589 -0.1585
 6901W        W23035  13.804   3.981   0.885  0.0204 -0.0453 -0.0576
 6902W        W23036  17.756   4.044   5.816  0.2837 -0.4549 -0.0563
 6903W        W23037  17.471   0.189  15.949 -0.2185  0.0236 -0.1437
 6904W        W23038   1.690   8.964  14.042  0.3548 -0.1928  0.0901
 6905W        W23039   3.443  11.082   3.885 -0.0236  0.2240  0.1216
 6906W        W23040   5.481   4.404   0.356  0.1616 -0.3836 -0.0480
 6907W        W23041  17.658   4.067  11.085 -0.0828 -0.1808 -0.0738
 6908W        W23042   4.934  11.562  14.228 -0.3025  0.1663  0.1386
 6909W        W23043  15.795  16.571   4.624  0.3235  0.0197 -0.1440
 6910W        W23044  10.041   5.074  13.218  0.1614 -0.0545  0.2129
 6911W        W23045   9.876   3.157  13.836 -0.0186  0.0891 -0.0057
 6912W        W23046   7.268   1.694   0.624  0.3266  0.0350 -0.0656
 6913W        W23047   7.116   6.234   5.239 -0.0697 -0.0664 -0.3114
 6914W        W23048  16.690  13.031  12.012 -0.2644  0.2156 -0.1464
 6915W        W23049  10.858   0.486   5.272  0.1077 -0.2209 -0.0863
 6916W        W23050  15.845  16.525   0.900 -0.0914  0.1046  0.0262
 6917W        W23051   3.114  15.654  15.591  0.2154 -0.0004  0.1030
 6918W        W23052   7.467  15.032   4.025  0.0867  0.1565 -0.2599
 6919W        W23053   6.581   9.145   3.339  0.0143 -0.0158  0.2302
 6920W        W23054   1.135   3.050  14.375  0.2181 -0.1672 -0.1103
 6921W        W23055  12.398  16.289  13.207  0.1770 -0.0698 -0.0881
 6922W        W23056   1.830  16.304  12.177  0.2166  0.0777  0.2270
 6923W        W23057   3.114   4.621   5.417 -0.0040 -0.0096 -0.0267
 6924W        W23058   6.713  15.023  11.173 -0.2269 -0.0077 -0.0661
 6925W        W23059  10.351   4.617  12.033 -0.0744 -0.0211 -0.1266
 6926W        W23060   7.398   1.156   3.459  0.1796 -0.1872  0.0477
 6927W        W23061   2.119  13.994  12.622 -0.1532  0.1821  0.1643
 6928W        W23062   6.025  15.475   1.054 -0.1434  0.1703 -0.0487
 6929W        W23063   4.520  10.895  13.782  0.2154  0.2286  0.2412
 6930W        W23064  17.452  14.259   4.283  0.0971  0.0351  0.0631
 6931W        W23065   6.418  12.216   3.967  0.2084  0.5239 -0.1799
 6932W        W23066  16.899   9.237  12.239  0.4302 -0.2632  0.1833
 6933W        W23067  15.853  12.542   1.165  0.2759  0.1133 -0.2338
 6934W        W23068   7.356   1.952  13.798 -0.2247  0.0591  0.0045
 6935W        W23069  15.657   1.284   5.700 -0.0331  0.1106  0.2701
 6936W        W23070   5.035  10.819   4.868  0.0726 -0.0647  0.0145
 6937W        W23071  14.992   7.985   5.668  0.2817  0.0823 -0.0883
 6938W        W23072  14.965   5.268  14.689 -0.0159  0.2766  0.0169
 6939W        W23073   5.878  12.638   3.376  0.0440  0.0428 -0.0830
 6940W        W23074  14.493  16.516   5.414 -0.1975 -0.0543 -0.0470
 6941W        W23075   1.129   1.947   4.028 -0.0125  0.0007 -0.0157
 6942W        W23076   2.401   5.709   0.569  0.1182 -0.2410  0.1324
 6943W        W23077   0.567  10.136   0.582 -0.1639  0.0932 -0.2435
 6944W        W23078   6.713   2.667   3.141 -0.1773 -0.1705 -0.1429
 6945W        W23079   4.052  12.405  14.719  0.0933 -0.1671 -0.2463
 6946W        W23080  12.606   6.913   2.862 -0.0839  0.2425  0.0602
 6947W        W23081   3.982   7.742  15.191  0.0927  0.1154 -0.1644
 6948W        W23082  15.474  16.134   2.778 -0.1137  0.2837  0.3318
 6949W        W23083  17.967   0.134   5.460 -0.1393  0.1218 -0.1726
 6950W        W23084  10.855   9.548   0.554  0.1346  0.0879 -0.1491
 6951W        W23085   0.074   7.411  15.045  0.1276  0.2520 -0.0147
 6952W        W23086   5.531   8.955   0.376 -0.3540  0.0571 -0.0546
 6953W        W23087   4.853  15.674  11.042  0.0248 -0.2963 -0.0129
 6954W        W23088   4.677  14.607   2.037 -0.0847  0.0947 -0.0218
 6955W        W23089   3.790   1.398   0.123 -0.1472 -0.1287  0.0740
 6956W        W23090   7.142   6.711   5.110  0.1275  0.1950 -0.1806
 6957W        W23091  10.302  14.842  15.628  0.1911  0.1143 -0.0413
 6958W        W23092  12.619   3.224  10.346 -0.0089 -0.1143  0.0332
 6959W        W23093  15.558   2.498  11.855  0.0804 -0.0486  0.1733
 6960W        W23094  12.358  17.037  13.663  0.0212 -0.0852  0.0862
 6961W        W23095   0.348   1.454  11.090  0.2120 -0.2540  0.0659
 6962W        W23096  15.287   9.305   4.958  0.3627  0.0813  0.0282
 6963W        W23097   4.373  13.154   1.064  0.0084  0.1543  0.0144
 6964W        W23098   4.739  17.582   2.435  0.1892  0.0262  0.0976
 6965W        W23099   2.730  11.825   1.405 -0.0787  0.0688 -0.0479
 6966W        W23100  13.379  13.520  10.196  0.0303  0.1882 -0.1787
 6967W        W23101   3.057  13.128  11.676 -0.1030 -0.0363  0.2013
 6968W        W23102   3.130   5.837   4.646 -0.2589 -0.1716 -0.1905
 6969W        W23103  17.415   1.009   1.540  0.0367  0.0468 -0.0552
 6970W        W23104  13.952   7.838   2.632 -0.1010  0.1070 -0.1390
 6971W        W23105   1.719   2.040  12.777 -0.0635 -0.0301  0.1979
 6972W        W23106  13.076   7.454   5.819  0.0345 -0.0644  0.1843
 6973W        W23107   7.540  15.866  15.319 -0.0090  0.0103 -0.0241
 6974W        W23108   9.627  11.740   2.762  0.1705  0.2075 -0.0926
 6975W        W23109  14.012  11.415  12.542  0.1359  0.2278  0.1386
 6976W        W23110   2.914   2.298  12.331 -0.1026 -0.2988  0.1776
 6977W        W23111   4.665   3.788  14.113  0.1099 -0.1577 -0.1854
 6978W        W23112   4.763   6.982   4.469  0.0847 -0.0197 -0.1090
 6979W        W23113  15.321  16.484   3.112 -0.2655  0.0785  0.2092
 6980W        W23114   8.133  16.010   3.955 -0.0572  0.1086 -0.0129
 6981W        W23115  17.146   3.280  12.187 -0.0242  0.2536  0.0217
 6982W        W23116  17.993  15.787   5.656 -0.3176  0.6167  0.1969
 6983W        W23117   2.196  12.381   5.941 -0.2760  0.1109 -0.1523
 6984W        W23118   0.980   4.487  11.892  0.0614  0.1481  0.2570
 6985W        W23119  11.665  14.638  10.737 -0.2379 -0.1313  0.0340
 6986W        W23120   2.547  12.442   2.817 -0.1101 -0.0680  0.0435
 6987W        W23121   5.432  14.845   3.707  0.1084  0.1705 -0.1024
 6988W        W23122  13.243   3.250  14.247  0.2080  0.0464 -0.0654
 6989W        W23123   3.288   2.113  13.795  0.1683  0.2183 -0.0265
 6990W        W23124   3.410  11.599   3.626 -0.0799 -0.2008 -0.3985
 6991W        W23125  12.629  14.020   2.903 -0.0013  0.4256 -0.0779
 6992W        W23126   7.558  13.024  12.335 -0.0172  0.1331 -0.0167
 6993W        W23127   0.909   2.651   5.443  0.1024  0.4020  0.0733
 6994W        W23128  17.390   6.586   5.548 -0.1308  0.0899 -0.1141
 6995W        W23129   9.381   3.482   4.992  0.0459 -0.1502 -0.0625
 6996W        W23130  11.229  14.093   3.836 -0.2272  0.1214  0.1753
 6997W        W23131   5.255  10.957   2.357 -0.0964  0.0049  0.0324
 6998W        W23132   5.360  14.140  15.581 -0.1774  0.2071  0.1626
 6999W        W23133   7.381  16.841   3.365  0.1090 -0.1878  0.0884
 7000W        W23134   6.886  12.573   0.472  0.1385 -0.1011  0.0172
 7001W        W23135  14.955  12.348  11.169  0.0256  0.0039  0.0767
 7002W        W23136  16.716   9.116   1.733 -0.0127  0.0119  0.0330
 7003W        W23137   9.759   9.488  14.902  0.0105 -0.2319  0.1219
 7004W        W23138   7.702  12.515   4.627 -0.1228 -0.0057  0.1085
 7005W        W23139   7.328   6.370  13.915 -0.0362  0.0329  0.0867
 7006W        W23140   2.836   8.682  14.593 -0.0603 -0.2649 -0.0600
 7007W        W23141   8.838  11.703   3.706 -0.1074  0.0546 -0.3598
 7008W        W23142   7.981  15.623   3.582  0.3638  0.1991  0.1433
 7009W        W23143   7.339   8.275   2.035 -0.3178  0.0298 -0.1338
 7010W        W23144  10.281   2.687   4.367 -0.0685  0.3124 -0.0800
 7011W        W23145   1.630   3.405  13.252  0.2608  0.0850 -0.0387
 7012W        W23146   0.879  17.142   0.589  0.0150  0.1318 -0.2111
 7013W        W23147  16.458   1.169  10.624  0.0509 -0.1603 -0.1078
 7014W        W23148  13.136  14.981  11.468  0.0945  0.0887 -0.1066
 7015W        W23149   9.052  13.559   3.860  0.1540  0.1063  0.1088
 7016W        W23150  10.517   8.606   0.130  0.2123 -0.1182  0.1580
 7017W        W23151   5.959   4.561   0.592 -0.0255  0.0727  0.1135
 7018W        W23152   4.435   8.942   2.401  0.1065 -0.2971 -0.1636
 7019W        W23153   0.555   2.060  16.154  0.1582 -0.1947  0.1049
 7020W        W23154   0.315  17.450   4.124 -0.0245 -0.2986  0.1100
 7021W        W23155  10.359  18.011   1.188 -0.2471 -0.0586 -0.2003
 7022W        W23156   2.997   2.789   4.376 -0.0344  0.0180 -0.1478
 7023W        W23157   3.340   8.417  15.569 -0.0081  0.3623 -0.1053
 7024W        W23158  10.144   4.564   1.480 -0.0098  0.1664 -0.2928
 7025W        W23159   0.328  16.580  11.732 -0.0358  0.0621  0.1221
 7026W        W23160   0.862  18.087   1.077 -0.2035 -0.3796 -0.1290
 7027W        W23161  11.127  10.333   3.786 -0.0933  0.2220  0.0220
 7028W        W23162  15.991  17.872  13.678  0.2860 -0.1476  0.0359
 7029W        W23163   6.481   9.749  13.187 -0.2008  0.2099  0.0513
 7030W        W23164  12.360   4.481  16.209  0.0432  0.2363  0.0217
 7031W        W23165  10.931  11.252   0.333 -0.0711 -0.0938  0.1519
 7032W        W23166  15.922  15.388   3.833  0.0478 -0.0236 -0.1942
 7033W        W23167   6.541  16.452  15.128  0.3155  0.2110 -0.0712
 7034W        W23168   2.379   4.228   0.741  0.0717 -0.3150  0.1260
 7035W        W23169   5.490  14.944   5.186 -0.2229  0.2437  0.1217
 7036W        W23170  14.682  17.724   5.387  0.2081 -0.2054 -0.0994
 7037W        W23171   0.124   8.273  15.779 -0.2026 -0.1259  0.0448
 7038W        W23172   1.304   9.624   1.435 -0.0667 -0.1623 -0.3140
 7039W        W23173   3.028  13.637  13.068 -0.0994  0.1381 -0.2124
 7040W        W23174   6.201   1.413  12.489 -0.0979  0.2066  0.0362
 7041W        W23175  12.932   5.411  14.004 -0.0210 -0.1638 -0.0362
 7042W        W23176   6.669  11.774  11.451  0.1346  0.0201 -0.1813
 7043W        W23177   0.504   8.916   4.165  0.0292  0.3377  0.0594
 7044W        W23178  14.721   6.942   4.787  0.1454 -0.0961  0.0914
 7045W        W23179  14.527   8.558  12.924 -0.0492 -0.0811  0.0034
 7046W        W23180   5.526   9.098  15.997 -0.0334 -0.1000 -0.2716
 7047W        W23181   4.128  10.594  12.551 -0.1781 -0.2077  0.1693
 7048W        W23182  11.953   0.820   0.202 -0.1016 -0.1198 -0.2945
 7049W        W23183  11.416  15.765   2.238 -0.1151  0.0540 -0.0848
 7050W        W23184   0.161  15.348   2.232  0.0335  0.0474  0.3229
 7051W        W23185  17.829  12.961  12.261 -0.2763 -0.0930 -0.4030
 7052W        W23186  17.911   1.171   4.085 -0.2899  0.0576 -0.3510
 7053W        W23187  15.377   6.440  13.404 -0.2351 -0.1234  0.1967
 7054W        W23188   6.537  17.279   4.832  0.0819  0.0312 -0.1174
 7055W        W23189   1.446   2.187  13.975 -0.1159 -0.0968 -0.0980
 7056W        W23190  12.792  10.453   2.620 -0.1112  0.1352  0.1473
 7057W        W23191   8.711   5.788  15.513  0.0605 -0.0378 -0.0768
 7058W        W23192   5.623  17.832  12.902 -0.2147 -0.0592 -0.0408
 7059W        W23193   9.332  11.045  15.346 -0.1939 -0.1300 -0.3158
 7060W        W23194   2.634   9.120  14.136  0.1996 -0.1050  0.6848
 7061W        W23195  11.205   8.479  16.176 -0.1764 -0.1195  0.0138
 7062W        W23196   9.025   0.597  14.607 -0.0739  0.0534 -0.0725
 7063W        W23197   4.489  12.904  14.052  0.3286  0.0072 -0.1157
 7064W        W23198   5.407  16.419   0.399  0.2644 -0.0508  0.1759
 7065W        W23199  11.082  12.721   0.641  0.0754 -0.2327 -0.0092
 7066W        W23200  11.704   8.882  11.875 -0.0537  0.4587 -0.0789
 7067W        W23201   2.620   7.200   3.464 -0.1282 -0.2427  0.0691
 7068W        W23202   8.093   5.022   2.139 -0.1627  0.2597  0.2719
 7069W        W23203   8.111  13.332   3.379  0.0106 -0.1211  0.0018
 7070W        W23204   1.977   6.327   2.181 -0.4789 -0.1123  0.0193
 7071W        W23205   0.942   5.283   4.969  0.0285 -0.1884  0.0533
 7072W        W23206   2.113  11.837   0.613  0.0057 -0.1709 -0.4653
 7073W        W23207   0.442   4.404   3.040  0.1728 -0.1547  0.0937
 7074W        W23208   0.989  11.111  12.405 -0.1161  0.1935  0.0988
 7075W        W23209   1.731   0.034   2.996  0.2819  0.3100 -0.1487
 7076W        W23210   8.585   5.093  14.263  0.2218 -0.2069 -0.0781
 7077W        W23211   4.512  15.304   2.466  0.0541  0.1798  0.1995
 7078W        W23212  10.770   3.656   3.599 -0.0737 -0.0585 -0.1787
 7079W        W23213  16.755  12.294  13.000 -0.1780  0.0154  0.0681
 7080W        W23214  14.493  10.900  15.655 -0.1936 -0.2406  0.2692
 7081W        W23215  13.172   7.602   0.863 -0.1636  0.0739  0.2721
 7082W        W23216  18.055   8.784  11.374  0.1528  0.0253 -0.5106
 7083W        W23217   9.497   5.677   1.682  0.0346 -0.1286 -0.1634
 7084W        W23218   4.730   0.951  13.741 -0.1174  0.0573 -0.4070
 7085W        W23219   8.072  12.467  13.983  0.1787 -0.0852  0.3959
 7086W        W23220   0.022  13.918  13.215  0.2754 -0.0203  0.0419
 7087W        W23221  12.409   1.209  12.555  0.0381 -0.1283 -0.0835
 7088W        W23222  14.553   6.989  15.410 -0.0112  0.2380 -0.0009
 7089W        W23223   0.101   0.198   0.689  0.3147 -0.3802  0.0092
 7090W        W23224  14.788   0.570   2.513  0.1490  0.0684 -0.1059
 7091W        W23225   8.029  18.083  14.460  0.1407 -0.0510  0.1374
 7092W        W23226   8.897   0.617   3.711  0.0083  0.0328 -0.1509
 7093W        W23227   1.894   9.458  13.133  0.0371 -0.0963  0.2587
 7094W        W23228   7.418  13.941   2.549  0.0470  0.1085  0.0425
 7095W        W23229  15.703   8.923  13.034 -0.3191 -0.0018  0.3139
 7096W        W23230  15.955   9.401   2.270  0.1703  0.0657  0.0161
 7097W        W23231  13.766  16.417   1.686 -0.1592 -0.3745 -0.2047
 7098W        W23232  11.545   4.658  14.049 -0.1042  0.0730  0.0141
 7099W        W23233   8.067   2.776  14.222  0.0208 -0.1360  0.1604
 7100W        W23234  13.049  16.298   0.207  0.1622 -0.0247  0.0453
 7101W        W23235  15.158   0.930  11.982  0.0440  0.0312  0.2853
 7102W        W23236   9.789  16.629   4.231  0.1342 -0.0138  0.0816
 7103W        W23237  15.535   3.432   1.268  0.1585 -0.1584  0.0777
 7104W        W23238   3.361   3.414   5.104  0.0809 -0.1149 -0.0842
 7105W        W23239   1.029  15.053  13.438 -0.3271  0.1383  0.0410
 7106W        W23240   2.140   3.306   3.656  0.3758  0.0706  0.3047
 7107W        W23241   9.405   3.089   3.529 -0.1499  0.0072  0.3142
 7108W        W23242  11.456  14.234   6.032  0.0741 -0.0101 -0.1266
 7109W        W23243  12.449   6.790  14.456  0.0167  0.0869  0.0006
 7110W        W23244  15.084   5.244  13.808  0.1724 -0.1300 -0.2764
 7111W        W23245   1.231   1.015  11.989  0.1241  0.3080  0.0303
 7112W        W23246  14.395   6.855  11.362 -0.1413  0.2146  0.0087
 7113W        W23247   5.534  15.411   1.824 -0.1437 -0.2207  0.1533
 7114W        W23248   6.814  14.473   1.829 -0.1166 -0.0594  0.0290
 7115W        W23249  13.810  15.704   0.315 -0.2396  0.2541 -0.1527
 7116W        W23250   9.654  11.249   2.677 -0.1214 -0.1041  0.2060
 7117W        W23251  12.034  16.062  14.575 -0.1209  0.1954 -0.1569
 7118W        W23252  10.478  14.801  13.219  0.1247  0.3050 -0.5139
 7119W        W23253  17.323   9.021   4.749 -0.1140  0.0050  0.5003
 7120W        W23254   7.713  17.565   3.787  0.0585 -0.3725  0.0243
 7121W        W23255  12.451  14.201  16.239  0.1405  0.2174 -0.1318
 7122W        W23256  15.580  12.565  15.693 -0.3040 -0.0150  0.2947
 7123W        W23257   1.222   5.171  10.766 -0.1263  0.3188 -0.1161
 7124W        W23258   1.842  11.009  15.439  0.3042 -0.1253 -0.3306
 7125W        W23259  11.181  10.193  12.075  0.0206 -0.1942  0.0635
 7126W        W23260   1.120   0.818   1.461  0.1569  0.0926  0.2223
 7127W        W23261   1.490   0.132  15.992  0.0869  0.0304 -0.2390
 7128W        W23262   9.596   0.234  14.491  0.0514 -0.0719  0.0281
 7129W        W23263  14.438  10.800   3.276  0.2128 -0.0095  0.0679
 7130W        W23264   7.275   0.571   2.991  0.3916  0.2051 -0.0082
 7131W        W23265  14.365  12.489   0.073 -0.3068  0.1513 -0.0539
 7132W        W23266   6.237   7.048   5.249  0.1950  0.4446  0.0330
 7133W        W23267   1.553   1.350  15.093  0.1233  0.0666 -0.2426
 7134W        W23268  13.031  17.645   3.319  0.1892 -0.2713 -0.0813
 7135W        W23269   1.329  12.608  12.724 -0.2015  0.0202 -0.0037
 7136W        W23270   7.640   9.444   4.932  0.0257  0.2539 -0.0599
 7137W        W23271   6.058   6.700  15.940  0.1539 -0.3228 -0.0362
 7138W        W23272  17.546   5.798  15.373  0.0552 -0.4726 -0.2096
 7139W        W23273   9.462   0.522   5.240 -0.0179  0.2072 -0.0147
 7140W        W23274  10.260   2.150   2.631  0.0146 -0.0774 -0.1043
 7141W        W23275  14.172   3.408  13.139 -0.0976 -0.1296 -0.0691
 7142W        W23276  16.097   9.515  14.173  0.2981  0.1092 -0.3300
 7143W        W23277  16.623   1.990  14.032  0.0043  0.3069 -0.1549
 7144W        W23278  16.240   1.861   0.602 -0.2536 -0.2145  0.1383
 7145W        W23279  14.243   9.696  15.834 -0.1979 -0.0466  0.1323
 7146W        W23280  12.166   0.735   3.121  0.4259  0.0539  0.2456
 7147W        W23281   0.715   9.038  15.762  0.0853  0.0989  0.0395
 7148W        W23282  16.141   7.174   2.512  0.0761 -0.1110  0.1402
 7149W        W23283   6.551   5.462   1.875 -0.1058  0.2196  0.1427
 7150W        W23284   6.858  16.732  16.073  0.0028 -0.1340  0.0097
 7151W        W23285   4.907   0.092   4.172 -0.0821  0.2846 -0.0114
 7152W        W23286  16.276  12.763   4.024 -0.2874  0.0866 -0.0545
 7153W        W23287   8.396  11.918   3.851 -0.4524  0.1719 -0.0368
 7154W        W23288  14.102   8.276   1.361  0.1333 -0.1965  0.1012
 7155W        W23289  12.301   0.623  12.955 -0.2625 -0.2257 -0.2772
 7156W        W23290  15.243   6.377   3.534  0.1347  0.1077  0.2301
 7157W        W23291  16.265   1.091   3.774 -0.2305  0.3971 -0.0843
 7158W        W23292   5.263   2.060   4.483 -0.0801 -0.0390  0.2128
 7159W        W23293  12.705  11.994   2.373  0.3086  0.3705  0.1010
 7160W        W23294   1.772   3.815  14.693  0.2206 -0.0961  0.1107
 7161W        W23295  13.047  10.377   0.844 -0.1285 -0.2061  0.0632
 7162W        W23296  13.389  10.314  14.952 -0.1118  0.1047  0.2159
 7163W        W23297  12.174  17.788  12.200  0.2632 -0.0676 -0.1979
 7164W        W23298  15.953   3.901   1.294 -0.0381  0.0786  0.0305
 7165W        W23299   2.536   4.245  14.889  0.0122  0.0435  0.5030
 7166W        W23300   7.534  17.929  15.901  0.1363  0.1149  0.0928
 7167W        W23301   3.387   5.126   4.253  0.2526 -0.0518  0.2606
 7168W        W23302   4.239  18.089   3.555  0.3516  0.0370 -0.1737
 7169W        W23303   2.159   0.209   4.452  0.0461  0.0605  0.0733
 7170W        W23304   8.065  17.364   3.488  0.3407  0.0345 -0.0032
 7171W        W23305   5.972  11.750   3.702 -0.1138 -0.3028  0.0606
 7172W        W23306  15.518  10.960   5.831  0.0415 -0.1141  0.0234
 7173W        W23307  14.524   5.391   5.877 -0.0060 -0.4093  0.2169
 7174W        W23308   0.030  11.524   1.689 -0.0251 -0.1466 -0.0997
 7175W        W23309   2.955  18.024   4.285 -0.0944  0.0399  0.0408
 7176W        W23310  13.139  11.535   3.594  0.1457  0.0569  0.0763
 7177W        W23311   8.817   5.496  12.905  0.0258  0.1511  0.0559
 7178W        W23312   2.299  14.924   0.069  0.2720  0.1281 -0.0857
 7179W        W23313  13.733   0.413   2.665  0.1325  0.0266 -0.0383
 7180W        W23314   4.534  10.708  12.837 -0.1888 -0.0680  0.2030
 7181W        W23315  15.735   1.062  14.358 -0.1937 -0.3031 -0.2835
 7182W        W23316   6.608   8.313   0.111  0.0775  0.4490  0.0348
 7183W        W23317  10.811  15.725  11.578  0.0579 -0.0249 -0.0363
 7184W        W23318   2.099   7.750  14.861 -0.0919 -0.1507  0.1323
 7185W        W23319   0.968  16.184   4.246  0.2407 -0.0540 -0.1641
 7186W        W23320   1.203  13.297  16.308  0.0540 -0.0537 -0.1884
 7187W        W23321  14.728  16.053  14.728  0.1364  0.1135  0.0440
 7188W        W23322   6.311   2.312  14.212 -0.1664  0.4241  0.2750
 7189W        W23323   1.789   6.057   3.979  0.2594 -0.0467 -0.0177
 7190W        W23324  14.910   6.510   0.329 -0.3263 -0.0142 -0.0158
 7191W        W23325  16.150  17.084  15.309 -0.1806 -0.2267 -0.1733
 7192W        W23326  11.197   1.297  12.796  0.1602  0.3830  0.0805
 7193W        W23327   0.977   5.719  14.437 -0.3041  0.0128  0.0325
 7194W        W23328   5.612   8.752  16.328 -0.1287 -0.0726 -0.2199
 7195W        W23329   7.415   3.920  16.346  0.2944 -0.2404  0.0030
 7196W        W23330  15.289   3.906   5.937 -0.0086 -0.2640 -0.0887
 7197W        W23331   7.814   6.106  15.026 -0.1217 -0.0247  0.0426
 7198W        W23332  18.003   7.965   2.298  0.0346 -0.2667 -0.0535
 7199W        W23333   5.614   4.949  12.770 -0.1812  0.1543 -0.2308
 7200W        W23334  12.257  15.270  14.873  0.0282  0.1199  0.0078
 7201W        W23335  14.017   4.386  11.514  0.2836  0.0607 -0.0081
 7202W        W23336  15.997   9.793  13.465  0.1677 -0.2140  0.1957
 7203W        W23337  13.882   5.357   2.068 -0.3222 -0.0285  0.1140
 7204W        W23338  17.881   4.122  13.276 -0.0717  0.1967 -0.1987
 7205W        W23339   2.567   2.085   3.391 -0.1239 -0.1725  0.2453
 7206W        W23340  12.126   9.107  12.091 -0.0035 -0.0008 -0.0761
 7207W        W23341  11.587   4.570   2.846 -0.1586  0.2099 -0.2412
 7208W        W23342  10.488   9.750  11.657 -0.3706 -0.1996  0.0178
 7209W        W23343   0.995  17.846  14.703  0.1580  0.1344  0.0074
 7210W        W23344   8.684   6.984  12.841 -0.0137  0.1083  0.2036
 7211W        W23345   3.198  12.611  13.827  0.2526 -0.2622  0.3359
 7212W        W23346   1.251  12.972  11.972  0.0751 -0.0367  0.1249
 7213W        W23347   6.772   9.115  16.374  0.0301 -0.1353  0.0084
 7214W        W23348   3.944  12.938  13.000  0.1025  0.1906 -0.1870
 7215W        W23349   6.229   3.651   1.113  0.0743  0.1333 -0.1034
 7216W        W23350  11.781  11.156   2.354 -0.1983  0.1084 -0.2537
 7217W        W23351  10.557   9.759  12.501  0.1257  0.2051  0.1172
 7218W        W23352  16.253   9.905   6.327  0.1180 -0.1168  0.0556
 7219W        W23353   2.778   5.604  14.571 -0.1315 -0.2922  0.1091
 7220W        W23354   2.815  15.413  13.154  0.2429  0.0026  0.1371
 7221W        W23355  13.179  11.253   2.780  0.1049  0.0038  0.0834
 7222W        W23356   3.380   2.467  15.722 -0.2967  0.4045  0.4481
 7223W        W23357   9.613   8.730   2.123 -0.0169  0.0806 -0.0184
 7224W        W23358  14.433   0.537  15.609  0.2292  0.0616 -0.0253
 7225W        W23359  10.926  10.813  11.999  0.2720 -0.2596 -0.1779
 7226W        W23360  12.343   7.788  13.715  0.1167 -0.1557 -0.0018
 7227W        W23361   9.560  11.695   5.302 -0.0743  0.0749 -0.1209
 7228W        W23362  13.072   6.202  14.002  0.0661  0.0931 -0.0960
 7229W        W23363  14.699   3.297  13.194  0.1779 -0.0161 -0.0211
 7230W        W23364  10.469   3.322   3.292 -0.1221  0.4465  0.3599
 7231W        W23365  14.011  11.942   1.918 -0.0817  0.2239 -0.1680
 7232W        W23366   4.216  12.313   5.433 -0.2755  0.0506  0.0345
 7233W        W23367  14.826   5.105  15.157 -0.2890 -0.0353 -0.2260
 7234W        W23368   4.474  15.909  13.501  0.1188  0.0654 -0.3678
 7235W        W23369   6.368  17.650  14.265  0.2444  0.1627  0.1387
 7236W        W23370   8.797   8.271   1.968  0.2838  0.2829 -0.0204
 7237W        W23371   5.229  15.325  14.150  0.0824  0.1158 -0.1795
 7238W        W23372   6.281   3.669  11.552 -0.0809  0.1915  0.0703
 7239W        W23373  15.796  10.129   5.553  0.3231 -0.1715  0.2660
 7240W        W23374  11.916  13.735  15.190 -0.0155  0.0429 -0.2450
 7241W        W23375   9.361   6.679   3.262 -0.2027  0.2721 -0.0219
 7242W        W23376   0.989   3.968  15.283 -0.0552  0.3593  0.2336
 7243W        W23377  11.812  14.231   4.998 -0.2802  0.0728 -0.4037
 7244W        W23378  10.327   3.065   5.184  0.3231 -0.0664 -0.0302
 7245W        W23379  10.975   9.311   5.156  0.2239  0.0072 -0.1448
 7246W        W23380   2.490  11.013  13.753  0.2982 -0.0084  0.0448
 7247W        W23381  16.294   6.326  15.129 -0.0369  0.3928  0.1034
 7248W        W23382   3.580   8.607   4.950  0.2156  0.2321  0.0898
 7249W        W23383  14.822   5.444  12.891 -0.2050  0.1122  0.0756
 7250W        W23384   6.104   7.820  14.723  0.1491  0.3139  0.0645
 7251W        W23385   7.367   9.946   1.466 -0.3302  0.0238  0.1243
 7252W        W23386   6.638   7.948   5.440 -0.1680  0.0841  0.4150
 7253W        W23387   7.055  15.553   5.183 -0.2051  0.0799  0.0817
 7254W        W23388  11.580  13.676  11.742  0.0832  0.1109  0.2682
 7255W        W23389  12.287   4.386   0.271  0.0073  0.0735  0.2872
 7256W        W23390  15.985  17.002  12.203 -0.1404 -0.2534 -0.1014
 7257W        W23391  15.406  15.025  15.976  0.2357  0.3505 -0.0719
 7258W        W23392  11.964   2.864  11.140 -0.2408  0.2470 -0.1330
 7259W        W23393  10.408   2.961   1.508  0.0007 -0.4888 -0.0681
 7260W        W23394  10.678  12.079  15.228 -0.1832  0.1738 -0.2123
 7261W        W23395  18.076  12.412   5.269 -0.0824  0.2872 -0.0135
 7262W        W23396   3.669  13.604  12.823 -0.0172  0.2810 -0.1113
 7263W        W23397  15.497   3.999  12.035  0.0082  0.0162  0.3643
 7264W        W23398   2.710  10.654  14.038  0.3256  0.1865 -0.1208
 7265W        W23399   6.423   1.842  12.766  0.2058  0.1586 -0.0804
 7266W        W23400   1.605   2.046  15.407 -0.3611 -0.1780 -0.0194
 7267W        W23401   0.079  10.892   1.025  0.1177 -0.2160 -0.2555
 7268W        W23402   8.410   5.791  16.300  0.0695  0.3059 -0.3971
 7269W        W23403  15.248   9.386   3.214 -0.0192 -0.1943  0.0893
 7270W        W23404  12.938   6.407  14.485 -0.0869  0.0054  0.0370
 7271W        W23405   7.739   6.988  10.899  0.0690 -0.1627  0.2864
 7272W        W23406  12.202   4.780  13.455 -0.0948 -0.0589 -0.0636
 7273W        W23407   8.407  10.496   3.133 -0.1946 -0.2173 -0.0801
 7274W        W23408   3.153  15.211  11.914 -0.2219  0.1536 -0.0664
 7275W        W23409   7.889   9.771  12.474 -0.1162  0.1581 -0.5438
 7276W        W23410  11.831  12.133   2.632  0.0610 -0.0711 -0.1619
 7277W        W23411  10.593  14.824   1.360 -0.0586 -0.0893 -0.1340
 7278W        W23412   8.085  10.835   5.091 -0.0356 -0.1044  0.0159
 7279W        W23413   5.351   8.169   4.955  0.0088 -0.2048  0.3887
 7280W        W23414   7.929  17.924  12.990 -0.3824  0.0713 -0.0702
 7281W        W23415  11.930  13.033   0.112 -0.1184  0.0523  0.1656
 7282W        W23416  16.338   6.564  14.645  0.0935  0.3976  0.0290
 7283W        W23417   3.762   3.570   1.586 -0.0334 -0.1219  0.0002
 7284W        W23418   4.226   0.821   3.187  0.2842 -0.1281 -0.1958
 7285W        W23419   1.072   8.282  14.374 -0.0926  0.2150  0.3193
 7286W        W23420  11.536   3.562   5.271  0.0612  0.0517  0.1459
 7287W        W23421  10.454  11.864   2.693  0.0658  0.1279 -0.1511
 7288W        W23422   0.987   6.990   1.897 -0.0360 -0.1978 -0.0939
 7289W        W23423   4.724  10.051  12.375  0.0996  0.1413 -0.2347
 7290W        W23424  16.791   2.207  12.998 -0.0671 -0.0584  0.0041
 7291W        W23425  17.732   8.176  10.304 -0.0018 -0.0420  0.1618
 7292W        W23426   7.990  14.048   4.686 -0.2072  0.1355  0.1030
 7293W        W23427  16.457  10.619   1.262  0.1504  0.1506 -0.0518
 7294W        W23428  16.459   6.575   1.773 -0.0147  0.0925 -0.0686
 7295W        W23429   7.283   4.296  12.997 -0.1208  0.1159  0.1588
 7296W        W23430   8.897  13.289   1.392 -0.1015 -0.1839  0.0380
 7297W        W23431  12.611  11.561   0.664  0.1531  0.3644  0.1969
 7298W        W23432  15.288   3.670  11.512 -0.0511 -0.1352  0.1295
 7299W        W23433  13.199   4.029  13.085  0.0511 -0.3351 -0.1293
 7300W        W23434  12.302   4.176   2.873  0.0183  0.0556  0.2200
 7301W        W23435   1.454   4.854  11.374 -0.1301 -0.1046 -0.3020
 7302W        W23436   1.204  16.787   5.156 -0.0128  0.0312  0.0791
 7303W        W23437  12.270   1.039  16.278  0.0294  0.0304  0.4237
 7304W        W23438   3.081   2.767   2.676 -0.0472  0.3599  0.0048
 7305W        W23439  10.658   1.632  15.426  0.1117  0.0315  0.3445
 7306W        W23440  10.182   5.185  12.730  0.2825  0.1131 -0.0693
 7307W        W23441  12.446  11.859   4.147 -0.0330  0.0763 -0.0707
 7308W        W23442  17.113   3.489  11.722  0.1812 -0.0471  0.0633
 7309W        W23443   2.130   6.258  14.396 -0.2461  0.0822 -0.2458
 7310W        W23444   8.673   9.069   1.277  0.2957 -0.1285 -0.1830
 7311W        W23445  13.948   4.802   4.092  0.1945 -0.1061 -0.1197
 7312W        W23446   3.436   8.523   3.265 -0.1082 -0.3758  0.1014
 7313W        W23447   7.433   5.881  13.549 -0.1783 -0.2881  0.1436
 7314W        W23448   0.633   0.546  12.332  0.1506  0.0735  0.1677
 7315W        W23449   4.836   5.990  11.928 -0.1180  0.0809  0.1209
 7316W        W23450   7.593  10.770  13.298 -0.2225  0.1952 -0.0452
 7317W        W23451  16.415  15.905  13.638  0.0213  0.0500 -0.1498
 7318W        W23452   6.019   8.229  15.684 -0.1777 -0.0834 -0.1278
 7319W        W23453  13.154   5.329   4.930 -0.0782  0.2084  0.2059
 7320W        W23454   8.558  10.319  13.471  0.0957 -0.0934  0.1769
 7321W        W23455  17.898   9.804  13.731  0.1409 -0.0407 -0.0491
 7322W        W23456  16.820   0.821   3.764 -0.1733  0.0221  0.2067
 7323W        W23457   9.228  12.836   1.889  0.0921  0.1451 -0.1327
 7324W        W23458  16.239   6.460  12.822 -0.0386 -0.3522  0.0288
 7325W        W23459  10.228   1.797  11.415  0.4840  0.1014 -0.2150
 7326W        W23460  15.244   5.356   2.056 -0.0374 -0.1073  0.0089
 7327W        W23461  16.132  16.565  14.425 -0.1166  0.0670  0.0808
 7328W        W23462  11.741   5.551   2.956 -0.0916 -0.0591  0.2275
 7329W        W23463   6.604  14.911   3.017 -0.0477  0.0058 -0.3097
 7330W        W23464   3.153   5.733   2.621  0.2934  0.1059 -0.1443
 7331W        W23465  16.018   8.027  13.109 -0.0050 -0.1209 -0.1007
 7332W        W23466  12.706   7.544   1.343  0.0623  0.0424 -0.2248
 7333W        W23467   8.166  13.628   0.800  0.1996  0.2461  0.1023
 7334W        W23468   2.227   0.771   6.185 -0.2631 -0.3250  0.2691
 7335W        W23469  11.323  15.924   1.315  0.2088 -0.0304 -0.2559
 7336W        W23470   4.281   2.631   4.733 -0.0745 -0.0701  0.0202
 7337W        W23471   7.794   7.087  13.165 -0.4080 -0.1843 -0.0155
 7338W        W23472  13.188   8.965  16.074 -0.1206 -0.1817 -0.0117
 7339W        W23473  11.231   6.544   3.736  0.0707  0.2970 -0.4268
 7340W        W23474   9.667  11.954  12.317 -0.1447  0.0463 -0.2588
 7341W        W23475   3.585   9.363   6.367 -0.3611  0.1807 -0.1349
 7342W        W23476  13.990   1.574  13.121 -0.0401 -0.2050  0.2780
 7343W        W23477   7.290   6.040  15.945 -0.0895 -0.1663  0.2451
 7344W        W23478   7.856   6.325   2.810 -0.3991  0.0526 -0.0850
 7345W        W23479  10.368   1.637  14.058  0.1495 -0.1314  0.0315
 7346W        W23480   6.792   1.847   1.497  0.1810  0.0501  0.2091
 7347W        W23481  15.503   0.063   0.842 -0.0420  0.2156  0.0065
 7348W        W23482   2.709  12.360   1.860  0.0752  0.0208  0.1276
 7349W        W23483   3.495   0.287  14.496  0.1940 -0.0814  0.0207
 7350W        W23484  16.522   5.517  13.500  0.3170  0.0270 -0.0049
 7351W        W23485  17.965   0.823   4.496 -0.2571  0.1474  0.4770
 7352W        W23486  16.396  12.371  14.830 -0.1255  0.0942 -0.1204
 7353W        W23487   8.573  11.723   1.354 -0.0671 -0.0030 -0.1163
 7354W        W23488   7.222  11.332   1.152  0.0989  0.0307  0.1477
 7355W        W23489  12.985  15.531   4.642  0.1256  0.1192 -0.0662
 7356W        W23490  16.299   6.303   4.159  0.3071 -0.1310 -0.0221
 7357W        W23491  14.247   8.729   3.844  0.1777 -0.0642  0.0945
 7358W        W23492  15.026   5.474  13.352  0.0664 -0.2799 -0.0186
 7359W        W23493   6.247   9.107  12.254  0.0486 -0.1274 -0.0679
 7360W        W23494   5.034  12.301  13.545 -0.0832 -0.0396 -0.0386
 7361W        W23495  13.240   9.906  12.748  0.0944 -0.0753 -0.3313
 7362W        W23496  13.927   5.619   1.102  0.2180  0.1734  0.2333
 7363W        W23497  13.236  11.882  15.452 -0.2338  0.0942 -0.2336
 7364W        W23498   8.494   8.627   4.352  0.1426 -0.2060 -0.0421
 7365W        W23499   3.328   4.522   1.050 -0.1231 -0.1118 -0.0664
 7366W        W23500  15.463  11.016  11.781 -0.4749  0.2489  0.0203
 7367W        W23501  13.497  13.228  11.447  0.0551  0.3790  0.1025
 7368W        W23502  16.461   9.598  16.040  0.1123 -0.0616  0.0828
 7369W        W23503  15.101   4.467   3.680 -0.0336  0.0049 -0.1405
 7370W        W23504  16.183   9.576   4.020 -0.0523 -0.0661  0.0430
 7371W        W23505   9.827  12.433  14.672 -0.1628 -0.0458  0.2530
 7372W        W23506   2.788  17.141   5.183 -0.2573 -0.0140 -0.1072
 7373W        W23507  13.614   2.932  16.399 -0.1331 -0.1051  0.1409
 7374W        W23508   0.841   8.533  12.095  0.2448 -0.1368 -0.2759
 7375W        W23509  16.430   4.176  10.899 -0.1062 -0.0128 -0.0575
 7376W        W23510   7.485  13.327   3.023 -0.0069 -0.0170 -0.2790
 7377W        W23511   6.951  10.168   4.816 -0.1365 -0.1916  0.2352
 7378W        W23512   7.223   2.969  15.704  0.0214  0.0967  0.0093
 7379W        W23513  13.617   6.793  15.139  0.0548 -0.0540  0.1920
 7380W        W23514  16.252  15.218  14.086 -0.2050  0.2217  0.0115
 7381W        W23515   8.941   5.867   5.925 -0.1159 -0.1777  0.1596
 7382W        W23516  17.200   3.660  13.578 -0.4713  0.0389 -0.1862
 7383W        W23517   3.516  13.306  11.842  0.2339 -0.0414 -0.5235
 7384W        W23518  14.445   9.610  12.099 -0.0005 -0.1234  0.1046
 7385W        W23519   6.022   2.404  10.201  0.0242  0.1223  0.1755
 7386W        W23520  14.519  14.983   3.998  0.1769 -0.0383  0.3958
 7387W        W23521   6.673  11.007  16.403 -0.0015 -0.3762 -0.2131
 7388W        W23522   3.823   3.132   4.323 -0.1264 -0.0197  0.3207
 7389W        W23523  13.604   3.744  16.035 -0.1382  0.4020  0.3470
 7390W        W23524  13.619   2.764  12.572 -0.3616  0.2285  0.0215
 7391W        W23525   8.958  13.410  15.040  0.2026 -0.0304  0.2250
 7392W        W23526   3.644  11.421   6.096 -0.0389  0.2448 -0.0032
 7393W        W23527   9.922  16.061   1.271  0.1065  0.0898  0.2304
 7394W        W23528   4.467   4.854   2.008 -0.0627  0.3342  0.0090
 7395W        W23529  12.432  12.538  15.161  0.1143 -0.0975  0.0104
 7396W        W23530   9.452  14.914  14.037 -0.1099 -0.0492  0.0891
 7397W        W23531  17.785  11.660  12.424 -0.0399  0.0374  0.0838
 7398W        W23532  17.090  18.054   5.641  0.0999 -0.1541 -0.0065
 7399W        W23533  17.281   9.979  12.838 -0.0357  0.1748  0.1763
 7400W        W23534   2.076   0.651   4.675  0.1136  0.1228 -0.1332
 7401W        W23535  14.743  11.521   2.384  0.2706  0.3366 -0.0612
 7402W        W23536  13.132  11.630   5.302 -0.4120  0.0049 -0.0764
 7403W        W23537  15.221   4.401   1.615  0.0165 -0.1770  0.0655
 7404W        W23538   4.167   2.377  15.467 -0.1343  0.1246 -0.0671
 7405W        W23539   7.530  13.879  11.798  0.3332 -0.0875  0.0536
 7406W        W23540  13.350   4.101   2.961  0.1774 -0.0786  0.1976
 7407W        W23541   8.786  15.530   1.378  0.0374 -0.0201 -0.1893
 7408W        W23542   3.564   3.486  15.938  0.2782  0.0313 -0.0579
 7409W        W23543  14.945   0.408   4.761 -0.0305  0.0161 -0.0847
 7410W        W23544   9.221  16.247  15.129  0.2048 -0.0485 -0.3580
 7411W        W23545   1.733   5.098   4.410 -0.3706 -0.0652  0.0876
 7412W        W23546   6.744  12.265  15.870  0.0224  0.0236  0.2246
 7413W        W23547  15.746  10.722  12.307 -0.0831 -0.2195  0.1113
 7414W        W23548  10.753   8.608   1.754 -0.0507  0.0684  0.2366
 7415W        W23549   8.011  16.213   3.347 -0.0188  0.2746  0.3747
 7416W        W23550   9.577  12.683  11.275  0.0825  0.1156 -0.0551
 7417W        W23551  15.207  17.589   0.053  0.3548  0.1102  0.1301
 7418W        W23552  12.623   2.858   4.402  0.2677 -0.0147  0.0948
 7419W        W23553   7.601  15.739  14.528  0.1819 -0.4207 -0.1562
 7420W        W23554   5.033   5.749   3.907 -0.0062 -0.0658 -0.0508
 7421W        W23555  10.356   4.166  13.364  0.2442 -0.1905  0.0894
 7422W        W23556   2.636   0.498   1.840 -0.1630  0.0590 -0.1053
 7423W        W23557   3.816   5.186   4.518 -0.0830 -0.0659  0.2147
 7424W        W23558   1.628  10.007   5.175  0.0783 -0.0515  0.0745
 7425W        W23559   1.912  15.020  11.950  0.2877 -0.1228 -0.0534
 7426W        W23560  14.109  14.100  14.969 -0.0485  0.1558 -0.0211
 7427W        W23561   4.063   5.101  14.069 -0.1494 -0.1051 -0.0936
 7428W        W23562  15.037   3.602   4.066  0.3175  0.1207  0.1084
 7429W        W23563   5.652  13.313  14.786 -0.2678 -0.1221 -0.2135
 7430W        W23564  11.431   6.480   5.264  0.1051  0.1616 -0.2115
 7431W        W23565   0.002  13.731   0.042 -0.4534 -0.2260  0.0504
 7432W        W23566  11.251   3.451   4.044 -0.1135 -0.2128 -0.0216
 7433W        W23567   5.185  12.040  16.379  0.0114 -0.0303  0.1383
 7434W        W23568  17.029  16.987  14.083  0.2527  0.0468 -0.0599
 7435W        W23569   0.574  15.466   5.905  0.1906 -0.1338  0.3014
 7436W        W23570  11.650   8.161  11.919  0.1100  0.1808  0.0889
 7437W        W23571  14.183   7.641   0.469  0.0401  0.1051  0.3284
 7438W        W23572   7.731  15.509   2.720 -0.0026  0.2358 -0.1492
 7439W        W23573   5.703   3.975   5.590 -0.2556 -0.0008  0.0702
 7440W        W23574  15.991   6.693  15.009 -0.0198  0.1837  0.1154
 7441W        W23575  13.074   9.861  15.125 -0.0891  0.3663  0.0465
 7442W        W23576   3.428   2.750  14.365  0.1484  0.2099 -0.0677
 7443W        W23577   5.196   9.345  12.864  0.1186  0.2402 -0.1279
 7444W        W23578   4.670   8.903   4.356 -0.0338  0.2392 -0.0303
 7445W        W23579  11.016   4.953  15.904 -0.1307 -0.0520  0.1045
 7446W        W23580  16.069  10.875   0.302  0.0995 -0.0800 -0.0379
 7447W        W23581  13.110  14.768   1.246 -0.1238 -0.0886 -0.0701
 7448W        W23582  15.227  12.753   2.325 -0.0890 -0.0671  0.2943
 7449W        W23583  12.595  15.665  12.037  0.2132 -0.2464 -0.0866
 7450W        W23584   8.440  14.902  13.404 -0.0848  0.0935 -0.1197
 7451W        W23585   8.600   8.216  13.403 -0.1132  0.1351  0.0788
 7452W        W23586  10.520  10.613  15.445 -0.0537 -0.0260 -0.1520
 7453W        W23587   4.549   0.296   4.536  0.1561  0.5269  0.2308
 7454W        W23588  15.849   6.721   0.332 -0.0760 -0.0383 -0.1808
 7455W        W23589   1.750   7.098  16.392 -0.1222  0.0780 -0.0082
 7456W        W23590   6.282  14.570   3.191 -0.1716 -0.1795 -0.0957
 7457W        W23591  11.592   6.808   4.433 -0.0909 -0.0474  0.1174
 7458W        W23592   9.990   0.229  16.368 -0.1895  0.1363 -0.1965
 7459W        W23593  10.221  10.474  13.305  0.0223  0.2538 -0.2375
 7460W        W23594  13.867   1.178  13.456 -0.0440  0.0260  0.1785
 7461W        W23595  13.283  17.013  13.940  0.0550  0.1552  0.2057
 7462W        W23596   7.216   9.460  16.048 -0.1485 -0.1106  0.0260
 7463W        W23597   1.460   8.213  12.174 -0.1233  0.4548 -0.1207
 7464W        W23598   6.197   7.494   4.318 -0.2844  0.1634 -0.0513
 7465W        W23599  14.386   3.546   2.173  0.1640  0.0658 -0.3934
 7466W        W23600   6.396  17.122   1.348 -0.0392  0.3424  0.0980
 7467W        W23601   9.671   5.842  13.145 -0.3488  0.0495  0.1067
 7468W        W23602   5.365   9.421  14.012 -0.0370 -0.1647  0.0577
 7469W        W23603  16.560   9.261  15.697 -0.1711  0.1084  0.1074
 7470W        W23604   8.046   8.425   4.062 -0.3708 -0.0973  0.0162
 7471W        W23605   0.827   3.754   3.537  0.0915 -0.0161  0.0798
 7472W        W23606   8.439  15.503   3.369 -0.1178  0.1383 -0.0308
 7473W        W23607   2.637   4.079  12.051 -0.1588  0.1352 -0.3668
 7474W        W23608  13.710   8.704   0.473  0.0012  0.2954 -0.0278
 7475W        W23609   4.281   3.775  15.629  0.2088  0.2859 -0.2944
 7476W        W23610   6.098   2.712  13.970 -0.3081  0.2565  0.0744
 7477W        W23611   0.303   1.388   0.828 -0.0544 -0.2892  0.0317
 7478W        W23612   4.191  16.826  12.936 -0.1122  0.0320  0.1190
 7479W        W23613   8.760   7.807  11.169  0.1691  0.2331 -0.3018
 7480W        W23614  10.871  16.326  12.553  0.3142 -0.1384  0.0053
 7481W        W23615  10.169  10.849  13.658  0.0947 -0.0782  0.0317
 7482W        W23616  10.209   5.476   3.843  0.0185  0.2893 -0.3291
 7483W        W23617   7.334   2.588  15.419 -0.0953  0.2569  0.1484
 7484W        W23618   0.836  17.692  15.548  0.1081 -0.0150 -0.0853
 7485W        W23619   5.468   5.191  15.534 -0.1377 -0.0032 -0.0268
 7486W        W23620   6.799   6.811  13.122  0.0583 -0.0401 -0.0161
 7487W        W23621   6.132  13.208   4.941 -0.2309 -0.0110  0.3262
 7488W        W23622  17.483   3.914  15.453 -0.1872  0.3324 -0.2513
 7489W        W23623  10.301   5.656  13.903 -0.0864 -0.0559  0.2943
 7490W        W23624  16.815   7.508  12.271  0.2114 -0.2043  0.2143
 7491W        W23625   4.491  16.534   1.635  0.1935  0.0680  0.0372
 7492W        W23626  15.714  12.746   3.277  0.1950  0.0545  0.1153
 7493W        W23627  17.257  11.191   3.228 -0.4130 -0.4081 -0.0927
 7494W        W23628   8.849   1.912   4.697 -0.0463  0.0101 -0.5131
 7495W        W23629   7.270  13.620   1.788  0.1554  0.1034 -0.0300
 7496W        W23630  13.314   1.242   3.579  0.0142 -0.0393 -0.1161
 7497W        W23631   8.760  16.335   2.556 -0.2503  0.0110  0.0782
 7498W        W23632  12.360   2.778   4.790 -0.0722  0.0327 -0.0406
 7499W        W23633   2.145   1.457  14.321 -0.1129  0.0280  0.0760
 7500W        W23634   0.812   3.288   3.774  0.0960  0.3300 -0.0789
 7501W        W23635   6.167  13.022   0.883 -0.0453  0.1208  0.0697
 7502W        W23636   2.786   0.844  15.413  0.0616 -0.0392  0.2234
 7503W        W23637  14.364   9.874  10.519  0.0007  0.0945 -0.3587
 7504W        W23638  17.225  10.450  12.528 -0.0245  0.0526 -0.1071
 7505W        W23639  16.363   8.247   0.379 -0.0116 -0.1598 -0.2084
 7506W        W23640  15.050  16.853   2.640 -0.1146  0.2949  0.1781
 7507W        W23641   6.896   0.520  11.548  0.0190 -0.0134  0.1420
 7508W        W23642  14.681   5.999  15.786 -0.1871  0.2182 -0.1561
 7509W        W23643   4.857  14.436  12.658  0.0270  0.3151 -0.0004
 7510W        W23644   6.437   5.502  14.908  0.3509  0.1537  0.1466
 7511W        W23645   4.673   1.689  14.418  0.2681  0.0171  0.0836
 7512W        W23646   8.745  15.509   1.970 -0.4658 -0.1144  0.0281
 7513W        W23647  16.299   1.533  11.052 -0.2423  0.0571  0.1394
 7514W        W23648   8.766  12.048  11.344 -0.1129 -0.0783  0.1940
 7515W        W23649   2.728  15.189  12.186  0.1216 -0.2861 -0.2669
 7516W        W23650   9.736   7.409  14.124  0.2121 -0.1809 -0.0936
 7517W        W23651   9.361  10.649   1.381  0.0967 -0.1683 -0.2015
 7518W        W23652   4.055  13.216  11.725  0.2061 -0.0521  0.2010
 7519W        W23653  10.548   1.632  11.085  0.0222  0.0119 -0.2261
 7520W        W23654  16.749   3.228  15.734 -0.0509 -0.1222  0.1404
 7521W        W23655   0.212   1.228  13.467 -0.4833  0.0200  0.0613
 7522W        W23656  15.379   5.019   6.060 -0.0514 -0.0031  0.0425
 7523W        W23657   8.575  10.086   2.806  0.0671 -0.0677 -0.0640
 7524W        W23658   0.789  16.377   1.846 -0.2253 -0.0700  0.2903
 7525W        W23659  11.070   0.775  12.419 -0.3545  0.1497  0.0365
 7526W        W23660   5.888   8.131   0.625 -0.0316 -0.1476  0.2378
 7527W        W23661  17.808  16.027   2.686 -0.1092  0.3644 -0.0867
 7528W        W23662  16.841   8.182   0.642 -0.1956  0.3241  0.0457
 7529W        W23663   6.020   7.805  16.117  0.0829  0.0349  0.2645
 7530W        W23664   3.926   3.071  15.595 -0.0554  0.1026  0.0610
 7531W        W23665  14.750  11.608  11.664  0.1952 -0.3369 -0.0187
 7532W        W23666  11.756   3.705   2.513  0.0111 -0.0917 -0.1138
 7533W        W23667   2.120  12.848   5.896 -0.0813 -0.1090 -0.2114
 7534W        W23668   1.414   1.482  15.675 -0.1852 -0.0483  0.1244
 7535W        W23669  11.574   0.580   1.361 -0.2083 -0.0364 -0.2822
 7536W        W23670  11.154   9.633  11.947 -0.1081 -0.1985  0.0629
 7537W        W23671  17.189  16.187   5.026 -0.0521  0.2673  0.1330
 7538W        W23672  10.037  15.141  15.885 -0.1818 -0.2259 -0.0767
 7539W        W23673  16.964  12.220  13.641 -0.0825  0.1550 -0.1631
 7540W        W23674  12.439  11.926  16.095 -0.2580 -0.1958 -0.1442
 7541W        W23675  17.628  13.876  12.367  0.5139 -0.3490  0.1007
 7542W        W23676   3.050  17.566   3.546  0.0902  0.1371 -0.0203
 7543W        W23677   8.906   0.284  13.135  0.0941  0.3296 -0.0033
 7544W        W23678   3.696   0.325  12.391 -0.2080  0.2220  0.1010
 7545W        W23679   6.518   3.371   5.005  0.0783 -0.2167 -0.0117
 7546W        W23680  12.499   6.159  14.553  0.0600  0.0438 -0.0005
 7547W        W23681  15.842  14.401   5.316  0.1618  0.0543  0.3023
 7548W        W23682  11.974  13.408  14.012 -0.0974 -0.0664 -0.0643
 7549W        W23683   4.590   6.486  12.875  0.4397  0.0071  0.0432
 7550W        W23684  12.181   3.877   3.944  0.0196  0.0142 -0.2670
 7551W        W23685  16.925   8.773  14.439 -0.0218  0.1977  0.1822
 7552W        W23686   4.269  10.627  15.192 -0.0709  0.0526 -0.0083
 7553W        W23687  18.006  14.350   0.671 -0.3104 -0.1879  0.2193
 7554W        W23688   0.067   4.367   1.067 -0.0788 -0.0037  0.2964
 7555W        W23689  17.591  15.252  14.562 -0.0479  0.0850  0.2359
 7556W        W23690  12.644  16.533  12.792 -0.0981  0.2834  0.0172
 7557W        W23691  13.406   2.070   0.626 -0.1235  0.1382 -0.1427
 7558W        W23692  13.149  14.469   0.375  0.1404 -0.1542 -0.1230
 7559W        W23693   9.411   7.848  12.583  0.2767  0.2357  0.1382
 7560W        W23694  11.048   6.812  16.299  0.1026  0.0408 -0.0568
 7561W        W23695  14.783  16.893   5.643  0.0480 -0.4421 -0.0425
 7562W        W23696   7.078   6.938   5.634 -0.1079  0.1258 -0.1196
 7563W        W23697   4.799   6.992  12.310  0.1958 -0.0068 -0.2015
 7564W        W23698  14.067   0.080  14.579 -0.0130 -0.0854 -0.0067
 7565W        W23699  12.883  10.127   4.597  0.1698  0.1759  0.1084
 7566W        W23700  17.181  13.963   2.407 -0.2219  0.2918  0.0601
 7567W        W23701   6.500  14.632   2.506  0.2531  0.2200 -0.1486
 7568W        W23702  15.563  15.752  14.384 -0.2977 -0.2088 -0.2797
 7569W        W23703  11.000  12.389   3.617  0.3144 -0.0365 -0.2030
 7570W        W23704   2.460   0.915   0.771  0.2191 -0.1616  0.0105
 7571W        W23705  16.521   1.176  12.662 -0.1410 -0.0051 -0.1606
 7572W        W23706   7.702  15.417  13.435 -0.3642 -0.0792  0.1204
 7573W        W23707   6.602  13.730   3.121  0.2086  0.1704  0.0759
 7574W        W23708   4.006   9.781  12.407 -0.2108  0.0072 -0.0135
 7575W        W23709  14.901  17.216   5.130  0.1521  0.0206  0.1036
 7576W        W23710   4.965   1.125  11.604  0.0451 -0.1140  0.2712
 7577W        W23711  12.261   5.104  12.457 -0.0735  0.1505 -0.0041
 7578W        W23712  12.441  16.852  15.098 -0.2895 -0.0215  0.0652
 7579W        W23713  11.993   4.820   4.552 -0.0395 -0.2616 -0.3135
 7580W        W23714   4.233   8.245  13.110 -0.0361  0.0484 -0.2718
 7581W        W23715  15.740   9.997   1.716  0.3073  0.1515  0.3702
 7582W        W23716   6.477  14.846  12.352  0.0705  0.1948 -0.0428
 7583W        W23717  14.672   9.554   4.350  0.0216  0.0251  0.0429
 7584W        W23718   3.491  10.105  14.950  0.0903 -0.1199  0.0896
 7585W        W23719   8.510   6.260  15.493  0.1044  0.1961 -0.0950
 7586W        W23720   5.154   4.689   3.487 -0.3016  0.1020 -0.2145
 7587W        W23721   7.377   3.564  14.511 -0.0474  0.0360 -0.2350
 7588W        W23722  11.926   1.069  14.857 -0.0645 -0.0267 -0.0654
 7589W        W23723   7.571   4.978   3.336 -0.1892 -0.0829  0.0316
 7590W        W23724  13.031   2.629   3.711 -0.0663 -0.4268  0.0538
 7591W        W23725  11.116   4.515   0.540 -0.0341 -0.2678 -0.2027
 7592W        W23726  17.233   6.054   0.249  0.0780  0.0404  0.3740
 7593W        W23727   1.488   2.619  15.204 -0.0420  0.1168 -0.3312
 7594W        W23728   9.659   4.427   2.281 -0.1899  0.0940  0.0345
 7595W        W23729  17.892   0.732   0.678 -0.1302  0.0250  0.2700
 7596W        W23730   0.996   3.906   2.412  0.0583 -0.1548 -0.2676
 7597W        W23731   7.837   7.913  13.288  0.2049 -0.0420 -0.3456
 7598W        W23732   9.680  14.402   0.406 -0.1385  0.0018 -0.1137
 7599W        W23733   6.695  10.115   2.790 -0.3698  0.0383 -0.1640
 7600W        W23734  11.685   4.924  14.909 -0.2855  0.0108  0.1819
 7601W        W23735  16.814  16.423   3.920  0.0426  0.0097  0.1034
 7602W        W23736  16.292   0.735  12.672  0.0674 -0.0303 -0.1465
 7603W        W23737   3.824   6.941  12.437 -0.4088 -0.1696  0.1986
 7604W        W23738  15.445  16.383  13.704  0.1303 -0.4344  0.0409
 7605W        W23739  17.386   3.884   3.169  0.0356 -0.0040  0.1690
 7606W        W23740  12.354  16.936   4.317  0.0704 -0.1312  0.1753
 7607W        W23741   5.775  13.777  11.019 -0.2532  0.2466  0.0448
 7608W        W23742   9.371   0.691  12.082  0.1456 -0.1850  0.2963
 7609W        W23743   8.605   2.004   0.537  0.1340 -0.2497 -0.2046
 7610W        W23744   0.756   1.926  12.393  0.2953  0.0151 -0.0682
 7611W        W23745  17.004   8.809   4.432  0.1612 -0.1704  0.0754
 7612W        W23746  16.961  10.270   4.731  0.2613  0.0122 -0.1739
 7613W        W23747  11.895  16.886  14.687 -0.0449  0.0401  0.1092
 7614W        W23748   1.740   6.632  16.199 -0.2940  0.1233  0.4538
 7615W        W23749   9.584   6.197  11.900 -0.0930  0.0347 -0.0384
 7616W        W23750   4.991   4.087  16.109  0.4359  0.1013  0.1102
 7617W        W23751  13.671  16.383   3.739 -0.3311  0.1673 -0.0094
 7618W        W23752   9.544  10.791  11.598  0.0403  0.0055  0.1789
 7619W        W23753   7.898  16.737   3.370 -0.0481  0.1227 -0.0964
 7620W        W23754  13.750   3.053   5.338  0.0690 -0.1294  0.1448
 7621W        W23755   4.913  14.919  12.399  0.0205  0.1096  0.0581
 7622W        W23756   5.857   1.956  15.517 -0.0276 -0.1828  0.1710
 7623W        W23757   2.217  15.039   4.453  0.2453  0.0478  0.1082
 7624W        W23758   9.878   1.533   0.074 -0.0541  0.2477  0.2777
 7625W        W23759   1.762  14.333   5.566  0.2880  0.0268 -0.2838
 7626W        W23760   6.043  11.486  13.923  0.0336  0.2347  0.0536
 7627W        W23761   2.681   2.577   2.993  0.2671  0.0234  0.0963
 7628W        W23762   2.109  17.069   4.074 -0.1326  0.1701  0.0851
 7629W        W23763   3.620   6.451   2.457 -0.3632  0.1773  0.0040
 7630W        W23764  13.425   4.900   9.992 -0.0005  0.1617  0.0193
 7631W        W23765   7.151   9.604  14.524  0.0068 -0.2220 -0.1663
 7632W        W23766   1.133   2.661  11.341 -0.0751  0.1138 -0.2456
 7633W        W23767   8.477   9.194  14.416  0.2473  0.1721  0.1543
 7634W        W23768   2.259  15.058  12.326 -0.0895  0.2223 -0.0677
 7635W        W23769  11.618   1.317   5.193  0.1547  0.0796 -0.1554
 7636W        W23770   1.439   3.822   1.781 -0.1905 -0.0589 -0.0991
 7637W        W23771   5.287  13.261   5.484 -0.1682  0.1235 -0.1321
 7638W        W23772   9.709   5.496   0.658 -0.5702 -0.1617  0.1276
 7639W        W23773   1.108  17.643  11.384  0.1994  0.1568  0.0857
 7640W        W23774   7.464  13.309   1.388  0.2549 -0.0393  0.0256
 7641W        W23775  15.624  16.995   4.026  0.5333 -0.6171 -0.0329
 7642W        W23776  15.592  11.651   2.922 -0.0496 -0.1213 -0.1338
 7643W        W23777  16.287  16.659   2.577 -0.1553  0.1432 -0.0793
 7644W        W23778  17.389   6.467  14.347  0.3696 -0.2749 -0.1573
 7645W        W23779  10.716  16.695   3.662 -0.0719  0.0845 -0.0254
 7646W        W23780   9.089  17.497   3.523  0.1630  0.0383 -0.0035
 7647W        W23781   1.029  14.095  16.240 -0.4497 -0.1842  0.3140
 7648W        W23782   8.516  17.427  16.292  0.0080 -0.0321  0.2366
 7649W        W23783  11.489   3.480   1.133 -0.3540  0.2074  0.0081
 7650W        W23784   7.728   0.822  14.779  0.2364 -0.1445  0.1132
 7651W        W23785   9.759   5.814  14.026  0.0695 -0.0822 -0.0922
 7652W        W23786   6.789   5.102   3.217  0.1773  0.2291  0.0018
 7653W        W23787   3.655  12.564   4.673  0.1069  0.2485  0.3122
 7654W        W23788  16.484   9.291   3.740  0.1583  0.2221  0.0475
 7655W        W23789  17.730  12.511  15.344  0.0674  0.1008 -0.0154
 7656W        W23790   0.135   2.371  16.296 -0.0521 -0.0962 -0.0079
 7657W        W23791   6.486  10.161   3.719  0.0684 -0.0586 -0.0503
 7658W        W23792   1.700  10.629   3.538 -0.1822 -0.1113 -0.3883
 7659W        W23793  15.402  10.154   3.855  0.0696  0.3696  0.1640
 7660W        W23794   9.847  12.882  16.344  0.3642  0.0651 -0.0600
 7661W        W23795   4.212   6.485   1.963 -0.0764  0.2816  0.1099
 7662W        W23796   3.407  13.993   1.200 -0.0037 -0.0944  0.2925
 7663W        W23797   5.093   1.458   5.819  0.2330  0.1198 -0.0248
 7664W        W23798  16.649   4.808  13.212  0.0582  0.0269 -0.3910
 7665W        W23799  11.507  11.914  14.612  0.0738  0.1440 -0.0084
 7666W        W23800   3.027   4.367  15.045 -0.0876  0.1157 -0.0407
 7667W        W23801  12.430   3.558   3.073  0.1903  0.0258  0.3272
 7668W        W23802  15.556  11.798  12.211 -0.3026 -0.2012  0.2364
 7669W        W23803   8.237   7.279   3.712  0.2542 -0.0945  0.0897
 7670W        W23804  17.774  17.982   2.467  0.1197  0.3767 -0.3891
 7671W        W23805   1.458   8.142   1.240  0.3500  0.2074  0.1401
 7672W        W23806  13.522   6.205   4.239 -0.1321  0.0464  0.0206
 7673W        W23807  14.535   0.807   2.180 -0.2762  0.0478  0.2896
 7674W        W23808   2.370   7.523  14.231  0.0431  0.2080  0.2300
 7675W        W23809  10.050   0.399   3.410 -0.0187 -0.0053  0.3774
 7676W        W23810  17.920   7.810   3.906 -0.0123 -0.2536  0.4309
 7677W        W23811   1.114   6.289   2.817  0.3079  0.0607 -0.0646
 7678W        W23812   4.849  14.483  14.828  0.0177 -0.0701 -0.0445
 7679W        W23813   2.726  12.396   2.343  0.0882  0.1332 -0.3809
 7680W        W23814   6.941  11.013   0.829  0.1059 -0.0636 -0.2331
 7681W        W23815  17.320   5.193   2.797 -0.2565  0.0157  0.1780
 7682W        W23816   0.990   6.892  11.792 -0.2730  0.1771 -0.1981
 7683W        W23817   6.995   6.667   1.785 -0.1852 -0.0630  0.2500
 7684W        W23818   5.688  10.632   0.107 -0.2865 -0.0877  0.0917
 7685W        W23819  11.760   5.535   1.983 -0.2627  0.0548  0.0129
 7686W        W23820   1.689   6.950  13.458  0.2132  0.0196  0.1240
 7687W        W23821   1.676   0.389  13.645  0.1451 -0.1819  0.1800
 7688W        W23822  12.365   7.509  11.923 -0.0892  0.0438 -0.2359
 7689W        W23823  14.868  13.892   2.137  0.0876 -0.2093 -0.0315
 7690W        W23824   9.660   3.736   4.511  0.2685  0.3707 -0.2960
 7691W        W23825   8.524   0.057   3.070  0.0010 -0.1349 -0.2310
 7692W        W23826  15.246  15.367  10.739  0.0737 -0.1428 -0.3620
 7693W        W23827   4.452  11.242  14.229 -0.1062 -0.2549 -0.2307
 7694W        W23828  17.192   9.045   2.694  0.0581  0.0696 -0.1019
 7695W        W23829   5.986  11.151   2.332  0.0155 -0.0331  0.2928
 7696W        W23830   6.765   0.599  15.416 -0.1260  0.2486 -0.0064
 7697W        W23831   3.806  12.375   0.407  0.0543  0.0631 -0.1319
 7698W        W23832  11.961   8.261  11.440  0.0888  0.4109 -0.0491
 7699W        W23833   7.288  13.597  13.978 -0.2243  0.1319 -0.1130
 7700W        W23834   8.588  16.481  14.585 -0.2815  0.1327  0.1668
 7701W        W23835  12.469  15.715  15.953 -0.2129 -0.3067 -0.0731
 7702W        W23836  14.725   7.496   1.453  0.3440 -0.2559  0.0006
 7703W        W23837  16.028  14.220  15.975  0.1198  0.3622  0.0525
 7704W        W23838   4.863  17.116   6.189 -0.0948  0.0545  0.2536
 7705W        W23839  11.923   6.993  11.161  0.1082  0.0862  0.0398
 7706W        W23840   8.167   6.566   0.607 -0.3296  0.0468 -0.1645
 7707W        W23841  10.999   6.563  13.804 -0.0620  0.1337 -0.3339
 7708W        W23842   4.590   2.601   4.147 -0.1922  0.2523  0.1131
 7709W        W23843  15.486   6.227  15.504 -0.4240 -0.2206 -0.2854
 7710W        W23844  12.797   3.009   1.443  0.2316 -0.0874 -0.2702
 7711W        W23845  13.113  15.094  13.500 -0.0521 -0.2657  0.2075
 7712W        W23846  11.660   9.125  12.768 -0.1266 -0.1883  0.2409
 7713W        W23847   5.906  12.745   2.845 -0.0838  0.3488  0.0672
 7714W        W23848  15.545  11.173  12.247 -0.1264  0.1189 -0.0161
 7715W        W23849   5.820  15.663   3.784 -0.0490  0.2065  0.0744
 7716W        W23850   8.479   3.775   3.897 -0.0897  0.1204 -0.0018
 7717W        W23851  12.041   9.431   3.308  0.2195  0.0583  0.0364
 7718W        W23852  11.435   3.160   0.747 -0.0383  0.3171 -0.0634
 7719W        W23853   3.259   0.001  15.130 -0.0252  0.0795 -0.2357
 7720W        W23854   1.837   4.640   9.740  0.1988  0.2492  0.0280
 7721W        W23855  17.083  14.946   2.172  0.1696  0.1913 -0.0073
 7722W        W23856   3.447  16.277  13.707  0.0205 -0.1843  0.2077
 7723W        W23857   5.750   1.142   5.245  0.2026 -0.0258 -0.2208
 7724W        W23858  17.337   9.135   2.201 -0.2040  0.1819  0.2261
 7725W        W23859   1.858   9.400   0.216 -0.0142  0.0700 -0.0504
 7726W        W23860   2.210  11.812   5.995  0.0771 -0.1490 -0.1325
 7727W        W23861  10.427  11.057   3.586 -0.4833 -0.1947 -0.0147
 7728W        W23862   0.904   8.918   0.214  0.0260  0.0692  0.0036
 7729W        W23863   3.560   5.828  15.882 -0.0414 -0.0494 -0.2557
 7730W        W23864   6.218   8.175   4.591  0.0371  0.1593 -0.2734
 7731W        W23865   9.762  12.567   4.968  0.0572 -0.0973 -0.1158
 7732W        W23866   8.295   2.436  13.820  0.0603  0.2629 -0.2454
 7733W        W23867   6.928  16.543   5.151  0.1412  0.0172  0.1091
 7734W        W23868  16.546  12.724  15.117 -0.0377  0.0562 -0.3662
 7735W        W23869   9.429  14.611   0.831 -0.2320 -0.0403 -0.2400
 7736W        W23870   0.127   3.485   5.424 -0.0760  0.1281 -0.0944
 7737W        W23871   8.196  11.056   0.971 -0.3389  0.2300 -0.3799
 7738W        W23872   0.298   7.969   4.590  0.1114 -0.0947 -0.0380
 7739W        W23873  12.179  17.304  15.894  0.1485  0.2529  0.1204
 7740W        W23874  12.576  12.320  13.113 -0.3024 -0.0058 -0.1918
 7741W        W23875  10.118   0.910  14.331  0.2249 -0.0071 -0.1092
 7742W        W23876   5.323  13.158  10.422  0.0494 -0.0113  0.0385
 7743W        W23877   7.285  10.204  14.948 -0.1046 -0.1527 -0.2716
 7744W        W23878  10.064   2.114  15.127 -0.2948 -0.0104  0.0929
 7745W        W23879   3.354   4.689   0.119  0.0965  0.1297 -0.1939
 7746W        W23880   0.734   4.416  15.399 -0.1113  0.3264  0.0917
 7747W        W23881   7.081   2.234  12.249  0.0758  0.2295 -0.3363
 7748W        W23882  13.430   0.969  12.200 -0.3713  0.2055 -0.0242
 7749W        W23883  10.706  10.858  14.622  0.0949 -0.0227  0.2302
 7750W        W23884  12.546   6.664  12.823  0.1907  0.1594  0.1192
 7751W        W23885  16.011  15.796  14.017  0.0794  0.3229  0.2065
 7752W        W23886   9.089   7.961   1.680 -0.2382 -0.2402  0.2512
 7753W        W23887   1.762   0.892  13.654 -0.2630 -0.3212 -0.0262
 7754W        W23888   2.099   9.078  14.977  0.2848 -0.4631  0.0360
 7755W        W23889  17.636  13.017   2.018 -0.2031 -0.1354 -0.1691
 7756W        W23890  11.082   8.428   1.370 -0.1706  0.2103 -0.0134
 7757W        W23891   4.239   2.432   2.754 -0.0519 -0.0659  0.1422
 7758W        W23892   1.994  12.622   3.329 -0.0219 -0.0764  0.0710
 7759W        W23893   3.968   4.473  12.559 -0.3248 -0.1492 -0.2496
 7760W        W23894  14.072  13.513   1.857 -0.0436 -0.1303  0.0000
 7761W        W23895  15.954  17.072  12.717  0.3969  0.1235  0.0990
 7762W        W23896  11.366   0.804   4.098 -0.1892  0.1140 -0.4500
 7763W        W23897   6.238  10.126   2.583 -0.0506 -0.2617  0.1303
 7764W        W23898  14.719  17.795   1.852  0.0505  0.0360  0.0104
 7765W        W23899   1.999   0.371  15.875 -0.3252 -0.0439 -0.1146
 7766W        W23900   1.673   5.772   1.793 -0.1461 -0.0952  0.2365
 7767W        W23901  16.611   7.675  15.737  0.1254  0.0715 -0.0444
 7768W        W23902  14.014  17.736   4.149 -0.0212 -0.3272  0.2576
 7769W        W23903  18.072   9.972   2.267 -0.1865  0.1223  0.0575
 7770W        W23904   4.299   0.675   4.083 -0.0913  0.1665  0.2107
 7771W        W23905  13.899  14.018  13.928  0.1116  0.0372  0.0373
 7772W        W23906   1.204  12.034   0.809 -0.0854 -0.1083  0.1445
 7773W        W23907  16.586   9.873   2.969 -0.2754 -0.2038  0.1964
 7774W        W23908   2.397   8.156   2.981  0.1794 -0.0586  0.0254
 7775W        W23909   6.109  15.806   5.488  0.6576  0.0664 -0.1654
 7776W        W23910  16.123   6.416  11.409  0.2422 -0.3144  0.0408
 7777W        W23911   9.963   1.712   3.835 -0.1638 -0.0193 -0.0292
 7778W        W23912  13.834  10.451   5.606  0.2426  0.0476  0.0211
 7779W        W23913  17.781   6.739   1.924  0.0140  0.2824  0.1844
 7780W        W23914   0.175  14.515   4.114 -0.1252 -0.0449  0.1113
 7781W        W23915   6.365   8.064  15.149 -0.0387 -0.2092  0.0685
 7782W        W23916   3.878   2.637  15.811  0.0274  0.0811  0.0424
 7783W        W23917   5.601   8.603  15.056  0.1118  0.2337  0.4088
 7784W        W23918  17.948  17.603   2.226  0.2231  0.1694  0.0396
 7785W        W23919  17.833  12.666   0.846 -0.1358 -0.1122  0.0171
 7786W        W23920  15.117   5.354  15.601 -0.0130 -0.0469  0.0002
 7787W        W23921   6.635  15.894  15.211  0.2402  0.2572 -0.0224
 7788W        W23922  11.199   2.389   5.145 -0.1053 -0.1497  0.3172
 7789W        W23923   7.430  15.057  13.208 -0.3136 -0.4574  0.0514
 7790W        W23924   1.603   4.738  12.359  0.1672  0.0586  0.2007
 7791W        W23925   2.108   1.896  12.160  0.1669 -0.1799  0.2095
 7792W        W23926   0.792  11.174  14.683 -0.0058 -0.1329 -0.2472
 7793W        W23927  15.570  17.272  12.196  0.3570 -0.0031 -0.1552
 7794W        W23928   5.727  14.684  14.717  0.0996 -0.0430  0.1282
 7795W        W23929   6.546  11.063   4.753 -0.0324 -0.1484 -0.0907
 7796W        W23930  13.977  16.989  16.042 -0.1472  0.1594 -0.0693
 7797W        W23931  15.963  17.606  14.573 -0.1563 -0.0104  0.1470
 7798W        W23932  13.737  10.604  16.365 -0.0405  0.0366 -0.1134
 7799W        W23933   6.714  10.873   1.812 -0.0977 -0.2254 -0.2227
 7800W        W23934   7.858  12.379  12.475 -0.0695 -0.2795  0.3982
 7801W        W23935  11.152  10.543   0.746  0.0315 -0.0061 -0.2596
 7802W        W23936   0.385   0.323  16.175  0.1575  0.2003 -0.0134
 7803W        W23937   2.033  10.301   2.311 -0.1583  0.1876 -0.0380
 7804W        W23938  11.378   8.764  14.051  0.0109  0.0711 -0.2773
 7805W        W23939   8.823   2.759   1.942  0.1139 -0.1900  0.2478
 7806W        W23940  15.129   6.188  13.987 -0.1793  0.2019  0.0133
 7807W        W23941   0.334   2.662   1.178  0.1111 -0.1413  0.0758
 7808W        W23942   4.572   2.805  13.808 -0.2321  0.0986 -0.4516
 7809W        W23943   6.453   3.606   4.068 -0.0433  0.1404 -0.0464
 7810W        W23944  13.665  15.234   4.145 -0.0216  0.0129 -0.1786
 7811W        W23945   2.260   5.360  12.220 -0.1613 -0.2481  0.1298
 7812W        W23946  11.915  14.284   4.413  0.1348  0.2132  0.0322
 7813W        W23947  14.803   9.056   2.327  0.2198 -0.0519 -0.0832
 7814W        W23948  16.237   2.996  11.142  0.0549  0.1304 -0.0216
 7815W        W23949  10.608   0.711  14.502  0.1143  0.0275  0.0948
 7816W        W23950   5.269   9.698   2.585 -0.2654 -0.2303  0.2099
 7817W        W23951   4.730   0.714   3.147  0.1480  0.3230 -0.0082
 7818W        W23952  15.827   4.028  14.637 -0.0070  0.0459  0.4544
 7819W        W23953  13.255  10.456  16.323  0.1338  0.2578  0.0554
 7820W        W23954  11.683  16.076  14.190  0.2029 -0.0226 -0.1797
 7821W        W23955  14.944   9.824   2.016 -0.3118 -0.2916 -0.1792
 7822W        W23956  11.762  10.745  14.920  0.1638 -0.0335 -0.1693
 7823W        W23957   4.424  11.485  11.515 -0.0186 -0.2566  0.1098
 7824W        W23958  12.210   1.878  14.383  0.1085  0.1798  0.1425
 7825W        W23959   1.411   3.117   3.248 -0.2898  0.0043 -0.0266
 7826W        W23960   5.071   1.482   3.155  0.0265  0.2234 -0.1279
 7827W        W23961  10.151   0.341   2.277  0.1625 -0.1804  0.0728
 7828W        W23962   6.635  12.181   5.794 -0.1333  0.0919 -0.0477
 7829W        W23963   0.312  12.988  13.382  0.3607  0.0531  0.1301
 7830W        W23964   2.848   9.621  11.404  0.2220 -0.0532 -0.0001
 7831W        W23965   4.629   3.412  16.124  0.0618  0.1970 -0.0226
 7832W        W23966   0.275  16.239  12.652 -0.0449 -0.0730 -0.1399
 7833W        W23967   1.556   9.698   2.972  0.2377 -0.0682  0.0549
 7834W        W23968   2.653   5.489   2.451 -0.0103 -0.0781  0.1815
 7835W        W23969  15.269   9.324   1.048  0.0755  0.1177  0.2573
 7836W        W23970   3.959  11.012  10.827  0.1360  0.0270  0.0079
 7837W        W23971  14.403   0.244  10.617  0.2476  0.0661 -0.0261
 7838W        W23972  14.168  10.388   3.372  0.2442  0.1728  0.1648
 7839W        W23973   4.829  15.640  13.170 -0.4401  0.1240  0.4275
 7840W        W23974   0.071  10.111  16.378 -0.1625 -0.0670  0.0404
 7841W        W23975   5.137   8.633  15.632 -0.1316 -0.1039  0.0722
 7842W        W23976  17.478  15.267   3.000  0.0671  0.1108 -0.1863
 7843W        W23977   1.839   5.284  11.504 -0.2215 -0.0735 -0.0675
 7844W        W23978  17.634   5.979   2.605 -0.0157 -0.1259  0.2009
 7845W        W23979   8.358   8.603  13.663 -0.0835 -0.0038  0.1475
 7846W        W23980   0.864   4.220   5.285 -0.1149  0.1141  0.0754
 7847W        W23981  10.807  17.818  12.230 -0.1642  0.1488 -0.0181
 7848W        W23982  10.564  11.503   1.193  0.1009  0.2245  0.0704
 7849W        W23983   8.875   1.412   2.275  0.0104 -0.0192  0.0479
 7850W        W23984   7.661   7.749  15.576 -0.2115  0.1253 -0.0687
 7851W        W23985  13.032   8.175  13.587 -0.1503 -0.0986 -0.0800
 7852W        W23986  10.406   1.130   3.776  0.1515 -0.0495  0.0672
 7853W        W23987   1.386  14.397  12.740 -0.2435 -0.0891  0.0359
 7854W        W23988  10.690   1.159   1.325 -0.3340 -0.0351 -0.0877
 7855W        W23989  15.286   8.156  16.234  0.0187 -0.1738 -0.0898
 7856W        W23990   3.098   1.741  14.668 -0.2416  0.3414 -0.0631
 7857W        W23991   4.737   8.854   5.188 -0.0956 -0.0534 -0.2354
 7858W        W23992   7.222  12.040  13.147 -0.1175 -0.1196 -0.0717
 7859W        W23993  16.996  11.453  11.731 -0.1925  0.0040  0.1500
 7860W        W23994  12.638   4.394   1.671 -0.1324 -0.4137 -0.0385
 7861W        W23995   7.756   1.834   4.094 -0.2573 -0.2100 -0.0994
 7862W        W23996   3.479  15.954  14.068 -0.3050 -0.1588  0.0597
 7863W        W23997   2.795  10.675  15.862  0.4244 -0.0216  0.0276
 7864W        W23998   3.611   9.276   5.368 -0.0429 -0.2307  0.3125
 7865W        W23999   1.380  16.131  16.378  0.0655 -0.0591 -0.2502
 7866W        W24000   7.142  17.463  12.911  0.0190 -0.0255 -0.2142
 7867W        W24001   3.524  14.140   0.700 -0.2085 -0.1923  0.0196
 7868W        W24002   7.570  13.766  13.606 -0.1379  0.2298 -0.0682
 7869W        W24003   3.870  11.920   5.449  0.0769 -0.0594 -0.1068
 7870W        W24004   1.554  12.686  12.207 -0.1229  0.3134  0.1831
 7871W        W24005  14.661   9.523  16.074  0.1170 -0.1276  0.1778
 7872W        W24006  13.479   6.785  13.857 -0.0534 -0.0663  0.1912
 7873W        W24007   0.708  12.324   2.554  0.0685  0.0062 -0.2041
 7874W        W24008   3.856  15.746   5.184 -0.1126  0.2494  0.3502
 7875W        W24009   6.667   1.240   0.182  0.2336 -0.1962 -0.0745
 7876W        W24010  16.670   5.460  12.162  0.1672 -0.0429  0.2300
 7877W        W24011  10.749   9.361   3.149 -0.0923 -0.1465  0.1333
 7878W        W24012  11.023   9.979  15.062 -0.2621  0.3088 -0.3238
 7879W        W24013  17.548   4.996  13.658 -0.0741  0.0929 -0.0861
 7880W        W24014  14.368   7.752  13.463  0.1992 -0.0929  0.1338
 7881W        W24015   2.686   0.462  12.238  0.2840  0.0229  0.0677
 7882W        W24016   6.414   3.677  12.760  0.0517 -0.0408  0.1274
 7883W        W24017   7.734  12.299   1.718 -0.1480 -0.1256 -0.0983
 7884W        W24018   6.892   2.758  11.828 -0.0858 -0.0508 -0.0290
 7885W        W24019   3.225  17.371   5.388 -0.0142  0.2013  0.1233
 7886W        W24020  10.315  17.479   4.126 -0.1906  0.1161 -0.1622
 7887W        W24021  13.395   1.856  15.746 -0.1399  0.0464 -0.1250
 7888W        W24022  13.370   2.077   2.583 -0.0168 -0.1141  0.1514
 7889W        W24023   1.945   0.668   5.672 -0.2048 -0.0991  0.1591
 7890W        W24024  16.846   0.715   2.954 -0.0620 -0.0595 -0.1564
 7891W        W24025   9.452   4.748   1.894 -0.1386  0.0949  0.2122
 7892W        W24026  12.114   1.661   3.163  0.1588 -0.6009  0.1452
 7893W        W24027  10.598   5.705  13.488 -0.0046 -0.0414 -0.5172
 7894W        W24028  16.892   7.193  14.953  0.0051 -0.1752  0.0404
 7895W        W24029  14.763   6.459   4.930  0.0143  0.3609  0.0194
 7896W        W24030   5.972   3.700  11.922  0.2120 -0.0160 -0.3346
 7897W        W24031   9.705  14.170  16.000  0.0039  0.0333  0.0205
 7898W        W24032  11.964   0.169   2.509 -0.0851  0.2969 -0.1982
 7899W        W24033  14.787  10.197  12.964 -0.1400  0.2764  0.1752
 7900W        W24034  16.051  11.151  14.279 -0.0037  0.1645 -0.0199
 7901W        W24035   2.826   0.859   3.683 -0.0394 -0.1465 -0.1370
 7902W        W24036  17.520   5.513   3.215  0.1182 -0.1573  0.1227
 7903W        W24037   6.290  15.084   2.188 -0.1666 -0.1252 -0.0162
 7904W        W24038  13.878  17.814  14.390 -0.2014  0.1020 -0.0225
 7905W        W24039   7.009   8.026   0.243  0.0649 -0.0386  0.1735
 7906W        W24040  16.675   6.416  13.676 -0.0781  0.2937 -0.3503
 7907W        W24041  11.882  11.230  11.748 -0.0219 -0.2881  0.4335
 7908W        W24042  12.558   4.175  12.642  0.3639 -0.0048  0.2577
 7909W        W24043   6.574  10.701  12.538  0.1194  0.2414  0.1033
 7910W        W24044  15.536  17.609  11.243 -0.0889  0.3109  0.0285
 7911W        W24045   5.722   0.325   5.904  0.0447  0.0353  0.0656
 7912W        W24046  12.641  10.017   0.287  0.0590  0.0530 -0.3290
 7913W        W24047   0.693  13.929   5.381 -0.1579 -0.1832 -0.0565
 7914W        W24048  12.233   3.530  16.140  0.2173 -0.0689  0.0332
 7915W        W24049  14.479   1.407  16.002 -0.0773  0.1131  0.0476
 7916W        W24050   8.385   0.359   1.220 -0.3104 -0.0330  0.2603
 7917W        W24051   6.328   5.167  16.358 -0.1449  0.0922  0.0622
 7918W        W24052   5.171  17.875  12.686  0.4406  0.0652  0.0102
 7919W        W24053  10.554  16.620  14.365 -0.2078 -0.0837 -0.1122
 7920W        W24054   5.366   5.916   1.089  0.0131  0.0268  0.0810
 7921W        W24055  11.092  17.726  12.765 -0.0581  0.0056  0.0491
 7922W        W24056  14.292   0.841  15.185  0.1362  0.3025 -0.1026
 7923W        W24057   9.978  11.169  14.055  0.0033 -0.0137 -0.0550
 7924W        W24058  10.343   8.711  13.978  0.2937 -0.2967 -0.1822
 7925W        W24059   5.177  17.505  11.287 -0.1268 -0.1060 -0.1561
 7926W        W24060  11.393   2.829   3.467 -0.1494  0.0080  0.1371
 7927W        W24061   6.416   9.342   1.502  0.1627 -0.2173  0.0351
 7928W        W24062   7.602   9.752  15.832  0.0955 -0.1339 -0.1301
 7929W        W24063  10.624  11.301  12.110  0.3853  0.1037  0.1945
 7930W        W24064  15.423   9.108   0.551  0.0759  0.0124 -0.1127
 7931W        W24065   8.620  16.898  16.215 -0.0374 -0.0008 -0.0339
 7932W        W24066  10.422  10.073   3.261 -0.4828 -0.0224  0.1085
 7933W        W24067  14.867  12.766   2.653  0.0917 -0.2426 -0.0945
 7934W        W24068   0.431  17.216  13.573 -0.0209 -0.0786  0.0628
 7935W        W24069   2.631   7.538   1.604 -0.1242  0.0151 -0.1587
 7936W        W24070   4.640   4.295   2.923 -0.1662 -0.1236  0.3498
 7937W        W24071  17.437  11.528  14.160  0.1247  0.1756 -0.0776
 7938W        W24072  14.225  17.716   0.322  0.1944  0.0441 -0.0205
 7939W        W24073  14.302  11.778  12.384 -0.0175  0.1287 -0.0681
 7940W        W24074   3.098   1.957   5.133  0.1209 -0.2509  0.1465
 7941W        W24075  10.535  10.973   5.350 -0.1026  0.1669 -0.1339
 7942W        W24076  14.495   4.775   4.994 -0.1543 -0.2240 -0.1329
 7943W        W24077   7.722   0.274  12.901 -0.2092  0.0708 -0.3966
 7944W        W24078  12.833  14.760   5.325  0.2796 -0.2459  0.1347
 7945W        W24079  12.062  14.266  14.216 -0.0918 -0.2999  0.1807
 7946W        W24080   5.387   8.146   3.051 -0.0215  0.0944  0.2111
 7947W        W24081   0.804  10.016  11.517 -0.1150 -0.0067 -0.1854
 7948W        W24082   1.684   5.864  15.680 -0.0188 -0.3272 -0.0136
 7949W        W24083   9.413   2.821   2.733  0.2113 -0.0479  0.0705
 7950W        W24084  12.961  12.483   5.034  0.1792 -0.1317 -0.0936
 7951W        W24085  12.061  15.163  14.140  0.0108  0.2648 -0.0955
 7952W        W24086   6.355  12.751  13.200 -0.2065 -0.0305 -0.2133
 7953W        W24087   2.260  14.361   1.255 -0.1740  0.0216 -0.0896
 7954W        W24088  16.398  13.218   1.321 -0.0586  0.0513  0.1365
 7955W        W24089  10.685   1.516   2.010 -0.1766  0.2646  0.1320
 7956W        W24090   8.426   8.763  16.062  0.3617 -0.1744 -0.0821
 7957W        W24091  17.928   5.161  10.734 -0.1577  0.0480 -0.1131
 7958W        W24092  14.948   9.657   4.764  0.3379 -0.0772 -0.0716
 7959W        W24093   4.522  12.658   2.524  0.0165 -0.1330 -0.1316
 7960W        W24094   8.590   5.072   2.014 -0.0759 -0.0020 -0.0163
 7961W        W24095   2.187  11.636  10.227  0.0083  0.2176  0.4269
 7962W        W24096   3.738  11.264   4.322  0.3201  0.1562  0.0311
 7963W        W24097   5.923  12.374   3.889 -0.0937  0.0187 -0.0120
 7964W        W24098  14.273   9.872   2.232  0.1365 -0.1605  0.0469
 7965W        W24099   3.144  14.191  14.102  0.1622  0.1886 -0.1196
 7966W        W24100   1.135  16.294   5.083 -0.2597  0.3586 -0.2246
 7967W        W24101  18.023  13.672   2.659 -0.0202  0.1716  0.0140
 7968W        W24102  15.531  17.938   1.926  0.0576  0.0796  0.0127
 7969W        W24103   8.004  15.224   4.838 -0.0633  0.2435  0.2368
 7970W        W24104   2.872  11.263  14.026 -0.0827 -0.0862 -0.3306
 7971W        W24105   9.608   8.417   5.762  0.2469  0.0982 -0.2887
 7972W        W24106  13.731   3.872  14.509 -0.1355 -0.0349 -0.4381
 7973W        W24107   6.603   5.053  14.723 -0.0894  0.2654  0.2449
 7974W        W24108   9.653   3.694  15.866  0.3230  0.1365 -0.2562
 7975W        W24109   5.652   4.925   4.148  0.1672 -0.0856 -0.7885
 7976W        W24110  14.473  10.209   0.416 -0.0328  0.2927  0.5308
 7977W        W24111  11.422   4.150  13.266  0.4086 -0.0049 -0.0962
 7978W        W24112  14.195  16.693  16.408 -0.2994 -0.2418 -0.2105
 7979W        W24113   0.123   5.303   0.454  0.3222 -0.0353  0.1023
 7980W        W24114  17.151  16.007  16.271  0.3209 -0.0492 -0.1810
 7981W        W24115  16.992  11.679   0.182  0.1245 -0.0156 -0.0733
 7982W        W24116  14.821   1.263   0.346  0.3265  0.0404 -0.1570
 7983W        W24117   2.607  14.780  15.535  0.0180  0.3697 -0.3153
 7984W        W24118   0.279   4.985  12.291 -0.1028  0.2740 -0.3574
 7985W        W24119  13.396  10.090  14.189 -0.1624 -0.2653 -0.2094
 7986W        W24120  10.006  14.872  11.411 -0.0182  0.3316  0.1105
 7987W        W24121   8.001  12.324  15.038  0.2753  0.0129  0.1065
 7988W        W24122   8.370   9.119   5.779 -0.2697  0.0971 -0.1807
 7989W        W24123   8.766   0.024   4.874 -0.0656  0.2191  0.1713
 7990W        W24124   3.724   4.067  14.795 -0.1177  0.1273  0.0668
 7991W        W24125   4.350  11.244   3.573  0.2351  0.0296  0.0541
 7992W        W24126   7.503   6.474  16.124 -0.0301 -0.1481  0.1784
 7993W        W24127  15.365  17.585   4.672 -0.0800 -0.0896  0.1821
 7994W        W24128   1.237   6.152  15.583 -0.0929  0.0665 -0.0969
 7995W        W24129   9.724  17.253   5.190  0.1136  0.1726  0.1924
 7996W        W24130   9.003  14.645   1.861 -0.2099 -0.0355 -0.0329
 7997W        W24131  10.120   6.372   2.702 -0.1147 -0.3078 -0.1254
 7998W        W24132   2.475  13.590   0.231  0.3598 -0.1456  0.3106
 7999W        W24133   3.316  18.053  14.211 -0.0067  0.0026  0.1370
 8000W        W24134  14.764  11.679   0.532  0.0994  0.0876  0.3909
 8001W        W24135  14.154   7.638   4.477  0.2413  0.2703  0.0987
 8002W        W24136  10.588  10.538   5.022  0.1178 -0.2916 -0.1544
 8003W        W24137   8.398  14.066   0.600 -0.1266 -0.0418  0.0184
 8004W        W24138  17.413   6.048   3.226 -0.1053 -0.2254  0.0426
 8005W        W24139   2.655   1.245   2.157  0.1123  0.0095 -0.0987
 8006W        W24140   4.275   6.591  11.616 -0.2341  0.1387 -0.0280
 8007W        W24141   4.654   8.867   1.408 -0.0987  0.0115  0.0714
 8008W        W24142   9.842  13.859   2.638  0.0438 -0.0831  0.1140
 8009W        W24143  15.720   3.268   3.399 -0.0943  0.3562  0.1316
 8010W        W24144   6.284   8.620  13.569  0.0879 -0.1911 -0.0424
 8011W        W24145   6.841  17.093  12.656 -0.2850 -0.0106  0.0085
 8012W        W24146   2.401  14.465  12.854  0.4455 -0.1152  0.0695
 8013W        W24147  15.629   0.056  11.788  0.1508  0.2019  0.0780
 8014W        W24148  12.629  12.510  11.344 -0.3576 -0.2480  0.2542
 8015W        W24149   6.359  11.627   3.204  0.1649  0.2006 -0.1371
 8016W        W24150  16.255  16.764   5.294  0.3277 -0.1995  0.2240
 8017W        W24151   5.567   4.923  10.735  0.1589 -0.0650  0.1439
 8018W        W24152   5.612   1.700   3.297 -0.1603 -0.2351 -0.0962
 8019W        W24153  11.689  14.485  12.265 -0.1454  0.1789 -0.0977
 8020W        W24154  16.140  15.827   0.262 -0.1385 -0.2152 -0.2659
 8021W        W24155  13.060   9.715   0.142 -0.2311 -0.1248  0.1437
 8022W        W24156   1.637  12.352   3.606  0.3227  0.0447 -0.2231
 8023W        W24157  11.513   9.564  15.701 -0.1871 -0.0711 -0.1076
 8024W        W24158  17.112   5.855  15.042  0.2012 -0.0708  0.0102
 8025W        W24159  10.858   0.867   5.753  0.0418 -0.0105 -0.1341
 8026W        W24160   1.598   2.518   1.026  0.2711  0.1932 -0.0112
 8027W        W24161  10.117   1.341  14.972 -0.2475 -0.0908 -0.1589
 8028W        W24162   0.738   7.799  13.675  0.0078  0.0792  0.0901
 8029W        W24163   2.861   1.898  16.288  0.2453  0.2734 -0.0613
 8030W        W24164  15.386   4.493  13.547 -0.1234  0.2286 -0.2324
 8031W        W24165   2.284   3.948   1.515  0.0721  0.0211  0.1261
 8032W        W24166  12.983  17.670  13.049 -0.0407 -0.2121  0.0976
 8033W        W24167  10.089  15.320  14.610 -0.0228  0.3108  0.0319
 8034W        W24168  15.628   1.876   0.415 -0.0620 -0.0036  0.1489
 8035W        W24169  10.757   2.655  16.230 -0.0785  0.0614 -0.1405
 8036W        W24170  14.390  11.036   0.781  0.1577 -0.1945 -0.0535
 8037W        W24171   6.505  15.978  12.285 -0.0208  0.0936  0.2671
 8038W        W24172   7.970   4.077  12.407 -0.2169  0.0255 -0.4898
 8039W        W24173   9.778  13.077   4.241 -0.1291 -0.1185 -0.0217
 8040W        W24174   5.068   5.319   5.372  0.1229 -0.1391 -0.1474
 8041W        W24175  13.688  12.057   4.842 -0.4569 -0.1360  0.0544
 8042W        W24176   0.459   3.817   4.455 -0.2570 -0.0992 -0.0638
 8043W        W24177   7.051  16.967  10.922  0.0564  0.1085  0.0630
 8044W        W24178   5.055  15.692   3.188  0.0353  0.2284 -0.1135
 8045W        W24179   4.996   8.168  11.463 -0.1898  0.1949  0.3725
 8046W        W24180   6.751  16.071  11.437 -0.0585 -0.0734  0.0453
 8047W        W24181   4.863   3.832  12.319  0.0357 -0.0446 -0.0433
 8048W        W24182   7.842  10.190   1.121 -0.3048  0.1480  0.0826
 8049W        W24183   5.304   6.816  13.120  0.4628  0.1301  0.3371
 8050W        W24184  11.593  13.239  14.355  0.1390  0.3109 -0.1858
 8051W        W24185  15.687   4.086   4.316  0.1221  0.2231 -0.2141
 8052W        W24186  11.753  15.990   3.586 -0.1473  0.3085  0.0665
 8053W        W24187  12.925  17.255   1.633  0.3913  0.0100  0.1151
 8054W        W24188  12.805  14.148  15.343 -0.0377 -0.1259 -0.0058
 8055W        W24189   4.866   3.834   3.892  0.1966  0.0569 -0.0565
 8056W        W24190  16.316   9.067   2.329 -0.0535  0.0261  0.0517
 8057W        W24191  15.554   4.022  16.085  0.0823  0.0412  0.1175
 8058W        W24192  12.683   3.860   4.043  0.4156  0.1230 -0.1996
 8059W        W24193  15.363   0.268   5.048 -0.0214  0.0806 -0.1131
 8060W        W24194   9.387  14.433   3.620  0.0660  0.1023  0.0826
 8061W        W24195   2.333   1.431   0.546  0.1318 -0.0143 -0.0223
 8062W        W24196  14.323   2.658   4.893 -0.0358 -0.0271  0.1490
 8063W        W24197   3.278   5.128  10.909  0.2251 -0.1815  0.1692
 8064W        W24198   9.713   1.842  13.788  0.1042  0.0154  0.1426
 8065W        W24199   9.595  14.051   1.284  0.1531 -0.0209 -0.4450
 8066W        W24200   2.563  15.658   3.320  0.1697 -0.0832 -0.3128
 8067W        W24201  11.841  10.292   2.194  0.0538  0.2555 -0.2225
 8068W        W24202   7.548   3.119  15.342 -0.0014  0.3030 -0.0775
 8069W        W24203   3.974   2.140  13.788  0.3338 -0.1471  0.1894
 8070W        W24204  14.726   6.540  15.858 -0.0887  0.0167 -0.1713
 8071W        W24205   5.200  17.632   2.053 -0.0841 -0.1321 -0.2510
 8072W        W24206   1.053   8.055   3.305 -0.1123  0.1129  0.1232
 8073W        W24207  14.547  16.448   0.288 -0.0202 -0.0783 -0.0138
 8074W        W24208   3.767  12.466   5.233  0.0160  0.0335 -0.0728
 8075W        W24209   6.367   0.195   0.933  0.2624 -0.3308 -0.1381
 8076W        W24210  14.914   5.772  11.218  0.0921 -0.3457 -0.2690
 8077W        W24211   8.261   6.251   2.414  0.1029 -0.1901  0.0727
 8078W        W24212  15.553  13.563   4.818  0.0298 -0.0538  0.0755
 8079W        W24213  13.791   3.625  11.094  0.1190 -0.0925 -0.2207
 8080W        W24214  16.290   9.293   5.276 -0.1805 -0.0016  0.1115
 8081W        W24215   1.300   7.965   5.834  0.2684 -0.0507 -0.0071
 8082W        W24216  16.093   2.936  15.597 -0.0238  0.1898 -0.1769
 8083W        W24217   1.311   3.592  11.527  0.1135  0.0380 -0.0784
 8084W        W24218  16.264  11.093   4.060 -0.1464  0.0447  0.1296
 8085W        W24219   3.313   1.335  14.534  0.0928  0.1085 -0.2567
 8086W        W24220   7.031  14.300  13.262 -0.0212 -0.2137  0.1110
 8087W        W24221   0.174  17.233   1.999 -0.1329 -0.3535  0.0632
 8088W        W24222   7.862   3.538  14.673 -0.0911 -0.1501 -0.1750
 8089W        W24223  11.087   7.067  13.836  0.0256  0.0807 -0.3213
 8090W        W24224  12.947  16.485  14.360 -0.3206  0.2108  0.1539
 8091W        W24225  14.178  13.534   5.014  0.0003 -0.1372 -0.1334
 8092W        W24226  14.662  12.126   0.914 -0.1598  0.3565  0.2070
 8093W        W24227   2.226  16.535   2.871  0.3905 -0.1074 -0.1034
 8094W        W24228   0.428   3.523  13.150  0.0603  0.3504 -0.3070
 8095W        W24229  10.016   6.391  11.839  0.0413 -0.2701 -0.0881
 8096W        W24230  12.082   1.641   3.656 -0.1780  0.3034 -0.1794
 8097W        W24231  11.478  15.586   4.387  0.0851 -0.0342  0.0519
 8098W        W24232   6.554   6.729  12.652 -0.2688  0.2629  0.1598
 8099W        W24233   1.640   1.944  10.662 -0.0740 -0.0311 -0.0117
 8100W        W24234  14.458   7.007   1.348 -0.2812 -0.2939 -0.1373
 8101W        W24235  17.423   7.164   4.892 -0.2243 -0.1709 -0.0606
 8102W        W24236   1.627  15.659   3.330 -0.2166 -0.0342  0.0002
 8103W        W24237   8.194  17.082   0.547 -0.0082 -0.0297  0.1785
 8104W        W24238  18.077   0.765  14.570 -0.0285  0.1913 -0.2218
 8105W        W24239  16.893  14.416  12.925 -0.1425  0.0527 -0.0829
 8106W        W24240  13.108   5.529  11.420  0.3442 -0.1206  0.1452
 8107W        W24241   7.740   9.750  13.424 -0.1662 -0.1069  0.1108
 8108W        W24242   0.357   6.465  14.067 -0.0629  0.1153  0.1333
 8109W        W24243   6.116  10.659  13.610 -0.0598 -0.3768 -0.1060
 8110W        W24244   3.687   1.473   1.721  0.2114 -0.0473  0.2293
 8111W        W24245   6.135   6.832   2.162  0.0274 -0.0349  0.0108
 8112W        W24246   0.833   3.708  11.680 -0.0148  0.0747 -0.1682
 8113W        W24247   0.093   9.578   4.686 -0.0750 -0.1307 -0.2184
 8114W        W24248   0.909  16.226  13.929 -0.2098  0.1464  0.0505
 8115W        W24249   0.843   1.441  12.744 -0.4033  0.0866  0.1421
 8116W        W24250   3.709   1.148   6.189 -0.1704 -0.2834  0.0535
 8117W        W24251   4.440   6.827   2.299  0.1758  0.2400  0.0712
 8118W        W24252  17.615   2.573   3.953  0.0800  0.2389 -0.3578
 8119W        W24253  14.954   7.724  14.360  0.0257  0.0570  0.2086
 8120W        W24254  14.148  18.052  15.089  0.2128 -0.0186 -0.0962
 8121W        W24255  13.142  11.125  11.461 -0.0256 -0.0094  0.0398
 8122W        W24256   3.035  11.511  15.787 -0.4487 -0.1047  0.0771
 8123W        W24257   8.138   6.123   0.414  0.0893 -0.2532  0.3587
 8124W        W24258  17.672   8.421  11.481 -0.1081 -0.0943  0.0689
 8125W        W24259  17.279   1.303  13.238  0.0952  0.2675 -0.1662
 8126W        W24260   4.023   5.674   4.373  0.0621 -0.0310  0.3358
 8127W        W24261   7.010  17.685  11.996  0.0581  0.0247  0.0474
 8128W        W24262  12.878   2.838   3.224 -0.0946 -0.1916  0.0521
 8129W        W24263  10.060  17.763  13.625  0.1888  0.0711 -0.2885
 8130W        W24264   4.627   1.569  13.899  0.1145  0.0146 -0.2342
 8131W        W24265  12.062   9.313  14.021  0.1756  0.0658 -0.1135
 8132W        W24266   4.039  12.624  13.782 -0.0257  0.1263 -0.5070
 8133W        W24267   5.151  15.885   2.664 -0.0830 -0.2570  0.2272
 8134W        W24268  16.285  14.561   5.191  0.0374 -0.0335  0.1937
 8135W        W24269  13.815  16.727   0.836 -0.0760  0.2843  0.1619
 8136W        W24270   7.097   8.493   4.525  0.3758  0.0612  0.0254
 8137W        W24271   9.298   2.811   0.514  0.0087 -0.0115  0.0679
 8138W        W24272   4.103  17.648   3.304  0.0557 -0.0751  0.3524
 8139W        W24273   7.147  12.389   0.901  0.0816  0.1127  0.0483
 8140W        W24274  17.551   1.616   3.091 -0.3705  0.1606 -0.1004
 8141W        W24275  12.887  13.626  15.504  0.2682 -0.2356  0.0653
 8142W        W24276   9.219  12.119   3.653 -0.1767  0.1954 -0.1397
 8143W        W24277   9.415  10.137   5.346  0.0466 -0.0387  0.0752
 8144W        W24278   0.349  11.080  14.364 -0.0755 -0.0729 -0.1226
 8145W        W24279  10.670   1.601   1.510 -0.1491  0.0733  0.1626
 8146W        W24280  16.904   9.583  13.759 -0.1276  0.2151 -0.1924
 8147W        W24281  11.794   0.188   0.525  0.3739  0.1202  0.1540
 8148W        W24282   7.771  17.307  14.120 -0.3515  0.1126 -0.0576
 8149W        W24283  17.611  16.406   4.865  0.1547  0.4003  0.1083
 8150W        W24284   0.888  12.567  14.968 -0.1804 -0.2571 -0.4537
 8151W        W24285   9.256   5.404  11.626 -0.3139  0.0182 -0.1302
 8152W        W24286   0.419   4.927   0.283 -0.1215 -0.0811 -0.0265
 8153W        W24287   7.455   7.396   5.571 -0.2961 -0.3215 -0.2947
 8154W        W24288  17.294   8.289   0.259 -0.0894 -0.4534 -0.0412
 8155W        W24289   4.876  16.494  14.911  0.1343 -0.0803  0.1434
 8156W        W24290  11.168  17.812  11.327  0.3156 -0.2868  0.1231
 8157W        W24291  14.849   7.976   2.709  0.1741  0.0384 -0.0959
 8158W        W24292  16.867  17.190   4.628 -0.0317  0.0135 -0.0319
 8159W        W24293   7.426  16.176   4.065 -0.0160 -0.1133 -0.0708
 8160W        W24294   6.712  13.117  13.425  0.0610 -0.1035 -0.1108
 8161W        W24295   0.879   4.113   4.300 -0.1004 -0.1734  0.0022
 8162W        W24296  15.910  14.725   1.519 -0.1415  0.1655  0.0779
 8163W        W24297   8.403  10.886  12.722 -0.0483 -0.2451  0.1938
 8164W        W24298   9.856   8.776  14.135 -0.1464  0.1244 -0.0347
 8165W        W24299   4.303   7.398   2.958  0.2548 -0.0553  0.0371
 8166W        W24300  14.069  12.734   3.215 -0.0572  0.0394 -0.0044
 8167W        W24301   8.946   9.690   6.291  0.0942 -0.2881  0.0803
 8168W        W24302  12.768  13.241   1.274  0.0846  0.0278 -0.1943
 8169W        W24303  14.443   6.105  12.165 -0.0253  0.4570 -0.0904
 8170W        W24304  16.235   8.573  12.429  0.1144  0.1308  0.2041
 8171W        W24305   1.577  15.210  16.075 -0.0197  0.2486  0.1338
 8172W        W24306   9.813   3.535   3.757 -0.2158  0.1592 -0.2636
 8173W        W24307  13.121   4.745  15.809 -0.1175  0.0814 -0.0113
 8174W        W24308   4.760  16.651   0.107  0.1179 -0.1298 -0.0376
 8175W        W24309  16.171   8.186  15.803  0.2129  0.3178 -0.0128
 8176W        W24310   5.252  12.146  12.368  0.0208  0.1168  0.2900
 8177W        W24311  15.235  15.408  11.637  0.1091  0.1051  0.0669
 8178W        W24312  16.945  16.331   0.173 -0.0966  0.0242  0.1218
 8179W        W24313  18.060   6.313   4.418 -0.2416  0.0937 -0.1828
 8180W        W24314  14.806  14.443  11.659  0.0294  0.3842 -0.2377
 8181W        W24315  10.537   6.347  13.733 -0.1797 -0.1675 -0.1573
 8182W        W24316   4.490   3.273  15.681  0.0183  0.2507  0.2325
 8183W        W24317   8.703   9.331   2.185  0.0173  0.2505  0.2177
 8184W        W24318   8.700   0.954  14.365 -0.0662  0.1585 -0.0400
 8185W        W24319  15.502  11.034   3.456  0.0873 -0.1555  0.2040
 8186W        W24320  12.602   3.653  15.745  0.0965 -0.0233  0.3818
 8187W        W24321   0.235  14.087   0.355 -0.0488 -0.2494 -0.0817
 8188W        W24322  13.861  14.212   3.797  0.2338 -0.1831  0.1410
 8189W        W24323   6.406   8.405  11.714 -0.2041  0.1743 -0.0224
 8190W        W24324   6.709  16.187   0.107 -0.1508 -0.1215 -0.0803
 8191W        W24325   7.832  15.262  11.737  0.0826  0.2158 -0.2829
 8192W        W24326   9.422  10.834   0.759  0.0113 -0.0416 -0.1203
 8193W        W24327   8.808  12.758   2.287 -0.5107  0.1609  0.1741
 8194W        W24328  14.142   5.711  14.829 -0.0624  0.1008 -0.0087
 8195W        W24329   1.169   1.152  15.315 -0.1123 -0.0684 -0.0827
 8196W        W24330  11.530   9.710  13.411 -0.1626  0.3870  0.4096
 8197W        W24331   8.145   8.172  15.395 -0.0247  0.5502 -0.0342
 8198W        W24332   1.308   8.742  12.359 -0.0443  0.2310  0.0400
 8199W        W24333   7.950   5.639   4.646 -0.1367 -0.0989  0.1184
 8200W        W24334  16.037  11.079   5.514 -0.2656 -0.1786 -0.4862
 8201W        W24335  17.344  15.565  14.201  0.2738 -0.1072  0.1022
 8202W        W24336  10.675  16.745  14.889 -0.3072 -0.0043 -0.2480
 8203W        W24337   2.138   4.694  12.351  0.0519  0.1322 -0.1586
 8204W        W24338   6.937  16.518  11.488  0.2656  0.2425 -0.4842
 8205W        W24339  10.613   9.864  16.039 -0.0850  0.0303 -0.1367
 8206W        W24340  16.872  13.811  14.022  0.0779 -0.0450 -0.1365
 8207W        W24341  13.814   5.821  15.249 -0.2951  0.0014  0.0917
 8208W        W24342   9.995   3.005   5.575 -0.1131  0.1862  0.0789
 8209W        W24343   9.093  13.891  13.046  0.0507  0.2646 -0.1591
 8210W        W24344  11.318   6.200   2.624 -0.0650  0.0264 -0.2558
 8211W        W24345  16.359  16.299   2.927 -0.1974  0.1748 -0.0527
 8212W        W24346   9.396   7.022  13.793  0.2106 -0.1533 -0.0651
 8213W        W24347   8.869  14.134   5.376 -0.0884 -0.0928  0.1289
 8214W        W24348   1.677   9.387  14.317 -0.2525  0.0278  0.0498
 8215W        W24349  11.160   9.946   2.642 -0.1528 -0.1362  0.1162
 8216W        W24350  11.949   4.302   3.638  0.5862  0.0163  0.0100
 8217W        W24351   7.525   7.004  11.390 -0.1743 -0.0117  0.2648
 8218W        W24352  14.296   0.819   5.013 -0.0473 -0.4404  0.1425
 8219W        W24353  13.433   1.338  15.174 -0.0212  0.0423 -0.3191
 8220W        W24354   5.115  11.602  16.065  0.1118  0.2319 -0.1518
 8221W        W24355   3.877   1.268  12.158  0.2368  0.0507 -0.2294
 8222W        W24356   9.122  16.304   1.089 -0.0171  0.0071  0.2831
 8223W        W24357   6.281  15.837   0.956 -0.2321  0.1214 -0.1179
 8224W        W24358  11.235   9.487   6.169 -0.1667 -0.2599 -0.2478
 8225W        W24359   8.132   0.759  15.112 -0.1317  0.0052 -0.4120
 8226W        W24360   4.778  17.124   1.329 -0.2058  0.1036 -0.0472
 8227W        W24361   6.754  16.887  15.233 -0.0186  0.2132 -0.1098
 8228W        W24362   9.298  16.200  11.099  0.1850  0.0890 -0.0099
 8229W        W24363  14.952  18.004  11.737 -0.1290  0.0917  0.0579
 8230W        W24364   9.941   6.798   3.393 -0.0681 -0.2503  0.3051
 8231W        W24365   7.882  17.026   4.877  0.1533  0.0286  0.0064
 8232W        W24366   6.638   0.195   4.586  0.0523  0.1498 -0.0543
 8233W        W24367   6.227  13.789   0.833 -0.0363  0.1001 -0.0089
 8234W        W24368   4.741  18.025   0.486 -0.2073  0.3460  0.2852
 8235W        W24369   3.987   0.246   1.111  0.0226  0.1755 -0.1040
 8236W        W24370  14.407  10.861  13.788  0.1313 -0.0211 -0.0478
 8237W        W24371   5.269   4.040   3.684  0.3807 -0.0606 -0.3087
 8238W        W24372  14.607   5.465  10.992  0.2958  0.3227 -0.0091
 8239W        W24373  10.080   6.978  11.044  0.1320 -0.0719  0.0348
 8240W        W24374  16.126   0.451  13.036 -0.1310  0.1328  0.2554
 8241W        W24375   6.526  13.610   4.240  0.2839 -0.0786 -0.1424
 8242W        W24376   5.425   1.548  12.853  0.0907  0.3100 -0.0889
 8243W        W24377   3.684   1.715   4.826  0.1416  0.2087  0.0188
 8244W        W24378  13.830  17.728  13.596 -0.0096 -0.0147 -0.0165
 8245W        W24379  17.685  13.671  15.723 -0.1855 -0.0414 -0.1253
 8246W        W24380  12.253   3.546   0.744 -0.0793  0.0427 -0.0930
 8247W        W24381   1.845  17.658   1.788 -0.1165  0.0560 -0.2369
 8248W        W24382  11.515  15.352   1.831  0.0298 -0.0481  0.0395
 8249W        W24383  10.864   1.981   3.606  0.0013 -0.1287 -0.2709
 8250W        W24384  16.080  12.199  11.271  0.0989 -0.2385 -0.2383
 8251W        W24385   2.536  12.859  16.278 -0.1185 -0.1115  0.2028
 8252W        W24386  12.225   7.821   3.118 -0.2647 -0.0369 -0.3004
 8253W        W24387   3.073   8.825  14.169  0.2674  0.1409 -0.0591
 8254W        W24388  15.432  11.577   0.756  0.0555 -0.1217 -0.1640
 8255W        W24389   3.868  10.531   0.933  0.3782 -0.1629 -0.0216
 8256W        W24390  12.412   1.389  15.314  0.1661  0.1927  0.2046
 8257W        W24391  11.035   9.234  11.120  0.0586  0.0016  0.0900
 8258W        W24392  13.798  12.537  16.207  0.2321  0.0266  0.0718
 8259W        W24393   8.039  17.958  15.012 -0.2178  0.0268  0.1762
 8260W        W24394  11.498   0.470   5.134  0.0328 -0.1460 -0.0237
 8261W        W24395   0.375   3.371  11.777 -0.0632 -0.2563  0.0283
 8262W        W24396   3.974  14.420   4.690 -0.2744 -0.2178 -0.0960
 8263W        W24397   6.770   0.464  12.453 -0.1838  0.1435  0.0695
 8264W        W24398   4.333   3.211  11.460  0.0645  0.1225  0.2082
 8265W        W24399  15.176  17.343   2.801 -0.3294  0.1256 -0.0287
 8266W        W24400  17.411   8.560   4.612  0.0244  0.0618 -0.1814
 8267W        W24401  15.956   2.695  11.577  0.0590 -0.0020  0.0918
 8268W        W24402   5.297  16.244   1.282  0.0151 -0.3029  0.0488
 8269W        W24403   0.475   6.128   4.652  0.1476  0.0714  0.2260
 8270W        W24404  11.415   3.297  13.015 -0.1958  0.1569  0.2115
 8271W        W24405   5.055   5.509  14.141  0.3125 -0.1033 -0.2338
 8272W        W24406  14.864   8.506  15.820 -0.1460 -0.2714  0.1032
 8273W        W24407   0.922  12.771  16.239  0.0696  0.1931 -0.1543
 8274W        W24408  11.690  11.203  12.743 -0.2616  0.3372  0.0455
 8275W        W24409  12.351   3.667  11.362  0.0543  0.1837  0.3234
 8276W        W24410  17.850   6.577  11.575  0.0781  0.0051 -0.1747
 8277W        W24411   8.706  10.502  13.909  0.2130 -0.0368  0.1450
 8278W        W24412   5.029  17.561  13.618  0.3116 -0.1477  0.0130
 8279W        W24413  16.663  14.404  12.123 -0.1323 -0.1736  0.1931
 8280W        W24414  10.436  15.330   4.065  0.2951 -0.1056 -0.1789
 8281W        W24415  12.299  15.314   3.277  0.0109  0.0489  0.0813
 8282W        W24416   8.857   8.717   0.734  0.2040  0.1283 -0.1648
 8283W        W24417   9.702   0.935  11.826  0.1465 -0.3445  0.0307
 8284W        W24418   5.473  16.209  14.009  0.0319  0.0663  0.1594
 8285W        W24419   5.731   3.268  11.971  0.1464  0.0653  0.0568
 8286W        W24420   0.575   2.996  12.035 -0.2733  0.1645 -0.0293
 8287W        W24421  16.171  14.396   3.790  0.1441 -0.0926 -0.0675
 8288W        W24422   7.788  14.407   3.791 -0.1463  0.4289  0.0269
 8289W        W24423  14.329  11.880   0.068  0.0440 -0.1773  0.0135
 8290W        W24424   9.603  10.826  12.282  0.3128 -0.1349  0.1075
 8291W        W24425  11.482  17.371   1.847 -0.3111 -0.1976  0.2319
 8292W        W24426   9.015   9.369   3.088  0.1789  0.0575  0.0748
 8293W        W24427   5.191  13.166  12.425  0.4036  0.0763  0.1254
 8294W        W24428   4.881   3.837   0.606  0.0532 -0.0853  0.2182
 8295W        W24429   4.074   9.697  12.930 -0.3056 -0.1123  0.1106
 8296W        W24430   6.404   7.045   3.998 -0.2915  0.1709  0.5345
 8297W        W24431   6.121  16.830  12.662  0.0829 -0.1597  0.0599
 8298W        W24432  14.719   4.511  11.175 -0.0140 -0.1124 -0.0732
 8299W        W24433   0.265   5.494  16.013 -0.4321  0.1624  0.0765
 8300W        W24434  13.162   6.476  11.310  0.0028  0.0056 -0.0856
 8301W        W24435   2.931   9.935  12.268 -0.0845  0.4195  0.0451
 8302W        W24436  16.062   1.954   2.505  0.2967  0.0606 -0.0527
 8303W        W24437   8.712  17.722  11.509  0.1071  0.3608 -0.0973
 8304W        W24438  16.222  11.273  15.446 -0.2053 -0.1606 -0.3823
 8305W        W24439   2.051  10.386  14.205 -0.2160  0.0780 -0.2252
 8306W        W24440  10.615  11.782  11.188  0.1666 -0.0725  0.0172
 8307W        W24441   2.415  10.097  12.835  0.0137 -0.0516  0.0605
 8308W        W24442   8.607   6.150   0.181 -0.1624 -0.2143 -0.0436
 8309W        W24443   9.781  15.227  13.657  0.1143  0.0030 -0.2733
 8310W        W24444  14.232  15.573   1.865 -0.1122  0.0965 -0.2176
 8311W        W24445   8.459  10.134   5.484 -0.0284  0.1759  0.0441
 8312W        W24446  10.602   9.587   4.971  0.0727 -0.4781  0.2674
 8313W        W24447  10.241   2.942  11.774 -0.3704 -0.1015 -0.6808
 8314W        W24448  13.002  11.592  12.421 -0.0619  0.0875 -0.0262
 8315W        W24449  17.828   6.354   3.311  0.1896  0.0938  0.3241
 8316W        W24450  15.559   1.834   2.389 -0.2049  0.0686 -0.1326
 8317W        W24451   7.894   2.973   4.312  0.0553  0.2374  0.0120
 8318W        W24452   0.022   3.265   2.094 -0.2015 -0.1261 -0.2454
 8319W        W24453   2.644  18.081   1.861 -0.1115  0.1358  0.2847
 8320W        W24454   3.109   3.099  15.008 -0.0343  0.1179  0.0471
 8321W        W24455  10.186   6.644  15.949 -0.1482  0.0807 -0.0388
 8322W        W24456   7.062   7.023  12.757  0.0451  0.3532 -0.1143
 8323W        W24457   0.228   4.725  11.377 -0.1145 -0.1520 -0.0809
 8324W        W24458   3.651  12.365  13.964 -0.1446 -0.0599  0.0846
 8325W        W24459   0.792  14.867  13.845 -0.0786 -0.2411 -0.1249
 8326W        W24460   8.101   8.255   5.406 -0.0454  0.0296 -0.0942
 8327W        W24461   3.241   2.707   3.174  0.0279 -0.2090 -0.0179
 8328W        W24462  12.689   4.341   1.206 -0.0282 -0.0980 -0.2592
 8329W        W24463   0.304   1.824  15.281  0.2406  0.3659  0.1806
 8330W        W24464   9.888   9.170  12.668  0.0317  0.1250  0.2566
 8331W        W24465  15.548  17.914   5.067 -0.0740 -0.2155 -0.1525
 8332W        W24466   8.566   0.441  15.000  0.0175  0.3624  0.1596
 8333W        W24467  10.791   6.070   1.065  0.0445 -0.1153  0.3548
 8334W        W24468   0.421  17.867   4.895  0.0141  0.3421 -0.1398
 8335W        W24469  15.336  15.695   3.686  0.2749 -0.0202 -0.1927
 8336W        W24470  16.925   8.177  13.677 -0.2914 -0.0742 -0.2678
 8337W        W24471  12.892   6.671   5.403  0.0741 -0.0115  0.0414
 8338W        W24472   6.140  18.090   4.527  0.2856 -0.2394 -0.1481
 8339W        W24473   6.753   2.139   4.733 -0.0589  0.1583  0.2203
 8340W        W24474   0.728  13.275   0.065 -0.0098 -0.2091 -0.5444
 8341W        W24475   8.275   6.021  15.864  0.0263  0.0658 -0.1876
 8342W        W24476   8.322   6.213  14.983  0.0624 -0.2926  0.2616
 8343W        W24477  14.538   6.639  10.574 -0.2748  0.0491 -0.0260
 8344W        W24478   5.301  11.893  14.392 -0.3257 -0.3326 -0.1100
 8345W        W24479   3.570  13.297  14.442  0.0139 -0.0779  0.3702
 8346W        W24480   5.147  10.632   4.339  0.0750 -0.1579  0.0306
 8347W        W24481   1.421   4.163   5.301  0.1562 -0.1232 -0.1045
 8348W        W24482   5.635   5.602   5.994  0.1527  0.2015 -0.0645
 8349W        W24483   6.836   1.749   0.383  0.1862  0.0914  0.0880
 8350W        W24484   0.035   3.443   4.561  0.1375  0.0534  0.0669
 8351W        W24485   6.712   6.420   5.007  0.0113 -0.2710 -0.0310
 8352W        W24486   4.735  11.234   3.934  0.1297  0.0401  0.2839
 8353W        W24487   1.057   1.231   2.885 -0.0466 -0.0252 -0.2119
 8354W        W24488  16.155   5.206   0.138  0.2769  0.2443 -0.1260
 8355W        W24489  14.923   0.924   4.612  0.0065  0.1682 -0.4239
 8356W        W24490   8.562   9.505  13.079 -0.1174  0.2247 -0.0915
 8357W        W24491  10.009   5.999  12.261 -0.0661 -0.1652  0.2498
 8358W        W24492   4.574   3.886   2.052 -0.3734 -0.1839  0.1543
 8359W        W24493   3.753  12.672   3.458  0.0409 -0.1841 -0.0955
 8360W        W24494  10.167   1.641  15.411 -0.1767  0.0535  0.0232
 8361W        W24495   2.675  11.751  12.175  0.5592  0.1750  0.1400
 8362W        W24496   0.902   1.828  11.890 -0.1656 -0.1846  0.2201
 8363W        W24497  10.317  17.717  12.279 -0.3030  0.0381  0.2010
 8364W        W24498   7.113  14.038   1.581  0.3094  0.6501  0.4158
 8365W        W24499   5.899  11.437   4.113 -0.0305  0.0508  0.0123
 8366W        W24500  13.545   3.934   0.131  0.0396  0.2993  0.0616
 8367W        W24501  17.802   0.542   3.631 -0.1808 -0.0125  0.2975
 8368W        W24502  11.140   9.292   1.993  0.0934 -0.0882 -0.0112
 8369W        W24503  10.646  14.949  15.278 -0.0636  0.0595  0.2044
 8370W        W24504  17.545  10.037  13.366  0.0935  0.0601  0.0009
 8371W        W24505   9.774   5.040   0.910 -0.2454  0.1549  0.0946
 8372W        W24506   1.627   0.672  12.136 -0.1293  0.1611 -0.2061
 8373W        W24507   4.996  12.812  11.619  0.1824 -0.3161  0.0044
 8374W        W24508  17.161  13.465  11.368  0.1733  0.1420  0.1218
 8375W        W24509  14.687   2.258  11.711 -0.5590 -0.2258 -0.2106
 8376W        W24510   1.987  10.938   4.854  0.2573  0.1477 -0.2432
 8377W        W24511  12.522   8.295   4.727  0.2305  0.0434  0.0845
 8378W        W24512   2.239   5.020   1.787 -0.2709  0.1337 -0.0602
 8379W        W24513  14.044  10.086   3.794  0.1384 -0.3107 -0.3496
 8380W        W24514   3.271   4.038  11.912  0.0571  0.2772  0.0251
 8381W        W24515   4.968   5.618   4.384 -0.1435  0.1406 -0.3041
 8382W        W24516  12.852  17.646  14.373  0.3137 -0.1204 -0.0242
 8383W        W24517  17.139  17.746   2.405  0.0015  0.1143  0.0075
 8384W        W24518   8.448  10.174  12.316 -0.1304 -0.1105 -0.2460
 8385W        W24519  12.856   4.454   4.068  0.1648  0.0530 -0.1449
 8386W        W24520   3.243   0.087   3.127 -0.0523  0.0304 -0.0064
 8387W        W24521   2.437   4.567   4.426 -0.1441  0.2043  0.0927
 8388W        W24522  16.479  14.958   5.911 -0.1417  0.1741 -0.0940
 8389W        W24523   6.240  10.354  12.313 -0.1692  0.1252  0.2060
 8390W        W24524   3.109   9.187  12.277  0.0864 -0.0403  0.3060
 8391W        W24525   2.110  14.885   3.607 -0.0181 -0.1366 -0.2033
 8392W        W24526  16.265  12.860   1.014 -0.1278  0.1198 -0.0380
 8393W        W24527   8.179  14.450  13.117  0.0103 -0.2374 -0.2950
 8394W        W24528   8.451   1.630   4.684 -0.0405  0.1730  0.0448
 8395W        W24529   1.165  11.349   0.237  0.2603 -0.2893 -0.1324
 8396W        W24530  11.311  16.351  13.898  0.2243  0.2080 -0.2397
 8397W        W24531  10.424   2.242  16.139  0.1517 -0.0802 -0.1430
 8398W        W24532  10.275  10.501   1.332  0.0627  0.1426 -0.0920
 8399W        W24533   0.371   4.165   5.237 -0.0075  0.0407 -0.2667
 8400W        W24534   5.331  13.388   4.882  0.1310  0.0352 -0.0453
 8401W        W24535   5.432   4.627   3.030 -0.0539  0.0958 -0.0311
 8402W        W24536  10.502   4.356   1.775 -0.2760 -0.1813  0.0790
 8403W        W24537  12.437   7.529   5.190 -0.4891  0.0643  0.1398
 8404W        W24538  17.060  10.648   2.733  0.1993 -0.1362 -0.0101
 8405W        W24539   2.114   2.638   1.599  0.1665 -0.1016  0.3106
 8406W        W24540   1.903   0.489  15.269  0.0123 -0.1112  0.0761
 8407W        W24541  15.322   0.923  12.930 -0.2462  0.2027  0.1743
 8408W        W24542   5.320   0.339   2.460 -0.0258  0.0572 -0.3274
 8409W        W24543   8.026  10.257   2.844  0.0254  0.0047 -0.0197
 8410W        W24544  15.689   7.176   1.628  0.0072  0.1464 -0.0495
 8411W        W24545   5.491  14.674   2.466  0.4474  0.2121  0.2247
 8412W        W24546   0.353   9.585  12.059 -0.3136  0.1194 -0.6502
 8413W        W24547  12.675   4.850   4.305  0.0089 -0.0311 -0.0950
 8414W        W24548   6.740  17.888   3.878  0.1681  0.1171  0.3265
 8415W        W24549   5.583   2.168   1.086  0.1063  0.0676 -0.2559
 8416W        W24550   5.471  11.651  15.111 -0.1828 -0.1428 -0.2064
 8417W        W24551   2.924  10.759   2.929 -0.1272 -0.0794  0.0533
 8418W        W24552  11.340   2.277   0.351 -0.0259 -0.0953  0.0293
 8419W        W24553  11.900   8.759  14.114  0.1037  0.0210 -0.2282
 8420W        W24554   4.401  10.468   2.228 -0.0220  0.0387 -0.0514
 8421W        W24555   1.010   9.404   1.080 -0.0230 -0.1230  0.0143
 8422W        W24556   7.137   7.131  14.490 -0.1175 -0.1704  0.3071
 8423W        W24557   3.012  12.795   0.070  0.1146  0.2331 -0.2712
 8424W        W24558  14.514  17.069   2.647  0.3072 -0.1613  0.1067
 8425W        W24559  11.220  13.314   3.271  0.1967  0.0944 -0.0423
 8426W        W24560  17.549  16.559   3.543  0.0848  0.1640 -0.0131
 8427W        W24561  16.364  16.040  12.549  0.0471 -0.0900 -0.3607
 8428W        W24562   2.311   3.444   1.663  0.0418 -0.0308 -0.2381
 8429W        W24563  12.351  16.410   2.760  0.0849 -0.2432 -0.1492
 8430W        W24564   9.115  13.114  15.598  0.2203  0.1222 -0.1665
 8431W        W24565   5.376   8.711   4.787  0.0430 -0.2256  0.0213
 8432W        W24566   5.755  15.402  12.726 -0.0788 -0.0227 -0.0984
 8433W        W24567  13.797  13.432  12.858  0.1808  0.0823  0.1787
 8434W        W24568   0.465  10.949   3.417 -0.3298  0.1533  0.0991
 8435W        W24569  11.186  14.532  16.004  0.1539  0.1231  0.3095
 8436W        W24570  12.872   0.020   0.608 -0.2737  0.1946 -0.1894
 8437W        W24571   6.840   8.113   1.923  0.1901 -0.0036  0.0788
 8438W        W24572   8.795   6.942   4.286 -0.1424 -0.0782  0.0729
 8439W        W24573   0.378   8.401  12.798  0.2894  0.1712  0.4330
 8440W        W24574  11.450  10.135   0.864  0.4391  0.2542 -0.0647
 8441W        W24575   7.330   8.074   4.291  0.0733 -0.0198 -0.0338
 8442W        W24576   7.050   4.385   2.325  0.0151  0.0357 -0.2973
 8443W        W24577   1.104   3.670   5.370 -0.0199  0.0555 -0.0893
 8444W        W24578  10.201  10.106   2.797  0.0978 -0.1993 -0.2959
 8445W        W24579  10.787  16.354  14.001 -0.0273 -0.2048 -0.1017
 8446W        W24580   3.254  10.114  14.438 -0.1419 -0.0051 -0.3907
 8447W        W24581   2.216   4.245   4.097  0.1259  0.2747  0.0686
 8448W        W24582   1.693  12.342   5.139 -0.0731 -0.0696  0.0641
 8449W        W24583   3.662   7.511   4.720  0.2425 -0.2137 -0.1794
 8450W        W24584  11.173   5.243   2.757  0.2633 -0.2060 -0.0178
 8451W        W24585   9.892   4.722  11.859 -0.0646 -0.0947 -0.4041
 8452W        W24586  13.555  14.041   1.939  0.1356 -0.1183  0.0042
 8453W        W24587  10.026   2.910  15.679 -0.2739  0.1458  0.1290
 8454W        W24588   1.530   8.136  14.032  0.0443  0.0030 -0.2838
 8455W        W24589   2.454  14.366   0.142 -0.2322  0.1239  0.1689
 8456W        W24590   3.414  17.848   3.403 -0.3683  0.1979 -0.0595
 8457W        W24591   1.825   3.015   0.697 -0.0790 -0.0709  0.0208
 8458W        W24592   3.916   9.254  15.233 -0.0380  0.2762  0.1089
 8459W        W24593   1.715  11.449  11.806 -0.0755  0.1346  0.1548
 8460W        W24594   1.977   1.139   0.411 -0.1267  0.6520  0.1845
 8461W        W24595   5.055   8.103   0.390 -0.0997 -0.2327  0.1282
 8462W        W24596  10.748  16.556   6.347  0.1177  0.0440 -0.2013
 8463W        W24597   5.086  17.776   5.842  0.1238  0.0845 -0.0432
 8464W        W24598   9.621  12.870  15.496 -0.1847  0.1491  0.1765
 8465W        W24599  12.835  13.931  14.068 -0.0434  0.2011  0.1494
 8466W        W24600   8.528  15.410   5.674 -0.2020 -0.0904  0.2124
 8467W        W24601  13.506  13.134  15.004 -0.0335 -0.3400  0.0138
 8468W        W24602   4.851   6.873   5.855 -0.1013 -0.1958  0.0480
 8469W        W24603  14.924  10.588   3.205 -0.1243 -0.1039 -0.1936
 8470W        W24604  17.390  14.760  14.759 -0.0897 -0.2839 -0.0900
 8471W        W24605   2.244   5.341   0.256  0.0731  0.0700 -0.1390
 8472W        W24606   5.254  13.043   1.344 -0.0039 -0.2596  0.0517
 8473W        W24607   7.961   6.926   1.742  0.0925 -0.0904  0.0498
 8474W        W24608   2.079   7.324  16.124  0.0067  0.1705  0.2516
 8475W        W24609   3.206   7.286  16.142  0.0811 -0.2561  0.0392
 8476W        W24610   1.949  10.094  12.487 -0.0743  0.0947  0.0177
 8477W        W24611   4.014  13.562  13.881  0.2303 -0.1449 -0.1715
 8478W        W24612  16.895  10.884  14.029  0.1311 -0.0433 -0.0207
 8479W        W24613   8.534   6.014   5.217 -0.0998  0.1318 -0.0041
 8480W        W24614   5.254  14.583   3.253  0.2993 -0.1499 -0.1665
 8481W        W24615   7.250  17.728   3.939 -0.1964  0.0527  0.1402
 8482W        W24616  11.780  11.305   4.581  0.1654 -0.1913 -0.2774
 8483W        W24617   8.088   6.102   4.649  0.1611  0.2600  0.0255
 8484W        W24618   0.173   0.351  15.290  0.4161  0.0968 -0.1987
 8485W        W24619  10.558  16.641   1.375 -0.0555  0.0133  0.1519
 8486W        W24620  13.045   3.824   1.834  0.1726 -0.0365  0.0513
 8487W        W24621   8.943  11.730  15.963  0.1222  0.0729 -0.2934
 8488W        W24622   9.408   4.002  15.394 -0.0434 -0.0394  0.3071
 8489W        W24623   0.804   8.634   4.357 -0.3105  0.2137 -0.1137
 8490W        W24624   7.242  15.705  14.903 -0.0414 -0.0029  0.2380
 8491W        W24625   6.495  12.884  14.789 -0.0933  0.0216 -0.0309
 8492W        W24626   2.208  11.826   2.959 -0.1068 -0.3538 -0.1161
 8493W        W24627   8.291  16.673   2.481 -0.0354  0.1507  0.3288
 8494W        W24628  17.356   9.633   3.368 -0.0455 -0.0023 -0.0485
 8495W        W24629   9.904  10.690  14.117  0.0035 -0.0368 -0.1855
 8496W        W24630  10.822   1.268   2.491 -0.2645 -0.2319 -0.2148
 8497W        W24631  11.669  10.138   5.603  0.0576  0.0507 -0.0337
 8498W        W24632   2.598  17.997   0.825 -0.1759 -0.1580  0.0785
 8499W        W24633  15.126  16.176   1.413  0.1649  0.0923  0.1376
 8500W        W24634  17.235  13.294   1.883 -0.0122 -0.2758 -0.1821
 8501W        W24635  11.667  11.635   6.069  0.0845  0.1025 -0.1999
 8502W        W24636   4.102   9.069  16.224 -0.1458  0.0930 -0.0919
 8503W        W24637   2.234   0.214   5.496  0.1301 -0.0259 -0.0377
 8504W        W24638   3.427   3.469   3.393 -0.2222  0.0747  0.0884
 8505W        W24639   2.649   3.115   2.999 -0.0097  0.1009 -0.0059
 8506W        W24640  13.814  13.878   4.720 -0.2627 -0.2014  0.0028
 8507W        W24641  16.022  13.903   2.554  0.0005  0.1207  0.1981
 8508W        W24642   1.615  13.044   0.310 -0.0265  0.2338 -0.1515
 8509W        W24643  16.389  11.166  13.951 -0.2053 -0.0333  0.1006
 8510W        W24644   3.568  16.211  16.180  0.3218 -0.0249 -0.2746
 8511W        W24645  15.205   5.217   2.874  0.0031 -0.2397  0.1524
 8512W        W24646   4.778   5.767   0.464 -0.1103  0.2073  0.1209
 8513W        W24647  15.444   4.625  12.570 -0.1503 -0.1278  0.1270
 8514W        W24648  11.040  16.920  11.012 -0.0224  0.2150  0.0414
 8515W        W24649   9.149   4.853  15.409 -0.2194  0.1472 -0.3644
 8516W        W24650   4.757   2.367   2.399 -0.1291  0.1601  0.0745
 8517W        W24651   1.708  14.072  11.926 -0.1260  0.0684  0.1364
 8518W        W24652   0.606   1.471  16.291 -0.0877 -0.1205  0.2393
 8519W        W24653   8.444  17.625  14.879 -0.1210  0.1451  0.1400
 8520W        W24654   7.531   1.293   4.171  0.1186  0.1301 -0.3584
 8521W        W24655   2.368  13.246   2.399 -0.2048 -0.2086  0.4180
 8522W        W24656   1.060  17.336   3.055  0.0190 -0.1452  0.0955
 8523W        W24657   3.673  11.463   2.696  0.1125  0.1043 -0.0095
 8524W        W24658   1.937   0.976  15.105 -0.1725 -0.1611  0.2033
 8525W        W24659   1.427   7.858  14.463 -0.2385 -0.0870 -0.1401
 8526W        W24660  16.779  13.912   2.727  0.2908  0.2668 -0.2468
 8527W        W24661  17.835   8.054   2.798 -0.0113 -0.3961  0.1533
 8528W        W24662   0.546  15.933  15.598 -0.0805  0.0444  0.1710
 8529W        W24663  11.065   6.229  11.876  0.1205  0.2602 -0.3210
 8530W        W24664   9.608  13.897   5.775 -0.1647 -0.1738  0.1515
 8531W        W24665   3.221  11.275  13.317 -0.0429 -0.4326 -0.1130
 8532W        W24666  12.472   8.647   3.429  0.1302  0.2137  0.1924
 8533W        W24667  16.413   0.950  14.337  0.1632  0.2055  0.0352
 8534W        W24668  13.099   2.915   2.204 -0.0030 -0.2408  0.0274
 8535W        W24669   1.300   1.685   4.807 -0.2816 -0.0802  0.1739
 8536W        W24670  16.361  10.716  12.615 -0.0891  0.1641  0.0424
 8537W        W24671  15.898  10.825  16.179  0.2215  0.1639 -0.3046
 8538W        W24672  13.645  17.414  16.119  0.3005  0.1546 -0.0323
 8539W        W24673   3.299  14.498  13.202  0.0483 -0.0815  0.0823
 8540W        W24674  17.224   2.280   4.691 -0.1628 -0.2319  0.2004
 8541W        W24675  11.381   2.582  14.658 -0.1551  0.2104 -0.2986
 8542W        W24676  11.375   7.931  14.613  0.0132  0.1320 -0.1970
 8543W        W24677  13.347   1.229   2.556  0.0737  0.0389 -0.0420
 8544W        W24678   6.138  11.505  14.408  0.3707  0.0633 -0.0856
 8545W        W24679  11.783  13.789   0.321  0.1330  0.1604 -0.2355
 8546W        W24680   6.175   1.069   2.300 -0.1638 -0.0279 -0.0223
 8547W        W24681  13.916   8.101  11.824  0.0166 -0.0012  0.0508
 8548W        W24682   8.635  13.788   0.890  0.0404 -0.0053  0.0874
 8549W        W24683   1.771  13.622   1.098  0.1476  0.0628 -0.0620
 8550W        W24684   3.450   3.114   2.268  0.2480 -0.1469  0.0702
 8551W        W24685   8.089   4.329   4.844 -0.0558  0.0914  0.1765
 8552W        W24686   8.010   9.605  15.534  0.1536  0.0337  0.3289
 8553W        W24687  15.763   0.941   0.403  0.4046 -0.0247 -0.2603
 8554W        W24688  16.181   0.844   2.139  0.1169 -0.0499 -0.0109
 8555W        W24689   9.330   6.173  14.952  0.0548 -0.0702  0.0006
 8556W        W24690   9.150   1.181  12.842  0.2257 -0.3285 -0.2112
 8557W        W24691   0.422  16.968   4.947 -0.2341 -0.1578  0.0533
 8558W        W24692  14.433  15.301   4.831 -0.2439 -0.1314  0.0470
 8559W        W24693   9.552  13.657  14.202 -0.1490  0.2382  0.0629
 8560W        W24694   0.776   7.188   5.594  0.2361  0.1487  0.0145
 8561W        W24695  16.160  11.524  12.583  0.0070 -0.0186  0.1902
 8562W        W24696   0.409   6.770  15.922 -0.1990  0.0100 -0.1540
 8563W        W24697  16.132  16.557  12.491  0.0909 -0.3091 -0.1255
 8564W        W24698   1.514   6.514   4.677 -0.1565 -0.1686 -0.2318
 8565W        W24699   5.696  17.057   0.239 -0.2524  0.0731 -0.1158
 8566W        W24700   6.004  15.054   0.102  0.3971  0.0415 -0.0883
 8567W        W24701  17.980  16.654   1.620  0.0188 -0.1039  0.0165
 8568W        W24702  10.360   9.124   1.441  0.1991  0.1515  0.0716
 8569W        W24703   3.766   7.339  15.462 -0.1976  0.0860 -0.3517
 8570W        W24704   2.634  11.685   0.383  0.0510  0.0434  0.0837
 8571W        W24705  15.214   3.944   2.375 -0.0764 -0.1000 -0.4334
 8572W        W24706  12.692   3.881  15.242 -0.1851  0.0740 -0.0822
 8573W        W24707  16.668   4.778   4.455  0.4052  0.1701  0.2212
 8574W        W24708   2.145   5.636  15.233 -0.0123 -0.0441  0.1686
 8575W        W24709  14.077  14.333   0.008 -0.0606  0.2934  0.2376
 8576W        W24710  10.024   5.624  13.444 -0.0048 -0.1134  0.1430
 8577W        W24711  11.561   1.207   4.483 -0.0305 -0.3093 -0.3093
 8578W        W24712  11.856  10.191  11.410  0.1250  0.0037  0.0931
 8579W        W24713   0.775   8.120   2.434 -0.2653  0.1802 -0.2427
 8580W        W24714  10.151   7.683   3.762  0.0195 -0.2089  0.0555
 8581W        W24715  15.856  17.536   2.259 -0.0561 -0.1487  0.1234
 8582W        W24716   1.930   2.924   5.043 -0.3252  0.2837  0.0838
 8583W        W24717  16.651   2.962   5.295  0.3532  0.2694  0.0686
 8584W        W24718  11.657  17.678   5.764  0.0396 -0.1544 -0.0521
 8585W        W24719  15.184   4.995   4.246  0.0425 -0.0850  0.1330
 8586W        W24720   8.428  12.970   4.137 -0.1540  0.0863  0.0027
 8587W        W24721  12.278   6.465  13.256  0.4100 -0.2423  0.3783
 8588W        W24722  16.475   1.689  13.500 -0.2759 -0.0852  0.1793
 8589W        W24723   6.303   7.828  13.121 -0.2834 -0.1534  0.0924
 8590W        W24724  15.077   2.498   4.504 -0.2057 -0.1044  0.2072
 8591W        W24725  15.494  17.938  13.599 -0.0840  0.0894 -0.1337
 8592W        W24726   2.876  16.135   5.733 -0.1752 -0.0214 -0.0555
 8593W        W24727  14.234  17.365   4.394 -0.0182  0.0983 -0.0383
 8594W        W24728  10.026   6.624   5.480  0.1394 -0.0669 -0.0205
 8595W        W24729   3.666  15.607  15.568  0.1248 -0.2498  0.0834
 8596W        W24730   4.523  10.659   1.066  0.0710 -0.0666 -0.4795
 8597W        W24731   4.980   4.449   6.003 -0.1216 -0.0044 -0.1394
 8598W        W24732   9.254   0.811  14.206  0.1760  0.1806 -0.3496
 8599W        W24733   5.873   1.417  14.885 -0.0496  0.0025  0.2479
 8600W        W24734  11.813   5.845   4.662  0.1896 -0.1731 -0.0123
 8601W        W24735   2.271   1.724  13.829 -0.1772  0.0103  0.2448
 8602W        W24736  17.789  14.119  15.936 -0.1366  0.1506  0.1674
 8603W        W24737   7.578   9.804   2.848 -0.1053 -0.1716  0.0005
 8604W        W24738  14.611  17.631   2.762 -0.0504 -0.0266  0.0381
 8605W        W24739  10.021  10.835   3.370 -0.1480 -0.3403  0.0780
 8606W        W24740   5.578   7.170  14.251 -0.2240 -0.2583  0.0308
 8607W        W24741  12.736  10.571  13.728  0.2750 -0.0093  0.2995
 8608W        W24742  12.420   0.693  12.456 -0.3128  0.2943 -0.1677
 8609W        W24743  11.401  11.482   1.106  0.0792  0.1174 -0.2611
 8610W        W24744  17.714   3.402  15.562  0.2144 -0.0874  0.2828
 8611W        W24745  14.446   4.435   5.526  0.3081  0.0001 -0.2550
 8612W        W24746  11.174   4.604  13.303 -0.0589  0.1323  0.1067
 8613W        W24747   4.005   9.742   1.247 -0.0821 -0.1767  0.0457
 8614W        W24748   7.896   8.103   2.098  0.1708  0.1728  0.1213
 8615W        W24749  14.153  16.019   5.906 -0.0628  0.2009  0.2798
 8616W        W24750   4.399  14.389  16.153 -0.1416  0.1235  0.4959
 8617W        W24751  12.252  11.804   2.626 -0.0664  0.0621 -0.1607
 8618W        W24752   6.254  11.856  15.362  0.1910  0.1514  0.1057
 8619W        W24753  14.048  15.568   4.058  0.3030 -0.0560 -0.0335
 8620W        W24754  17.788   8.805   4.946  0.1648  0.3172  0.0789
 8621W        W24755  14.726  15.778   4.669  0.2411 -0.0287  0.2452
 8622W        W24756   4.429  17.475  11.350  0.1394  0.0246 -0.2512
 8623W        W24757  12.056  17.887   3.989  0.0493 -0.1532  0.1845
 8624W        W24758   0.054  10.764  14.676  0.0638 -0.1257 -0.1101
 8625W        W24759  12.936   1.580   3.748 -0.0337 -0.0317 -0.0437
 8626W        W24760   2.231  16.582  16.014  0.2589 -0.1520 -0.2379
 8627W        W24761   5.984  10.752  15.323 -0.1398 -0.2941 -0.0077
 8628W        W24762  10.052  13.722   5.629  0.1208 -0.0486  0.0029
 8629W        W24763   3.941   6.558   6.148  0.1595  0.1418 -0.0702
 8630W        W24764   7.667  16.404   1.780 -0.0682  0.0843 -0.2924
 8631W        W24765   3.377   0.950   3.724  0.1975 -0.0411 -0.2345
 8632W        W24766  16.395   4.024  16.337  0.2197  0.3343 -0.1190
 8633W        W24767  15.516  12.095   4.847  0.1088  0.0258 -0.3393
 8634W        W24768  12.740  15.452  13.523 -0.1090 -0.5265 -0.3255
 8635W        W24769   9.344   4.765  11.927  0.1843 -0.4730 -0.1831
 8636W        W24770   5.886   5.963   0.811  0.0197  0.3264  0.1064
 8637W        W24771   7.316   2.135   3.204 -0.0015 -0.1049 -0.0571
 8638W        W24772   9.336  14.795   4.837 -0.0817 -0.1148  0.1151
 8639W        W24773   1.316   6.996   3.190  0.1125  0.2889  0.1313
 8640W        W24774  15.689  16.709   0.087  0.1733  0.1158  0.0633
 8641W        W24775  14.509  10.515  12.598  0.0800  0.5472  0.1773
 8642W        W24776   7.143   6.234   2.089  0.0559 -0.2837 -0.0368
 8643W        W24777  16.770  15.927   5.204  0.0353 -0.1332 -0.0312
 8644W        W24778   4.746  14.275  15.343  0.0666  0.4904  0.1440
 8645W        W24779  12.858  12.213   4.645 -0.4078 -0.2456  0.1642
 8646W        W24780   0.215  10.218   6.022 -0.1480 -0.0723  0.1838
 8647W        W24781   8.119   2.086  11.474  0.0698 -0.3489  0.0302
 8648W        W24782   3.893  16.394  11.966  0.0204 -0.2309 -0.1454
 8649W        W24783   5.236  11.273   1.524 -0.1568  0.0943 -0.3107
 8650W        W24784   7.519  13.040   3.788  0.4050  0.0769 -0.1080
 8651W        W24785   3.656  15.094  15.278  0.0398 -0.1320  0.1238
 8652W        W24786  15.750   2.164  11.478 -0.2832  0.0169 -0.0609
 8653W        W24787   6.258  10.610   4.623 -0.0856 -0.0554 -0.0058
 8654W        W24788  16.999  14.475   1.121 -0.1008  0.0490 -0.1731
 8655W        W24789   5.312   8.343   2.525  0.0463 -0.0641  0.1056
 8656W        W24790   1.179  10.021   1.721 -0.0625 -0.0932 -0.2407
 8657W        W24791  15.727   3.415  12.262  0.0878 -0.1216  0.1671
 8658W        W24792   6.108  10.200   1.517  0.0093  0.4085 -0.2532
 8659W        W24793   8.306   1.580  13.732  0.1315  0.3285 -0.0235
 8660W        W24794  17.118   0.402   4.919 -0.0753  0.0091 -0.1136
 8661W        W24795  12.196  16.271  13.653 -0.1923  0.0505  0.0924
 8662W        W24796   5.011  14.612   3.797 -0.0446  0.0395  0.0588
 8663W        W24797  10.021  11.468  14.709 -0.1485  0.0696  0.4274
 8664W        W24798  13.650   1.924  14.670 -0.0261 -0.0305  0.0814
 8665W        W24799   1.048   8.258   5.024 -0.1819  0.4778 -0.3653
 8666W        W24800   4.233  11.629  12.738 -0.3731 -0.1051 -0.1492
 8667W        W24801   2.840   3.150   2.537 -0.0658 -0.0678 -0.1612
 8668W        W24802   6.475   9.135   4.618  0.0351  0.0530 -0.0811
 8669W        W24803   2.905   6.676  12.416 -0.0083  0.2986  0.0396
 8670W        W24804   9.992   0.443  14.207  0.0150 -0.0580  0.1320
 8671W        W24805   1.723  13.827   0.629  0.3933 -0.0252  0.1074
 8672W        W24806  16.761   2.146   1.277  0.1031  0.1598  0.1555
 8673W        W24807  13.900   2.208  11.474  0.2120 -0.2881 -0.2234
 8674W        W24808   9.014  13.113  12.549 -0.2287 -0.2727  0.0400
 8675W        W24809   9.115   6.513   0.355 -0.2060  0.0695  0.1619
 8676W        W24810   2.249   7.099  10.860  0.0942  0.4223 -0.1232
 8677W        W24811  13.515  10.690  15.551  0.1182 -0.0779  0.2584
 8678W        W24812  12.792  10.350  14.305  0.0647 -0.2426 -0.3569
 8679W        W24813   9.666   8.206  14.369  0.0062 -0.0493  0.2460
 8680W        W24814   9.533  15.574  14.792 -0.1264  0.0233  0.1817
 8681W        W24815  17.714   0.690  12.937  0.2877 -0.0484  0.0305
 8682W        W24816   0.026  12.760   2.683  0.2146  0.1181  0.0698
 8683W        W24817   6.337   2.902  15.633 -0.1067  0.1859  0.0173
 8684W        W24818  11.754   5.412  14.725 -0.0327  0.3292 -0.2038
 8685W        W24819   8.303   8.022   1.103 -0.0444 -0.2520 -0.0158
 8686W        W24820   1.739  17.476   0.538  0.0686 -0.0656  0.4570
 8687W        W24821  13.792   6.463  16.111  0.2292 -0.3385  0.1521
 8688W        W24822   2.373   5.004  12.660 -0.0839  0.0178 -0.1873
 8689W        W24823  12.402   4.880   3.677  0.0208  0.1735  0.1009
 8690W        W24824   3.537   9.161  13.103  0.3788  0.1224  0.2454
 8691W        W24825  16.604   7.728  11.869 -0.3461  0.0585  0.2431
 8692W        W24826  15.980  10.352  13.981 -0.1474  0.3280  0.1684
 8693W        W24827   9.127  13.614  14.616  0.0036 -0.0298  0.0100
 8694W        W24828  16.831  14.496   3.017  0.2638  0.1753 -0.0116
 8695W        W24829   1.369  16.328   1.691  0.2109 -0.1642  0.3488
 8696W        W24830   5.522   2.516  11.297 -0.1213 -0.1192 -0.0402
 8697W        W24831  14.426  13.472  11.587 -0.1563  0.0448  0.2958
 8698W        W24832  10.471   6.508   0.885  0.1271 -0.2030 -0.1046
 8699W        W24833   9.281  11.619   1.437  0.2537 -0.0008  0.2911
 8700W        W24834   6.005   0.779   3.685  0.1440 -0.0198 -0.1545
 8701W        W24835  10.406  17.065  14.501 -0.2691  0.1665  0.0750
 8702W        W24836   4.427   6.335   2.371 -0.1502 -0.1356 -0.0827
 8703W        W24837  11.450  12.497   0.911 -0.4079  0.1465 -0.2056
 8704W        W24838  14.234  14.977  12.299 -0.2398  0.0123 -0.1486
 8705W        W24839   4.764  15.779  15.569 -0.2095  0.1175  0.4804
 8706W        W24840   2.922  12.614  12.104 -0.0466  0.0610  0.0433
 8707W        W24841  14.573   7.101   5.681 -0.2424  0.2421  0.1211
 8708W        W24842  14.855  11.708   0.004 -0.1336  0.0641 -0.4193
 8709W        W24843   8.636  10.865   3.670 -0.0493 -0.0261 -0.2229
 8710W        W24844  14.805   1.960   1.895  0.0780 -0.1967  0.0396
 8711W        W24845   1.726   1.688  12.412  0.2773  0.2736  0.0098
 8712W        W24846   3.650  15.648  13.048 -0.2649 -0.0665  0.0131
 8713W        W24847  14.086  15.982   1.030 -0.0978  0.1562  0.3348
 8714W        W24848  15.518  11.498  14.283  0.4600 -0.0542  0.1034
 8715W        W24849  17.848  17.257   5.064 -0.0768  0.0857 -0.3266
 8716W        W24850   8.367  16.008  12.936  0.3211  0.0392 -0.3805
 8717W        W24851   6.732  14.894   2.135  0.1224 -0.0737  0.1695
 8718W        W24852   4.440   1.118   5.108 -0.0148  0.2503  0.0717
 8719W        W24853   6.774   5.053   2.073 -0.0716  0.2043  0.0661
 8720W        W24854   7.016   2.883   4.394 -0.1425  0.0186  0.2253
 8721W        W24855  14.759   1.484  13.273  0.1915 -0.1622 -0.1740
 8722W        W24856   5.141   9.560  10.197  0.1575 -0.3349 -0.2435
 8723W        W24857   3.669   3.234  13.046  0.0785 -0.0769  0.2046
 8724W        W24858  10.144  17.279  11.707 -0.0850 -0.1158  0.2747
 8725W        W24859  16.758  14.906   1.133 -0.0105  0.1157  0.1047
 8726W        W24860  17.151  13.043  11.801  0.1924 -0.1807  0.1213
 8727W        W24861  17.823  17.867   0.998 -0.1261  0.2379  0.2052
 8728W        W24862  15.701  12.722  13.442 -0.2740 -0.0790  0.3616
 8729W        W24863  12.470  12.544   1.924 -0.0718 -0.0745 -0.1670
 8730W        W24864  11.595  14.656   3.372  0.2216 -0.0474  0.0859
 8731W        W24865  15.757  12.906  16.181  0.1371 -0.1767 -0.2364
 8732W        W24866   3.398  11.220   1.812  0.3057  0.1318  0.2496
 8733W        W24867   7.410  14.546   2.698  0.2107 -0.0286  0.1099
 8734W        W24868   4.079  11.105   0.575  0.2618  0.1624 -0.0281
 8735W        W24869   6.124  16.128   3.679  0.1692  0.0336  0.3123
 8736W        W24870   5.168   6.263  14.807 -0.0708  0.1294 -0.0604
 8737W        W24871  16.550  12.230   2.191  0.1103  0.0658 -0.3072
 8738W        W24872   3.409   7.026  11.849 -0.0917 -0.0039 -0.0926
 8739W        W24873   6.602   6.551  10.792  0.1410  0.1967  0.2630
 8740W        W24874   3.197   9.642  14.241 -0.1952 -0.0095 -0.2284
 8741W        W24875   7.945  12.766  10.326 -0.0434 -0.2286  0.1544
 8742W        W24876   5.431  15.662  11.375 -0.1861  0.0339 -0.2483
 8743W        W24877  17.936  10.833   2.671 -0.1352  0.1546  0.2468
 8744W        W24878  17.294   2.987  16.347 -0.0329 -0.2056 -0.0885
 8745W        W24879  12.204   2.604   2.563 -0.0689  0.0033 -0.0791
 8746W        W24880  16.686   2.337   4.621 -0.1319 -0.0803 -0.1578
 8747W        W24881  10.171   8.909  11.647  0.1152  0.0011 -0.2581
 8748W        W24882   8.390   4.621  14.339  0.0505  0.1250 -0.2376
 8749W        W24883   4.983   4.219  15.499 -0.3548 -0.2446  0.2045
 8750W        W24884  13.263   5.174  15.593 -0.0727 -0.4024 -0.1597
 8751W        W24885   8.468   9.106  12.189  0.1171  0.0526  0.2133
 8752W        W24886   4.103   6.130  14.200  0.0846  0.3286  0.0388
 8753W        W24887   8.512   0.051  10.829  0.0330  0.1891  0.1979
 8754W        W24888  15.667   8.507  11.098 -0.0307  0.0707  0.2185
 8755W        W24889   3.012  17.726   5.026 -0.0320  0.2815 -0.0559
 8756W        W24890  14.485  10.642  13.105  0.1067  0.0975 -0.0500
 8757W        W24891   3.579  14.126  11.784  0.0028 -0.0024  0.2260
 8758W        W24892  16.560  17.963  11.513  0.0464 -0.1730 -0.2374
 8759W        W24893  13.560  14.423   1.225 -0.1554 -0.2395  0.0294
 8760W        W24894  16.587   3.674  15.554  0.3329 -0.2306 -0.1760
 8761W        W24895   8.990  14.551  12.042  0.0188  0.0801  0.4344
 8762W        W24896  15.120   2.386  13.145  0.1356 -0.1592  0.0610
 8763W        W24897  12.885   5.606   3.701 -0.3109  0.1258  0.1197
 8764W        W24898   9.894   9.257  14.013 -0.2824  0.4204 -0.2543
 8765W        W24899   9.671  11.344  12.355  0.1703  0.2060  0.1314
 8766W        W24900   7.984  14.759  14.683 -0.4474 -0.1300 -0.2777
 8767W        W24901  12.502  14.298  13.928  0.3926 -0.0399  0.1616
 8768W        W24902   0.508  13.351   2.884 -0.3174 -0.0641 -0.1840
 8769W        W24903   3.670  16.335   4.587 -0.0871  0.2278 -0.2746
 8770W        W24904   1.575   0.105   4.362  0.0636 -0.1649  0.0131
 8771W        W24905  15.574  12.558  14.571  0.2761  0.0130  0.0232
 8772W        W24906   1.785  13.031  13.941  0.0919  0.2265  0.1371
 8773W        W24907  12.889  14.668  12.687  0.0489  0.0376  0.1547
 8774W        W24908   0.448   8.269  13.615 -0.1200 -0.1611  0.1699
 8775W        W24909   3.420  14.444   3.452  0.1977  0.0469 -0.1237
 8776W        W24910   9.508   7.670   2.264 -0.1169  0.0631 -0.3070
 8777W        W24911  16.339   8.809   3.468 -0.1654 -0.2442 -0.0482
 8778W        W24912   2.837  16.780  14.267  0.1281  0.2068 -0.1270
 8779W        W24913  17.290   1.413   1.765  0.2689  0.2843  0.3039
 8780W        W24914  17.723   1.484  12.436  0.2103 -0.2667 -0.0512
 8781W        W24915  15.736  13.210  13.356 -0.0490 -0.1913 -0.3475
 8782W        W24916   2.759  12.457  12.606  0.2394 -0.1278 -0.1304
 8783W        W24917   4.529   1.288   5.632  0.0614 -0.2417  0.2182
 8784W        W24918   6.939   6.593  13.661  0.1086 -0.1103 -0.2494
 8785W        W24919  17.469  12.505   1.854 -0.1078 -0.0311  0.1639
 8786W        W24920   2.718   0.736   4.888  0.3367 -0.0393 -0.0250
 8787W        W24921  15.923   4.690   5.288 -0.0581 -0.2326  0.1353
 8788W        W24922  11.640   2.481  13.552 -0.4217  0.1175 -0.1287
 8789W        W24923   3.027   6.320   4.842  0.3560  0.0035 -0.2663
 8790W        W24924   6.542  10.752  10.876 -0.0534 -0.1603  0.2311
 8791W        W24925  11.052   7.631  15.281  0.0310 -0.1558  0.0290
 8792W        W24926   0.143   6.412   4.952  0.0262 -0.2519  0.0992
 8793W        W24927  15.139   9.666   5.241  0.1487 -0.1153 -0.1819
 8794W        W24928   2.618  11.874   2.412 -0.1388  0.0417  0.0916
 8795W        W24929   8.246   2.708   2.845  0.0016  0.0802  0.0328
 8796W        W24930   3.252   4.126   5.437  0.0852 -0.2502 -0.2690
 8797W        W24931   7.178   1.679  16.225 -0.1043  0.0229 -0.0852
 8798W        W24932   8.894  10.303   4.244  0.2455 -0.0324 -0.1270
 8799W        W24933   1.428  17.109   2.170 -0.1963 -0.1445  0.0664
 8800W        W24934  14.580   3.118  10.029  0.4242  0.1384 -0.0069
 8801W        W24935   1.894  14.370  12.889 -0.1703 -0.0882  0.1061
 8802W        W24936   8.754  13.995   2.573 -0.1015  0.1043 -0.2545
 8803W        W24937  14.982  11.801  15.529 -0.0697 -0.2849  0.3761
 8804W        W24938  13.466   6.032  11.466  0.0436  0.1560  0.0263
 8805W        W24939   1.635  14.243   2.430 -0.0598 -0.0340 -0.0716
 8806W        W24940  16.627   4.657   1.491  0.0960  0.2431 -0.0793
 8807W        W24941  16.254   7.665  12.418  0.2459  0.2050  0.2053
 8808W        W24942  17.982  15.942  13.554 -0.1239 -0.0008  0.0978
 8809W        W24943  10.315  11.774  13.461 -0.2817 -0.0020 -0.2831
 8810W        W24944  16.050   5.822   4.687  0.1030  0.1514 -0.1814
 8811W        W24945   0.902  15.292   4.252  0.1665 -0.0762  0.3377
 8812W        W24946  15.315   7.004  10.099  0.2614 -0.2724  0.0091
 8813W        W24947  11.480  11.495  12.462  0.1520 -0.1425 -0.0468
 8814W        W24948  10.937   4.601   1.730 -0.0711  0.1542 -0.0431
 8815W        W24949   0.334   1.731  12.024 -0.2607 -0.0951 -0.0900
 8816W        W24950  11.298   0.437   6.117 -0.0987  0.0461  0.3384
 8817W        W24951   8.957  14.862  13.802 -0.0682  0.2232 -0.1251
 8818W        W24952  11.884  14.670  13.348  0.4708 -0.0740 -0.1967
 8819W        W24953  15.081   9.024   1.859 -0.1703 -0.3916  0.0353
 8820W        W24954  13.925   6.396  15.270 -0.0163  0.1161  0.1039
 8821W        W24955   8.437   7.377  12.303  0.1968  0.0749  0.0094
 8822W        W24956   2.810  17.929   3.281  0.1584 -0.0253  0.0489
 8823W        W24957   5.647   1.404  15.317 -0.3419  0.0288  0.1879
 8824W        W24958   8.951   7.894   0.363  0.1895 -0.0015 -0.0058
 8825W        W24959   9.433   0.212  13.289 -0.0818  0.1341  0.0817
 8826W        W24960   4.465   1.341  14.683 -0.0478 -0.3358 -0.2115
 8827W        W24961  14.218   1.235   1.882  0.0009  0.1893 -0.0448
 8828W        W24962   7.309  10.436  11.454  0.0234 -0.1037 -0.0188
 8829W        W24963  12.869   1.908   2.667  0.0925  0.2476  0.3753
 8830W        W24964   8.418  10.947  15.885 -0.0694  0.0619 -0.1659
 8831W        W24965   0.282   5.492  15.015 -0.5153 -0.2891  0.3525
 8832W        W24966   6.648   4.013  14.096  0.1527  0.0916  0.0385
 8833W        W24967   2.578  10.560  10.522  0.4260  0.0399 -0.2250
 8834W        W24968   9.510  14.820   4.028 -0.1372  0.0980  0.2648
 8835W        W24969  14.706   5.883  13.245 -0.0510 -0.0180 -0.2119
 8836W        W24970  11.120  12.399   3.145 -0.0486 -0.0901 -0.0705
 8837W        W24971   9.970   2.217   5.317  0.2073 -0.2076  0.1139
 8838W        W24972  17.938  11.767   2.520  0.0242 -0.2464 -0.1874
 8839W        W24973  17.745  15.705  15.561 -0.2959 -0.3782 -0.0298
 8840W        W24974   2.828  10.554   1.671 -0.0331  0.0623  0.0200
 8841W        W24975   6.214   5.644   5.179  0.3751  0.1664  0.0967
 8842W        W24976  14.274   2.796   1.206  0.1339 -0.2245 -0.1039
 8843W        W24977   0.491   9.349   1.048  0.0812 -0.1841 -0.0411
 8844W        W24978  17.875   6.840  15.963 -0.1143  0.0561 -0.1173
 8845W        W24979   4.602  12.713   2.024 -0.1041  0.0217 -0.2986
 8846W        W24980  11.878  11.833   3.152 -0.0099 -0.0298  0.0646
 8847W        W24981   3.464  11.401  12.446 -0.1597  0.2104 -0.0173
 8848W        W24982  14.291  15.738  14.930 -0.3221  0.0632  0.1763
 8849W        W24983   2.608  11.738  15.786 -0.0725  0.2292 -0.3653
 8850W        W24984  10.112   8.529  13.543  0.1045  0.1831 -0.1670
 8851W        W24985   3.540   4.147   4.136  0.0835 -0.0699  0.1421
 8852W        W24986  14.462  16.330  14.314 -0.1286  0.2058 -0.0917
 8853W        W24987   0.223  14.731  14.969  0.0989 -0.0299  0.0635
 8854W        W24988  16.858   3.721   3.628 -0.0403 -0.1804 -0.1495
 8855W        W24989   2.802   9.533  12.008 -0.0109 -0.3099 -0.0249
 8856W        W24990  17.506   8.987   6.140  0.1158  0.0309  0.3922
 8857W        W24991  18.012   4.718  14.426 -0.1094  0.0319 -0.0038
 8858W        W24992   8.513   2.519   0.637 -0.2128  0.1629  0.5780
 8859W        W24993  17.045  15.311  15.465 -0.0236  0.0480  0.1082
 8860W        W24994   4.826   4.775   1.615 -0.1266 -0.2895  0.2995
 8861W        W24995   9.677  14.499   3.146  0.1005 -0.2091 -0.1427
 8862W        W24996   5.345  12.886  15.658  0.0122 -0.5324 -0.0669
 8863W        W24997  11.729   8.417   5.169  0.2181 -0.3825 -0.0099
 8864W        W24998   0.316  16.007  14.653 -0.3903  0.2031 -0.2031
 8865W        W24999   0.404   9.532   2.917  0.0997  0.0527  0.1120
 8866W        W25000  16.751   1.807   3.439  0.3551 -0.1095  0.0484
 8867W        W25001   6.183  13.430   2.917  0.0235 -0.1765  0.0679
 8868W        W25002   7.176   2.371   6.228  0.2481 -0.0357  0.1688
 8869W        W25003  16.990  13.227   3.531 -0.0370  0.0252 -0.1719
 8870W        W25004  11.719   2.481  15.840  0.1251  0.0762 -0.3049
 8871W        W25005   1.788  13.224   4.651  0.2500 -0.0321  0.2001
 8872W        W25006  11.333   7.760  11.981 -0.1844  0.0201 -0.0582
 8873W        W25007   3.052   5.543  15.114  0.1362  0.0735  0.2220
 8874W        W25008  14.427  14.156   6.079 -0.1562 -0.0217  0.2884
 8875W        W25009   4.413   1.039  12.269  0.0476 -0.1594  0.2110
 8876W        W25010   2.135  15.663   2.797 -0.2359 -0.2690 -0.1261
 8877W        W25011   2.482  13.466   3.249 -0.0662 -0.1520  0.1365
 8878W        W25012  13.958   4.673   1.075  0.2254 -0.0040 -0.2528
 8879W        W25013   2.253  15.221  10.958 -0.1065  0.2610  0.5169
 8880W        W25014  14.403  12.799  12.748  0.1145  0.0516  0.1011
 8881W        W25015   2.199  10.766   2.450 -0.0992  0.3207  0.2558
 8882W        W25016  12.565   3.962  16.136 -0.1905 -0.1459 -0.1441
 8883W        W25017   0.279   0.022  11.491 -0.1227 -0.2469 -0.2468
 8884W        W25018   0.064  11.159   5.032 -0.1646 -0.1864 -0.0286
 8885W        W25019   7.951  14.232  13.506  0.0533  0.0629  0.1148
 8886W        W25020  16.810   6.422  13.067  0.2747  0.0160  0.2012
 8887W        W25021   1.427  16.744  15.014 -0.1203 -0.1130  0.1111
 8888W        W25022  11.186   2.579  11.260 -0.1525  0.0459  0.0739
 8889W        W25023  17.903  17.515   0.135 -0.1932 -0.2705 -0.3155
 8890W        W25024  17.881  10.130   1.781  0.2098  0.0424 -0.5077
 8891W        W25025   4.566  17.738  14.554  0.0759  0.2602  0.0138
 8892W        W25026  14.623   9.175  14.429  0.2391 -0.1166 -0.0027
 8893W        W25027  17.043   9.551  11.610 -0.1680 -0.1099 -0.5051
 8894W        W25028  14.537  14.599  14.172 -0.1466 -0.1723  0.0450
 8895W        W25029  13.498  14.414   4.107  0.0493 -0.1903 -0.3382
 8896W        W25030  15.473   7.497   2.044 -0.0749  0.3306 -0.1768
 8897W        W25031   8.118  10.137   0.425 -0.1157  0.1564  0.3295
 8898W        W25032  18.067   4.762  14.933  0.3286 -0.0488  0.0501
 8899W        W25033  12.537   7.388   0.587 -0.1062 -0.3534 -0.0903
 8900W        W25034   7.358  15.500   4.173  0.1883 -0.1228  0.1076
 8901W        W25035   3.710   1.334  13.665  0.1364 -0.0157  0.1463
 8902W        W25036   4.908   0.954   5.805 -0.1181  0.1324  0.1035
 8903W        W25037   7.027   8.444   3.492  0.1257 -0.1659 -0.0193
 8904W        W25038  12.329   0.442   3.491 -0.0604  0.2927 -0.0071
 8905W        W25039  12.299  14.946   5.501 -0.0823 -0.4241 -0.0466
 8906W        W25040   6.549  12.800   4.006  0.3066 -0.1250  0.2846
 8907W        W25041  13.137   8.086   3.107  0.1289 -0.3074 -0.0303
 8908W        W25042   6.053  11.516   2.760 -0.2485  0.0180 -0.1791
 8909W        W25043   8.985  11.494  12.018 -0.1201  0.1901 -0.0939
 8910W        W25044   4.551   0.286  12.888  0.1007  0.1074  0.0414
 8911W        W25045  12.478   8.478  14.344  0.2761 -0.0084 -0.3915
 8912W        W25046   2.749  14.395   5.702 -0.0540 -0.2413  0.1902
 8913W        W25047  12.252   4.132  10.546 -0.1190  0.1346  0.0192
 8914W        W25048   2.619  10.298  11.980  0.0214 -0.0915 -0.0237
 8915W        W25049   7.832   4.003  11.538 -0.3342 -0.0222  0.2508
 8916W        W25050   2.439   1.613   3.532  0.1632 -0.2165  0.3115
 8917W        W25051   0.259   5.721  12.490  0.0306  0.0021  0.1909
 8918W        W25052   5.831   9.647   5.307  0.4640 -0.0202 -0.3600
 8919W        W25053   1.228   9.371  14.121  0.0467 -0.0785  0.0819
 8920W        W25054  16.386   4.385  14.965  0.1654 -0.1458 -0.0115
 8921W        W25055   1.834  17.450   5.035  0.4799  0.0813  0.0817
 8922W        W25056   7.865   0.955   4.572  0.1018  0.1158 -0.0153
 8923W        W25057   6.672   8.868  14.666  0.2975  0.0951 -0.0519
 8924W        W25058  15.339   3.886  14.645  0.5864  0.3213 -0.1461
 8925W        W25059  17.990  16.484  15.949 -0.0194  0.0969 -0.3288
 8926W        W25060   2.603  16.914  13.732  0.0494  0.2564  0.0003
 8927W        W25061   6.062   4.124   1.822  0.2105 -0.1054  0.1455
 8928W        W25062  13.695   5.606  15.770 -0.0799 -0.0710  0.2867
 8929W        W25063   5.147  13.701   5.826 -0.0004 -0.1469 -0.0311
 8930W        W25064   7.590   0.602  15.476 -0.1980 -0.3472  0.0122
 8931W        W25065  13.752  12.679   6.045 -0.1139 -0.1557  0.0217
 8932W        W25066   0.344   1.307  14.023  0.2402  0.0065  0.0047
 8933W        W25067  16.190   5.196   2.130  0.1301 -0.2014 -0.0329
 8934W        W25068  10.962   1.397  11.905  0.0460 -0.0030  0.1603
 8935W        W25069  14.101  12.245   0.453  0.0365  0.0940 -0.2458
 8936W        W25070   4.361  12.164   1.121  0.0316  0.3960 -0.3369
 8937W        W25071   3.778  14.279  14.090 -0.3243  0.0384 -0.0931
 8938W        W25072   8.173   2.265  15.231  0.1767 -0.1343  0.0801
 8939W        W25073   4.850  13.316  13.779  0.1239  0.1033  0.2770
 8940W        W25074   7.616  15.940   0.510 -0.2047 -0.1207 -0.3322
 8941W        W25075  12.933  16.097   4.045 -0.0276 -0.2301 -0.2393
 8942W        W25076   2.087   9.307  10.829 -0.0197  0.1475  0.1297
 8943W        W25077  11.916   2.786  12.021 -0.1776  0.0317 -0.0720
 8944W        W25078  10.789  15.886  14.240  0.2370 -0.0050  0.1458
 8945W        W25079   0.718   1.559   0.355 -0.2032 -0.2143  0.1282
 8946W        W25080   7.642  16.863   2.967 -0.3824 -0.0574  0.2172
 8947W        W25081   0.006   6.249   1.202  0.3569  0.1651  0.1056
 8948W        W25082   0.449   7.928   3.226 -0.4372 -0.0441  0.1750
 8949W        W25083   5.939   2.875   2.490 -0.0065 -0.0032 -0.1207
 8950W        W25084   9.825   3.193   5.104 -0.0576  0.3505 -0.1872
 8951W        W25085   6.135   5.905  11.856  0.1825  0.3071  0.0795
 8952W        W25086   0.614  17.270   6.044  0.1102 -0.0295  0.1330
 8953W        W25087  12.914  12.347   0.961 -0.0341 -0.0149  0.1080
 8954W        W25088  14.442   7.420  14.497  0.1311  0.0311 -0.0020
 8955W        W25089   3.260   5.442   3.851  0.0207 -0.0691 -0.1968
 8956W        W25090  16.240  12.939  15.966 -0.2303 -0.0573 -0.2292
 8957W        W25091  11.060   3.710   5.352  0.1412 -0.0082 -0.1621
 8958W        W25092  10.758   1.953  14.066  0.0072  0.3483 -0.2883
 8959W        W25093  11.313   6.645  12.604 -0.2581  0.0534 -0.1615
 8960W        W25094  11.768   4.157   1.401  0.2202 -0.0248 -0.1876
 8961W        W25095  15.641   2.713   0.027 -0.2150  0.0704  0.2857
 8962W        W25096  15.197  18.014   5.474  0.1532  0.2116  0.1527
 8963W        W25097   3.813   3.948  12.037 -0.0191  0.0425  0.2329
 8964W        W25098  18.049   8.071  14.759  0.0557 -0.0429 -0.0015
 8965W        W25099   7.475  11.735  14.863  0.0303 -0.1148 -0.1702
 8966W        W25100   8.158   9.450   4.846 -0.0398 -0.2496  0.1186
 8967W        W25101   3.587   7.971  13.022 -0.1966 -0.1768  0.0757
 8968W        W25102   0.453   5.733  11.720 -0.1571  0.0154  0.0493
 8969W        W25103   4.298  15.377   2.928 -0.2234 -0.3290  0.0023
 8970W        W25104   6.356   5.845   1.131  0.0752 -0.2746 -0.2058
 8971W        W25105  10.648   4.950  16.237  0.0887 -0.0288  0.2208
 8972W        W25106  17.086   8.239  14.158 -0.0800 -0.1288  0.3353
 8973W        W25107  15.715  11.086   4.699 -0.0380 -0.0079 -0.0148
 8974W        W25108   8.290  14.593   3.175  0.0086  0.1411 -0.3969
 8975W        W25109  14.815   1.071  15.665  0.1563  0.0212 -0.2536
 8976W        W25110  18.044   6.382  12.072  0.1092  0.0090 -0.0434
 8977W        W25111  13.854   9.628  12.212 -0.0692 -0.4057  0.0252
 8978W        W25112   0.128   2.746   0.438  0.3037 -0.2845  0.2695
 8979W        W25113   5.364  14.262  13.066 -0.0599  0.1222 -0.3644
 8980W        W25114   6.836  13.924   3.816 -0.0526  0.0203  0.0060
 8981W        W25115  10.978   5.375  16.148  0.2200  0.4617 -0.0267
 8982W        W25116  10.686   6.308   3.842  0.0782  0.0474  0.0836
 8983W        W25117  13.308   6.456  14.921 -0.0868  0.0925 -0.3847
 8984W        W25118   2.830   3.365   4.177  0.0397 -0.2044 -0.2559
 8985W        W25119  17.028  13.159  12.411  0.2662 -0.0551  0.1621
 8986W        W25120   2.287   7.554   3.614 -0.0720  0.4551  0.0309
 8987W        W25121   8.958  13.564  11.197 -0.1153 -0.0018  0.1107
 8988W        W25122   8.370   1.361  14.583  0.0656 -0.0994 -0.1542
 8989W        W25123   7.629   0.513  10.255 -0.0389 -0.0260  0.2312
 8990W        W25124  14.086   9.673  14.879  0.0357  0.2023  0.3202
 8991W        W25125   9.821  14.038  10.780 -0.5589  0.0820 -0.2635
 8992W        W25126   3.116   4.755  13.334 -0.2814  0.3335  0.1514
 8993W        W25127   5.050   3.422   0.945  0.0939  0.3411 -0.0221
 8994W        W25128   1.689  13.544   1.924  0.0025 -0.1306  0.1388
 8995W        W25129   8.948   4.487   0.264 -0.3088  0.2237 -0.0469
 8996W        W25130   7.515   7.216  11.830  0.0327  0.1819 -0.1716
 8997W        W25131   1.409  14.180  13.848 -0.2365 -0.1424  0.0955
 8998W        W25132  16.814  10.538   2.227 -0.1466 -0.1400  0.1425
 8999W        W25133   7.314  14.006   3.911  0.1870  0.1610  0.0441
 9000W        W25134   5.572  14.996   0.524 -0.3730  0.0007  0.1075
 9001W        W25135   1.647   1.093  15.477  0.0342 -0.2228 -0.0137
 9002W        W25136   2.397  14.644   4.730 -0.1111 -0.1737 -0.2102
 9003W        W25137   3.977   7.785  15.666  0.0664  0.1274  0.0172
 9004W        W25138  13.460   1.602   0.849  0.4588  0.0880  0.0587
 9005W        W25139   7.140  15.770  12.704  0.0279 -0.1825  0.2322
 9006W        W25140   9.507   1.135  13.163  0.1152 -0.1784 -0.1478
 9007W        W25141   3.585  11.211   4.856 -0.3976 -0.2110  0.4266
 9008W        W25142   3.191   8.352  13.162  0.3278 -0.1566  0.3395
 9009W        W25143  11.956  15.512   5.694  0.0353  0.2642  0.5124
 9010W        W25144  15.492   8.043  11.310  0.1794 -0.2013 -0.1144
 9011W        W25145   1.398  11.904   2.569  0.1106  0.0011 -0.2794
 9012W        W25146   1.910   4.805   0.536  0.3749 -0.2448  0.2933
 9013W        W25147  14.127  13.125  15.060 -0.2340 -0.0770 -0.1768
 9014W        W25148   8.423  15.813  11.689  0.2326  0.0012 -0.2342
 9015W        W25149  12.378   3.638  12.321 -0.0164 -0.0817 -0.4920
 9016W        W25150  17.283   7.039  11.464 -0.2171 -0.1258 -0.2551
 9017W        W25151   5.721   2.985   5.260 -0.0523 -0.2125  0.1538
 9018W        W25152  17.109  14.644   5.542  0.2479  0.2354 -0.2796
 9019W        W25153  12.367  12.922   5.032  0.0699  0.2090 -0.0428
 9020W        W25154   9.436  11.944  10.740  0.0583  0.2212 -0.1034
 9021W        W25155   5.811   6.673  11.479  0.0189 -0.2564 -0.1522
 9022W        W25156  15.514   1.892  14.850 -0.0246 -0.5246 -0.0237
 9023W        W25157  12.632  15.388  10.761 -0.0179 -0.3012  0.2311
 9024W        W25158  15.987  16.335  16.322  0.0590  0.0310 -0.1024
 9025W        W25159  12.068   2.482  16.221 -0.3453  0.0053 -0.0567
 9026W        W25160   6.929  15.907   4.890 -0.1440  0.5345  0.2182
 9027W        W25161  17.447  12.606  15.728  0.1972 -0.0812 -0.0174
 9028W        W25162  17.148  10.893  13.418 -0.4013 -0.1301 -0.1508
 9029W        W25163   5.717  12.788   5.578 -0.2664 -0.0281 -0.2456
 9030W        W25164   9.348  16.154  13.921 -0.1900 -0.1041  0.1669
 9031W        W25165   8.151   5.093  15.793  0.0206 -0.0577 -0.2108
 9032W        W25166  11.935   6.539  15.408  0.1663  0.0058 -0.0501
 9033W        W25167   5.474  13.654  15.289  0.0679 -0.0562 -0.1268
 9034W        W25168   6.783   2.097   4.145 -0.2773  0.0163 -0.0607
 9035W        W25169  16.417   3.292  15.334 -0.1436 -0.0148 -0.0630
 9036W        W25170  14.274   1.085  16.411 -0.1244  0.2773 -0.1890
 9037W        W25171   6.215   6.152   4.986 -0.1588  0.2616  0.1262
 9038W        W25172  13.713  13.398  16.249  0.0134 -0.0278  0.1877
 9039W        W25173  15.336  15.238  13.127 -0.1310  0.4332 -0.1559
 9040W        W25174   8.121  13.975  14.008 -0.0378  0.3218 -0.2506
 9041W        W25175   5.388   6.242  12.574  0.1685  0.0240  0.0173
 9042W        W25176   6.884  14.736  10.168 -0.1286 -0.0775 -0.2739
 9043W        W25177   5.311   5.902  12.975  0.0824  0.0703 -0.1086
 9044W        W25178   6.726  13.671   1.671  0.0408  0.2755  0.2844
 9045W        W25179   2.506  11.931  16.310 -0.1848 -0.1992 -0.0320
 9046W        W25180   1.390  16.285  13.483 -0.4295 -0.1964  0.0936
 9047W        W25181  16.916  17.586  15.314  0.1296 -0.0429 -0.0714
 9048W        W25182  11.665  10.853   4.466 -0.1122  0.1455 -0.0746
 9049W        W25183   9.092   7.483   3.398  0.0895  0.2475 -0.0055
 9050W        W25184   7.549   3.474   1.200  0.3848  0.1154 -0.0591
 9051W        W25185  15.889   0.698  14.013 -0.0792 -0.2352 -0.5087
 9052W        W25186  15.266   6.186   5.140 -0.1205  0.0751 -0.1545
 9053W        W25187  16.004   0.692  11.299 -0.0607 -0.0674  0.0467
 9054W        W25188   0.142  11.406  13.464 -0.0060 -0.1421  0.1134
 9055W        W25189   6.075   1.876  11.438 -0.1796  0.1950  0.2668
 9056W        W25190   6.530   1.451  12.082  0.4444  0.2680  0.2853
 9057W        W25191  15.351  16.567  14.730  0.2422  0.0243 -0.0549
 9058W        W25192   2.537  17.247   5.724 -0.1807  0.0073  0.0142
 9059W        W25193   9.056   6.873  14.576  0.0117  0.1598  0.2367
 9060W        W25194   1.933   7.760  14.353  0.1440  0.4316  0.2022
 9061W        W25195   4.901  14.426   2.506  0.1448 -0.1306  0.0480
 9062W        W25196   0.884   7.089   2.431 -0.1992  0.1000  0.1074
 9063W        W25197  15.117   8.808   4.811 -0.2682 -0.1438  0.0208
 9064W        W25198  15.324   5.056   0.076  0.3473 -0.2281  0.2106
 9065W        W25199   3.458   0.891  13.510  0.0167  0.1010 -0.1534
 9066W        W25200   5.685  11.193  13.726  0.2583 -0.0179 -0.2398
 9067W        W25201  12.456  13.012  11.358  0.1244  0.1793  0.1775
 9068W        W25202  14.182  11.977   2.818  0.5211  0.4356 -0.0895
 9069W        W25203   7.617   0.601  13.374 -0.1351  0.1859 -0.1472
 9070W        W25204   6.893   5.346   3.796 -0.2500  0.0847 -0.1957
 9071W        W25205  17.375   3.884   3.685 -0.0047  0.2347 -0.0591
 9072W        W25206  17.856  15.604  14.317  0.0270 -0.1449  0.3106
 9073W        W25207   4.821   0.785   2.193  0.0320 -0.3714  0.1024
 9074W        W25208   5.393   9.865   3.170 -0.0671  0.2506 -0.0689
 9075W        W25209   2.240   8.524   3.804  0.0944 -0.1593  0.0905
 9076W        W25210   8.395  11.946   0.559 -0.0493 -0.0369  0.2661
 9077W        W25211  15.190  11.469  11.997  0.0217 -0.0381 -0.5068
 9078W        W25212  16.497  10.335  12.307 -0.0453  0.0700  0.4350
 9079W        W25213  14.713  16.562  12.635  0.2024  0.3737 -0.0627
 9080W        W25214  16.664  16.047  16.056  0.0143 -0.0623 -0.1414
 9081W        W25215   8.837   5.684   0.157  0.1341 -0.3786  0.0311
 9082W        W25216   8.410   1.247  15.264 -0.1385  0.0726  0.1135
 9083W        W25217   4.966  14.103  11.129  0.1134 -0.0416  0.1159
 9084W        W25218   3.988   4.173   3.667 -0.1896  0.0584  0.2353
 9085W        W25219   8.334   8.799   3.357 -0.1872 -0.1636  0.0070
 9086W        W25220   6.401   4.551   4.213 -0.1950  0.1293  0.0743
 9087W        W25221   5.731  11.924  16.346 -0.0652  0.2157 -0.3305
 9088W        W25222   6.437  12.761  12.691 -0.0135  0.0752 -0.3243
 9089W        W25223   3.532   7.836  11.356 -0.1160 -0.0968  0.4598
 9090W        W25224  16.071  17.488  11.426 -0.1301  0.0874  0.4028
 9091W        W25225   0.730   1.171   6.108  0.1670 -0.0852 -0.0362
 9092W        W25226   9.819  14.440  11.605  0.2843  0.1940 -0.0175
 9093W        W25227   5.524   2.075   2.958 -0.0115  0.0587 -0.1603
 9094W        W25228  10.513  12.885  13.568  0.1272 -0.2764  0.4768
 9095W        W25229  14.324   6.231  12.642 -0.1938 -0.4562  0.1214
 9096W        W25230   4.654  10.239   3.071  0.1095 -0.2444  0.2372
 9097W        W25231  10.362   0.093   5.172 -0.2999  0.1277 -0.2077
 9098W        W25232  12.495  13.462  12.709  0.3232  0.1644  0.1753
 9099W        W25233   9.206  17.800   4.690  0.0401 -0.0343  0.3851
 9100W        W25234   7.461   2.646   4.273  0.0169 -0.0706  0.1186
 9101W        W25235   8.793   1.366   3.358 -0.0324  0.2909  0.0959
 9102W        W25236  15.463  10.495  13.922  0.1252 -0.1835 -0.0348
 9103W        W25237   2.281   0.021   3.425 -0.2042 -0.3351 -0.2203
 9104W        W25238  15.296  11.935  13.376  0.1104 -0.0061 -0.0226
 9105W        W25239  17.034  13.789   3.585 -0.1710  0.2110 -0.1356
 9106W        W25240  17.166   8.296  13.282 -0.2956  0.0601 -0.0863
 9107W        W25241   1.317   3.082   2.699 -0.0443 -0.1233  0.1108
 9108W        W25242  12.351   5.563   3.852 -0.1710  0.2366  0.1354
 9109W        W25243   9.401  15.667   0.533  0.0423 -0.2346 -0.2770
 9110W        W25244   9.581   7.489   3.131 -0.2687 -0.1715 -0.1118
 9111W        W25245   0.604  13.978  15.929  0.0925 -0.1180 -0.0150
 9112W        W25246  12.431   3.265   0.316 -0.2029  0.1122 -0.2845
 9113W        W25247  14.590  10.098   3.215  0.1658  0.0050 -0.2388
 9114W        W25248   5.324   4.618  16.361 -0.0569  0.0170  0.3910
 9115W        W25249   1.220   6.065  11.347  0.0477 -0.0405  0.2633
 9116W        W25250   8.513  10.643   2.573 -0.1161  0.4197  0.1711
 9117W        W25251   1.989   9.883  11.486  0.0482  0.1517  0.1634
 9118W        W25252   0.829  10.405   2.580 -0.1550 -0.0515 -0.2590
 9119W        W25253   5.175   9.532   0.718 -0.0384 -0.0624  0.2850
 9120W        W25254   1.689   7.009   4.552 -0.0998  0.1276  0.0804
 9121W        W25255  12.761  16.284   4.989 -0.0968 -0.2792  0.1229
 9122W        W25256   8.749  16.125  15.037  0.0924  0.0087 -0.3705
 9123W        W25257  17.441  10.044  13.989  0.0405 -0.1934  0.0990
 9124W        W25258  12.312   3.218  11.060  0.1961 -0.1286 -0.1167
 9125W        W25259   3.961   8.416  15.119  0.0507 -0.2167  0.1782
 9126W        W25260  14.688   0.228  13.650 -0.0762  0.3343 -0.1998
 9127W        W25261   0.805  14.937   3.251 -0.0472  0.2042 -0.0572
 9128W        W25262   4.032  12.615   1.643  0.1268  0.2552 -0.2595
 9129W        W25263   0.714   7.270   5.086 -0.0444  0.1026  0.0754
 9130W        W25264   8.905  10.451   0.774  0.2126 -0.3514 -0.1378
 9131W        W25265  11.355   4.964   3.671 -0.0539 -0.0683  0.0103
 9132W        W25266   5.831   9.917   1.846 -0.1051 -0.4276 -0.1381
 9133W        W25267  12.770  10.371  11.500  0.2661 -0.1529 -0.0563
 9134W        W25268   4.351   0.046   4.949 -0.2887  0.0437  0.0611
 9135W        W25269   2.956   9.778  14.641  0.1642  0.1187 -0.1415
 9136W        W25270  12.682   4.850  13.079  0.1685 -0.2794 -0.1807
 9137W        W25271  15.300  11.333   3.114 -0.0145 -0.0997 -0.0439
 9138W        W25272   8.823   6.308   2.000  0.0909  0.1248 -0.0171
 9139W        W25273  15.940  15.734  11.894 -0.0212 -0.0294 -0.2235
 9140W        W25274  11.219  12.730   5.694 -0.0855  0.0389  0.0581
 9141W        W25275  12.309   7.282  14.411 -0.1324 -0.0160 -0.1254
 9142W        W25276  14.585  10.678   0.335  0.0698 -0.3631 -0.0492
 9143W        W25277   7.649   4.747  13.615  0.1833  0.2847 -0.2386
 9144W        W25278   6.346   6.279   2.140  0.4681  0.2608 -0.1547
 9145W        W25279  13.182  18.067   1.392 -0.1044 -0.1959 -0.0499
 9146W        W25280  10.463   2.622  10.490  0.0614 -0.1876  0.1609
 9147W        W25281  14.130  13.004  14.583 -0.0936  0.0439  0.1469
 9148W        W25282  12.945  14.641  13.220 -0.0747  0.1733  0.2418
 9149W        W25283   9.975  15.615  14.994 -0.2648  0.2700 -0.3050
 9150W        W25284   6.130  15.654   0.511 -0.1799  0.0074  0.0686
 9151W        W25285   0.441   8.228   5.091 -0.3372 -0.1453  0.2259
 9152W        W25286  16.987  10.259  14.857 -0.0806  0.2128 -0.0054
 9153W        W25287  16.185   8.923   4.869  0.1861 -0.0916 -0.1091
 9154W        W25288  12.711   3.395   2.553 -0.0390 -0.2717  0.0495
 9155W        W25289   8.061   7.248   4.575  0.1528  0.0433  0.1790
 9156W        W25290  14.328   9.785   4.657 -0.0961 -0.2255 -0.1253
 9157W        W25291   1.026  17.341  12.366 -0.2635 -0.2836  0.1147
 9158W        W25292  16.732  11.158   0.207  0.2795  0.0420 -0.2006
 9159W        W25293   1.348  15.359   4.536  0.3070 -0.0279 -0.0338
 9160W        W25294   9.923   7.129  15.860 -0.2064  0.1114  0.1585
 9161W        W25295  17.767  16.548  14.415 -0.0561 -0.0741  0.1325
 9162W        W25296   7.152  12.337   4.694 -0.0600 -0.1190 -0.0566
 9163W        W25297  13.566   6.168  12.287  0.0757  0.0960  0.2986
 9164W        W25298   8.922  11.869  10.887  0.0055 -0.1752 -0.1027
 9165W        W25299   3.003   8.720   0.320  0.0395  0.3405 -0.0776
 9166W        W25300  11.255   9.126  15.746 -0.2190  0.1650 -0.4704
 9167W        W25301   3.213   3.202   2.988  0.0708 -0.1289 -0.1966
 9168W        W25302  12.078  17.245  14.940 -0.1256 -0.2728  0.1589
 9169W        W25303   7.138   7.942   5.179 -0.0224 -0.2863 -0.0246
 9170W        W25304  10.057   3.372   1.441  0.2106 -0.0959  0.0363
 9171W        W25305   8.541   6.854   4.769 -0.3512  0.0323 -0.0527
 9172W        W25306  13.669  17.252  13.209 -0.1853  0.0661  0.0204
 9173W        W25307   3.706  14.087  15.808  0.2143  0.0943  0.1947
 9174W        W25308  12.561   7.606  14.811  0.0548  0.0242 -0.0604
 9175W        W25309   1.861   9.836  14.061  0.0148  0.1164  0.0485
 9176W        W25310  17.298  13.299  13.610 -0.0554  0.1512 -0.0426
 9177W        W25311   7.892   1.791  16.013 -0.0583 -0.2269  0.1692
 9178W        W25312  14.846  10.854   4.134 -0.1249  0.0843 -0.3286
 9179W        W25313   5.175   6.088  11.595 -0.0656 -0.1485 -0.2034
 9180W        W25314   0.461  13.861  14.448  0.0372 -0.0017  0.0754
 9181W        W25315   0.005   0.806  13.524  0.1772 -0.0238 -0.0010
 9182W        W25316   9.718   7.100   1.893 -0.2273  0.0534  0.0820
 9183W        W25317  13.716   1.784  12.193 -0.0243 -0.0723  0.1839
 9184W        W25318  15.307  12.271   2.060  0.3478 -0.0724  0.0621
 9185W        W25319   3.323   1.498  10.781  0.0559  0.0290 -0.0258
 9186W        W25320  11.317  15.125  12.047  0.2469  0.0615 -0.0954
 9187W        W25321  15.503  14.093   3.183  0.1731 -0.1067 -0.1231
 9188W        W25322  17.123   3.904  12.971 -0.0856 -0.0174 -0.0846
 9189W        W25323   7.839   5.525  10.566  0.0823 -0.1257  0.2496
 9190W        W25324  10.746   9.793   4.337  0.0874 -0.1602  0.1068
 9191W        W25325   5.824  11.493  12.690  0.0723  0.1184 -0.2529
 9192W        W25326   2.368   9.461   0.398 -0.1398 -0.0156  0.1929
 9193W        W25327   1.702  11.094  12.963  0.0705  0.2578 -0.1728
 9194W        W25328  15.915   2.873  13.057  0.1100 -0.0685 -0.0096
 9195W        W25329  13.833   5.126  14.487 -0.1943 -0.2011 -0.2119
 9196W        W25330   5.270  14.178  13.939 -0.1996 -0.1829  0.2809
 9197W        W25331  17.106  11.096  12.619 -0.2427 -0.1620  0.0336
 9198W        W25332   0.842   9.126   0.673  0.0499  0.1813 -0.1919
 9199W        W25333   7.321  13.773   5.619  0.1562 -0.1015  0.0029
 9200W        W25334  17.647   8.316   5.038  0.0235 -0.0307  0.0028
 9201W        W25335  12.340   2.243   0.393  0.3376 -0.1425 -0.0871
 9202W        W25336   2.223  14.623  14.129  0.1157  0.2102 -0.0336
 9203W        W25337  14.963  11.089   3.407  0.1718  0.2138 -0.1238
 9204W        W25338  15.991   2.785  13.875 -0.0294 -0.0233  0.0083
 9205W        W25339  10.079  12.898   5.906 -0.2425 -0.0702  0.1264
 9206W        W25340   5.204  11.715   0.770  0.1856  0.0498  0.3112
 9207W        W25341   5.536  11.403   3.634 -0.0133  0.0872 -0.0011
 9208W        W25342  11.579   8.955  14.535 -0.3045  0.0858  0.1120
 9209W        W25343  12.157  13.580  11.971  0.1784  0.0273 -0.1950
 9210W        W25344  17.299  16.540  14.679 -0.1821  0.0053 -0.0690
 9211W        W25345  11.262   9.387  12.554 -0.0422  0.3668  0.0988
 9212W        W25346   6.227   0.212   5.000 -0.0103  0.0723  0.1029
 9213W        W25347  13.112   1.690  10.383 -0.0809  0.0793  0.2348
 9214W        W25348   5.566   4.275   1.275  0.2468  0.0591 -0.1061
 9215W        W25349  15.228   1.452   1.058 -0.0201 -0.1458 -0.3028
 9216W        W25350   4.169   9.219   0.331 -0.1269  0.3112  0.1262
 9217W        W25351  10.844  12.037  13.430  0.4757  0.2129 -0.1718
 9218W        W25352  14.731  16.702  16.088  0.0716 -0.0639  0.0449
 9219W        W25353   9.408   7.831   2.737  0.0565 -0.1924 -0.1043
 9220W        W25354   5.668  16.421  16.375  0.1015 -0.1813 -0.2743
 9221W        W25355   4.942  13.540  12.190 -0.1198 -0.0070  0.0813
 9222W        W25356   2.966   5.702   2.180  0.1231  0.0043 -0.1973
 9223W        W25357  13.276   5.070  10.429  0.2901  0.1095  0.1662
 9224W        W25358  17.736  13.459   1.595 -0.0388 -0.0390 -0.0890
 9225W        W25359  13.860   1.648   0.483  0.3158 -0.0335  0.1369
 9226W        W25360   1.758   5.086   2.337 -0.1889 -0.3909 -0.3457
 9227W        W25361   9.249   5.329   2.929 -0.1052 -0.1847 -0.4195
 9228W        W25362   1.768   3.416  11.435  0.0991  0.0368  0.5392
 9229W        W25363  17.701   9.986  15.885 -0.2527  0.1896 -0.0695
 9230W        W25364  10.759  13.625   0.595 -0.0013  0.1734 -0.0898
 9231W        W25365  11.894  12.539  15.718  0.0295  0.0063 -0.0467
 9232W        W25366   1.769  10.095   0.853  0.1282  0.0970 -0.0555
 9233W        W25367   6.712  11.466  13.444  0.1877  0.2190  0.0913
 9234W        W25368   5.339   7.618  13.967  0.0716  0.3343 -0.3082
 9235W        W25369   2.294   5.034  15.911  0.2703 -0.0895  0.0450
 9236W        W25370   6.417  12.192   0.555  0.3054  0.0715 -0.1178
 9237W        W25371  13.437   7.230  15.063  0.1829 -0.1144  0.0596
 9238W        W25372   3.646  17.154  15.141  0.2489 -0.1828  0.0582
 9239W        W25373  16.511   0.441  16.015  0.1147  0.0768  0.1258
 9240W        W25374   9.204  13.047  12.055 -0.0145 -0.0152 -0.0448
 9241W        W25375  13.613   7.787  14.219 -0.1277  0.1862  0.0610
 9242W        W25376   0.134   7.214   3.335 -0.2005  0.0313 -0.3968
 9243W        W25377   1.116  17.172  13.857  0.2663 -0.0450  0.5898
 9244W        W25378  17.036   2.229  14.341  0.2979 -0.0724  0.1565
 9245W        W25379   1.649   2.644   3.811  0.1961  0.1836 -0.1955
 9246W        W25380   4.620  12.096   2.041 -0.0258 -0.0144 -0.0967
 9247W        W25381  17.217  10.028  16.040  0.0885 -0.0087 -0.0121
 9248W        W25382  15.673  15.274  11.842 -0.3674 -0.1969 -0.1338
 9249W        W25383   3.608  17.877  15.937 -0.2956 -0.1605  0.0652
 9250W        W25384  14.646   5.220   2.992 -0.1820 -0.1641 -0.1470
 9251W        W25385  15.181   7.871   3.105 -0.1579  0.0709  0.0195
 9252W        W25386  12.270   6.951  16.187  0.2114  0.2051 -0.5060
 9253W        W25387  13.732  17.239  13.758  0.0072  0.2606  0.1517
 9254W        W25388  14.842   1.417   4.691 -0.0610  0.1261 -0.0399
 9255W        W25389   9.140   1.498   1.020  0.0693  0.1918  0.2105
 9256W        W25390  13.809   2.045   0.147 -0.0430 -0.0548  0.0379
 9257W        W25391  14.044   8.752  16.284 -0.2680 -0.1674 -0.0208
 9258W        W25392  10.163  13.319   4.007  0.1574 -0.0542 -0.0474
 9259W        W25393  16.173  12.477  13.351  0.1617  0.2448 -0.1608
 9260W        W25394   6.328   6.276  15.308 -0.1194  0.2648  0.1762
 9261W        W25395  14.149  12.528   1.394  0.1105 -0.1095  0.0623
 9262W        W25396  11.448  15.248   2.334 -0.0909 -0.1636  0.2256
 9263W        W25397  15.298  16.581   2.012 -0.1712  0.0509  0.0594
 9264W        W25398   2.599  16.026  14.268 -0.1269  0.0660 -0.0258
 9265W        W25399  11.971  17.337  12.396 -0.2402  0.1027 -0.1638
 9266W        W25400  10.204   4.575  15.001 -0.1072 -0.1046 -0.2590
 9267W        W25401   5.890  11.929   3.189 -0.1087  0.1555 -0.2207
 9268W        W25402  17.136  11.322  13.117  0.0491  0.2305 -0.0367
 9269W        W25403  12.441   1.161   3.020 -0.0546 -0.1395  0.1217
 9270W        W25404  15.658   6.120  11.101  0.3095 -0.0524  0.1422
 9271W        W25405   9.811  16.473  11.852  0.0309 -0.0008 -0.2716
 9272W        W25406  16.965  10.937   0.780  0.0627 -0.0660  0.0853
 9273W        W25407   6.623   3.476   5.510 -0.0690 -0.0275  0.1181
 9274W        W25408  11.319  10.571   1.235  0.1805 -0.0519 -0.0045
 9275W        W25409  12.546  13.123  15.236 -0.1132  0.1509  0.0229
 9276W        W25410   8.546  15.828  16.302  0.0643  0.0445  0.2020
 9277W        W25411   9.447   8.353   5.229  0.0887  0.2034 -0.2518
 9278W        W25412   5.060   1.013   2.868 -0.0552 -0.1408 -0.3110
 9279W        W25413  15.977  13.013  11.289 -0.0937 -0.0115 -0.0136
 9280W        W25414  12.992   8.260   2.203  0.0445  0.0085 -0.0783
 9281W        W25415  17.320  12.531  10.945  0.0176  0.1917  0.0113
 9282W        W25416  14.638   4.252   1.556  0.0635  0.0220 -0.0960
 9283W        W25417   8.263   3.197  11.931  0.3453 -0.0023  0.0705
 9284W        W25418   1.250  12.798  15.428 -0.0838  0.1596  0.0349
 9285W        W25419  11.452  11.766   4.177  0.0628 -0.1470 -0.3346
 9286W        W25420   3.423   1.516   6.041 -0.1360 -0.0845 -0.6086
 9287W        W25421  14.089   6.304  10.767 -0.0843  0.0996 -0.0308
 9288W        W25422   4.302   4.978   0.360  0.0174  0.0264  0.1722
 9289W        W25423   6.497   3.190   3.295 -0.1545 -0.2102 -0.0256
 9290W        W25424  10.646   8.238   1.415 -0.2183  0.1141 -0.4667
 9291W        W25425  17.351  13.184   5.028  0.0722 -0.1807  0.1331
 9292W        W25426   8.803   2.050   1.464 -0.0510 -0.3013 -0.3911
 9293W        W25427  15.655   6.090   5.853 -0.1803 -0.1323 -0.0134
 9294W        W25428  10.114   1.614  13.641 -0.2354  0.1902 -0.0233
 9295W        W25429   5.344  16.959  14.409  0.0917  0.1155  0.1008
 9296W        W25430   3.636   4.574  15.320 -0.0184 -0.0281 -0.5251
 9297W        W25431   6.399  15.717   4.937 -0.0356 -0.0680  0.2079
 9298W        W25432  13.327   7.056   0.025  0.1184 -0.2956 -0.2781
 9299W        W25433  12.408   5.446   0.774 -0.0064  0.1596 -0.0878
 9300W        W25434  15.273   2.107  12.340  0.2947 -0.1246 -0.0654
 9301W        W25435   7.750  13.519   0.505 -0.0953  0.3347  0.0790
 9302W        W25436  17.866  12.639   3.490  0.2844  0.1297 -0.1133
 9303W        W25437   2.659   9.058   0.265  0.2089 -0.2391 -0.0906
 9304W        W25438  12.038  14.147   1.075 -0.1252 -0.0519 -0.1130
 9305W        W25439  10.016   5.666   4.805 -0.0255  0.5329 -0.2791
 9306W        W25440  14.726  15.416  10.728  0.0767  0.0474 -0.0675
 9307W        W25441  15.986   0.289  12.490 -0.0748 -0.0481 -0.1460
 9308W        W25442   7.332   1.739  10.892  0.0712  0.1674 -0.3474
 9309W        W25443   4.422   9.560  14.905  0.0318 -0.0523 -0.5363
 9310W        W25444   1.683  13.469  13.249  0.3898  0.0534 -0.0538
 9311W        W25445   4.963   3.929  15.030 -0.0185 -0.1455  0.3279
 9312W        W25446   2.466   9.996  11.136 -0.2049 -0.0601 -0.1174
 9313W        W25447   0.126  15.646  10.862  0.1916  0.0160 -0.2598
 9314W        W25448  13.728  10.618  10.430 -0.0502 -0.0852  0.1449
 9315W        W25449  15.509   1.174   4.420 -0.0553 -0.1087  0.1108
 9316W        W25450  15.051   4.210   0.797 -0.2080 -0.1008  0.0434
 9317W        W25451  12.320   1.381  11.696  0.0551 -0.0802  0.1836
 9318W        W25452  16.033   6.276   0.945 -0.1433 -0.1501 -0.0361
 9319W        W25453   7.961  11.960   1.429 -0.0749 -0.2444  0.4774
 9320W        W25454   6.001   9.340  14.778 -0.1635 -0.3000  0.0264
 9321W        W25455   1.006   8.259  13.755 -0.1234 -0.1374 -0.2766
 9322W        W25456   6.535   1.545   2.164  0.1080  0.2080  0.0286
 9323W        W25457   6.359   6.593   2.565 -0.2184  0.0283 -0.2361
 9324W        W25458  15.757  17.867  12.178  0.2132  0.2095  0.1578
 9325W        W25459   3.619   0.121   2.773 -0.2566 -0.0471  0.0498
 9326W        W25460   3.278   5.313   2.285  0.1123 -0.3151  0.0038
 9327W        W25461   7.631   5.134   2.870  0.1552  0.1042 -0.2817
 9328W        W25462  11.494   8.179   1.566 -0.1293  0.1416 -0.0737
 9329W        W25463   9.887  15.291   0.603  0.0911 -0.2347  0.1088
 9330W        W25464   8.516  16.529   4.217 -0.0187 -0.0046 -0.2089
 9331W        W25465  10.615   7.547  10.627  0.2553 -0.0460 -0.1150
 9332W        W25466  12.505   9.247  12.357  0.0314  0.2099  0.0067
 9333W        W25467   4.753   7.977  13.409  0.0188 -0.1314 -0.3349
 9334W        W25468  11.296  17.069  14.055  0.0215 -0.1717  0.0673
 9335W        W25469   9.761  15.250   1.618 -0.0873  0.0119  0.3784
 9336W        W25470   8.483   4.907   2.974 -0.0244 -0.1361 -0.1329
 9337W        W25471   8.939   8.193   2.992  0.1804  0.0560  0.1495
 9338W        W25472  10.680  12.587  11.364  0.2628 -0.1622 -0.1544
 9339W        W25473   2.324  12.971   2.925  0.0869  0.0665 -0.0022
 9340W        W25474   6.543  17.030  10.728 -0.0545 -0.2233 -0.2007
 9341W        W25475   9.522  17.963  15.295 -0.1116 -0.0914 -0.0856
 9342W        W25476   1.270   2.145   2.659  0.2034  0.0209 -0.0675
 9343W        W25477  10.290   9.042  16.351 -0.0561 -0.0732  0.3697
 9344W        W25478  17.375   8.243   3.761 -0.2313 -0.5698 -0.0852
 9345W        W25479   5.198   0.492   0.153  0.0984 -0.0045 -0.0394
 9346W        W25480   4.384   4.461   3.385  0.3780 -0.0972 -0.0184
 9347W        W25481   1.550  11.849   4.608  0.0744 -0.0164 -0.2806
 9348W        W25482  11.848  17.104  11.104  0.0130  0.0159 -0.1878
 9349W        W25483   6.346   0.263   1.996 -0.0192  0.2155  0.0260
 9350W        W25484   0.330  14.083   1.645 -0.1590  0.0032 -0.3480
 9351W        W25485   3.175   0.485   4.646  0.1259 -0.0340  0.1464
 9352W        W25486   9.738   4.997  16.234  0.0529 -0.0962  0.0813
 9353W        W25487  16.428  11.056   4.938 -0.0382  0.1041  0.3166
 9354W        W25488   4.686  12.478  13.257  0.0463  0.1432 -0.2968
 9355W        W25489  10.619   2.824   0.944 -0.1219 -0.3842  0.1456
 9356W        W25490   2.658   3.374  14.988  0.3504 -0.2558 -0.0578
 9357W        W25491   6.940   3.624  14.314 -0.0932  0.3042 -0.1593
 9358W        W25492  12.549  11.602   0.145  0.1360  0.1016 -0.0212
 9359W        W25493   9.660   5.211  11.997 -0.2400 -0.2137 -0.1738
 9360W        W25494  15.444   0.818   4.788  0.6347 -0.1963 -0.0144
 9361W        W25495  16.742   4.451   5.375  0.0653 -0.1984 -0.0106
 9362W        W25496  15.085  15.013  15.622 -0.3025  0.1052  0.0039
 9363W        W25497  16.501   3.591   2.405  0.0926 -0.1316  0.1766
 9364W        W25498  15.119  10.697  11.110 -0.0793  0.0761 -0.3051
 9365W        W25499   8.118   8.839   0.439  0.1523  0.0747  0.0453
 9366W        W25500  13.247  17.493   2.869  0.1844  0.2194  0.3963
 9367W        W25501   0.635   9.031   2.236 -0.0745  0.1080 -0.2593
 9368W        W25502   5.636  11.187  15.299 -0.2070  0.3359 -0.2073
 9369W        W25503  16.829  13.511  11.825  0.2020 -0.0220 -0.0614
 9370W        W25504   2.403  12.320   3.250  0.0536  0.0420  0.0611
 9371W        W25505  10.479   7.571  12.112  0.1315 -0.3744 -0.3962
 9372W        W25506  14.020   5.959   5.103 -0.2159  0.2912 -0.2025
 9373W        W25507   4.960  11.829  10.644 -0.2166  0.2560 -0.4373
 9374W        W25508  12.996  16.949  15.219 -0.1201  0.2968  0.1528
 9375W        W25509   3.444   9.043   2.448 -0.2557  0.2606 -0.0982
 9376W        W25510   6.281   3.747  12.288  0.1957  0.0113 -0.0202
 9377W        W25511   3.035   8.032  15.405 -0.3256 -0.0918  0.3641
 9378W        W25512  11.978   2.750   3.957 -0.0956 -0.1185 -0.0133
 9379W        W25513   8.358   7.251  11.801 -0.0550  0.2313 -0.0988
 9380W        W25514   6.941  16.612   0.156 -0.0490 -0.0249  0.2041
 9381W        W25515   5.855   0.653  12.636 -0.2410  0.3954 -0.1487
 9382W        W25516   8.624  17.752  12.629  0.0702  0.2073  0.5138
 9383W        W25517  14.124   2.406   0.197  0.2379  0.0588  0.0409
 9384W        W25518  10.464  15.428  14.923 -0.0186  0.0010 -0.0892
 9385W        W25519  13.732   6.769  12.194 -0.0720  0.1393  0.3820
 9386W        W25520   0.424   7.672   4.021 -0.1874 -0.0072 -0.1354
 9387W        W25521  16.619   1.560  11.448 -0.0618 -0.1432  0.1824
 9388W        W25522   4.072  17.533   4.471 -0.2260  0.0063 -0.2370
 9389W        W25523  16.115   3.820   9.632  0.0572  0.1274 -0.1917
 9390W        W25524  12.460   9.012  11.465  0.1106 -0.2358 -0.1806
 9391W        W25525   6.842   0.179  13.469 -0.1134 -0.0905  0.2368
 9392W        W25526   0.537   9.570   5.507  0.0693  0.1302  0.1497
 9393W        W25527  17.360  11.404  13.593  0.2769 -0.2773 -0.0046
 9394W        W25528   3.465  12.336   1.153  0.0163 -0.0353  0.0551
 9395W        W25529   0.775  16.275   6.100  0.1351  0.2675  0.0389
 9396W        W25530   1.373   6.241   3.720 -0.3214 -0.4086  0.2214
 9397W        W25531   4.187  14.897   3.956  0.3332 -0.1304 -0.0662
 9398W        W25532  13.042  11.644   0.326 -0.0880  0.5146  0.2298
 9399W        W25533  10.158   0.495  15.979  0.2836 -0.0604  0.0442
 9400W        W25534  12.287   2.631   2.018 -0.5523  0.4037 -0.3190
 9401W        W25535   0.839   5.392   0.995 -0.2283 -0.0414  0.0646
 9402W        W25536   9.150  15.859   1.420 -0.3916  0.1639  0.1671
 9403W        W25537   7.672  17.861   5.395 -0.1364 -0.3579 -0.0479
 9404W        W25538  10.899   8.770   6.059 -0.0135  0.0356  0.0313
 9405W        W25539   2.618   9.631   3.818  0.0230  0.0695 -0.0162
 9406W        W25540   9.028   6.673   3.872  0.1490 -0.1848 -0.0227
 9407W        W25541   1.263  16.241   0.568  0.1704  0.4373  0.0795
 9408W        W25542   9.235   5.787  14.179 -0.0505 -0.2292 -0.0810
 9409W        W25543  16.452  12.745   2.689  0.3235  0.1125  0.0376
 9410W        W25544  12.992  10.681  13.192  0.1876  0.1050  0.1714
 9411W        W25545  15.186   7.550   0.895 -0.1969  0.0100 -0.0083
 9412W        W25546   7.545  10.540   5.991  0.1332  0.0656  0.0725
 9413W        W25547  16.615   7.307  13.152 -0.2110 -0.0059 -0.1539
 9414W        W25548  14.573  12.184   1.455  0.1050  0.0166  0.2020
 9415W        W25549   9.951   1.790  10.297 -0.1398 -0.0582 -0.0450
 9416W        W25550   1.057  16.936  14.804  0.1399 -0.0274 -0.1097
 9417W        W25551   0.200   4.815   4.027  0.1060  0.2128 -0.0367
 9418W        W25552  13.096   6.037  12.414 -0.1699  0.2207  0.0812
 9419W        W25553   8.183   2.980   2.448  0.1716 -0.1227 -0.4150
 9420W        W25554   6.916  11.245  11.658  0.4491  0.3155 -0.0284
 9421W        W25555  17.746   5.974   4.293 -0.0243  0.0495  0.0773
 9422W        W25556   2.989  10.210  15.872  0.0111 -0.1112  0.0183
 9423W        W25557   0.659  15.394  12.524 -0.1272  0.1857  0.2264
 9424W        W25558  11.820  16.310  12.481 -0.1622  0.2148 -0.1260
 9425W        W25559   2.863  15.214  15.699 -0.1919  0.0732  0.1366
 9426W        W25560  11.955  10.250   4.224  0.1033 -0.1440  0.1323
 9427W        W25561  16.955  17.974   4.262 -0.0866 -0.0866 -0.2356
 9428W        W25562   8.351  11.630  12.077  0.1565  0.3538 -0.2656
 9429W        W25563   3.115  13.666  16.344  0.0742  0.0829 -0.4426
 9430W        W25564   3.876   4.415  11.145 -0.0106  0.1227 -0.0827
 9431W        W25565  11.901  17.795   0.130  0.0555  0.4133 -0.0189
 9432W        W25566   4.622   1.342   0.594  0.0575  0.0342  0.3781
 9433W        W25567   3.060   6.683  12.915 -0.2822  0.2400  0.0289
 9434W        W25568   3.898   3.290   2.425  0.0684  0.2410  0.0963
 9435W        W25569  12.958  17.556  11.007 -0.0250  0.0138  0.0789
 9436W        W25570   0.108   3.731   2.326 -0.1242 -0.0241 -0.0963
 9437W        W25571  15.314  10.292   3.143 -0.1401  0.4530  0.0448
 9438W        W25572   8.416   9.802   2.384  0.0412 -0.0873 -0.0268
 9439W        W25573  13.456   6.488   0.594 -0.2387 -0.1058 -0.2279
 9440W        W25574  10.665   4.868   0.393  0.0070  0.0194  0.0451
 9441W        W25575  13.832   5.607   4.819  0.1292  0.4934 -0.3374
 9442W        W25576   9.516  15.799  15.798 -0.0388 -0.2916 -0.1183
 9443W        W25577   2.652  10.787  12.071 -0.1125 -0.1903  0.1801
 9444W        W25578  11.628  12.090  15.125  0.0251  0.3173 -0.3221
 9445W        W25579  16.100   7.543   0.399 -0.1168 -0.1343 -0.1506
 9446W        W25580   2.579  15.813  15.603  0.2261  0.2061  0.4903
 9447W        W25581  11.339  11.500   2.483 -0.1297  0.0859  0.0924
 9448W        W25582   8.731   6.909  12.172  0.1664  0.0502 -0.0436
 9449W        W25583  12.956   3.285   0.258  0.1994 -0.1009  0.0427
 9450W        W25584  11.212  12.194  11.844  0.3868 -0.0344 -0.0367
 9451W        W25585  11.365   4.352   0.020  0.0027 -0.1197 -0.0058
 9452W        W25586  10.788   7.336  13.015 -0.1503 -0.0668  0.0931
 9453W        W25587  16.762  16.709  15.190  0.3026 -0.3062 -0.0085
 9454W        W25588   1.449  12.479  15.101 -0.1796 -0.0558 -0.1306
 9455W        W25589   9.120  12.847  13.424  0.0394  0.1504 -0.1120
 9456W        W25590   1.969   3.816   4.343 -0.0366  0.0894 -0.0696
 9457W        W25591  15.215  14.237   1.060  0.2748  0.2981 -0.0772
 9458W        W25592  12.465   3.587  14.685  0.0609  0.1180 -0.0799
 9459W        W25593   8.615  12.687   0.115  0.1243  0.0115 -0.1288
 9460W        W25594   3.396   1.397   4.417  0.1708  0.2118  0.1597
 9461W        W25595   8.673  15.155  14.672 -0.1133  0.2456  0.0850
 9462W        W25596  17.211  14.647   6.042 -0.1400 -0.0506 -0.0849
 9463W        W25597  13.013   2.359  16.312  0.0806  0.0590  0.3699
 9464W        W25598  11.905   9.376   2.305 -0.0813  0.2208 -0.3763
 9465W        W25599  17.796   8.123  13.431  0.0004  0.2390  0.0878
 9466W        W25600   2.507  13.762  12.390 -0.1745  0.1166  0.1138
 9467W        W25601  17.615   3.173  12.333 -0.0087 -0.1986 -0.1154
 9468W        W25602   9.851  17.951   5.011 -0.0619 -0.2622  0.2914
 9469W        W25603   0.099   4.823  11.866  0.0156 -0.3607 -0.0211
 9470W        W25604  17.071   6.803   4.456 -0.1559  0.0580 -0.1409
 9471W        W25605  10.773   7.379  14.185 -0.1281 -0.2294 -0.1309
 9472W        W25606   0.124   4.844   1.741 -0.1059 -0.2684  0.1086
 9473W        W25607  15.168   8.329  11.896 -0.0745 -0.0716  0.0269
 9474W        W25608  13.410   8.407   4.106  0.0081  0.0005  0.0985
 9475W        W25609  12.416   9.428  11.819 -0.0144  0.0691 -0.0319
 9476W        W25610   9.578  16.291  14.356  0.0044  0.1950 -0.2227
 9477W        W25611   0.319   8.040   5.588  0.2506 -0.2751  0.3465
 9478W        W25612  14.779  13.611  14.320  0.1029 -0.0988 -0.1650
 9479W        W25613  13.628   3.818  12.657  0.2103 -0.1924  0.0393
 9480W        W25614  13.429   3.677  10.690 -0.1275  0.2000 -0.1441
 9481W        W25615   7.679   7.189  13.688 -0.1452 -0.2260 -0.0562
 9482W        W25616   3.750   5.057   5.632 -0.1021 -0.1800  0.0934
 9483W        W25617  14.468   2.519  12.599  0.1286 -0.1231 -0.0616
 9484W        W25618  10.562  14.398  15.563 -0.2206  0.2143 -0.1787
 9485W        W25619   7.953   5.100   0.274  0.0137  0.2175  0.0388
 9486W        W25620  12.078  13.501   3.365  0.1258 -0.1117  0.0024
 9487W        W25621   4.599  15.409   3.304  0.0176 -0.0723  0.0290
 9488W        W25622   0.764  16.995  16.046 -0.0895  0.0445 -0.1114
 9489W        W25623   3.940   9.470   4.670  0.3658 -0.0106  0.2278
 9490W        W25624  16.075  13.606   5.682  0.2567 -0.0907  0.0345
 9491W        W25625   6.501  13.731  12.529  0.1713  0.0010 -0.1838
 9492W        W25626   1.042   3.147   4.740  0.1197 -0.2743  0.0351
 9493W        W25627  10.646  12.622   5.978  0.0179  0.0897 -0.2990
 9494W        W25628  12.229   8.815  15.907  0.1596 -0.1223  0.2156
 9495W        W25629   2.078  12.464  13.959 -0.1176 -0.1162 -0.1143
 9496W        W25630   1.226   1.448  11.666 -0.0331 -0.0975 -0.0559
 9497W        W25631  15.120   8.221  13.660 -0.1362 -0.2117 -0.4213
 9498W        W25632   8.006  16.693   0.822  0.0622  0.0560  0.0850
 9499W        W25633   5.979  11.141  11.762  0.0799 -0.1274  0.0716
 9500W        W25634  12.807   8.674   1.044 -0.0295  0.1140 -0.1726
 9501W        W25635  17.163   5.589   0.473  0.0576 -0.3215 -0.1111
 9502W        W25636   6.093   5.690   3.486 -0.0775  0.0195  0.0310
 9503W        W25637   8.792   8.867   5.885  0.3777  0.1130  0.2477
 9504W        W25638   4.442   1.761   5.415  0.4770  0.1411 -0.3123
 9505W        W25639  15.600   8.907   4.914  0.0868  0.0199  0.1320
 9506W        W25640  14.047   1.395  14.090 -0.0141  0.1739  0.1355
 9507W        W25641  16.272   6.079   2.489  0.0420 -0.0449 -0.0340
 9508W        W25642   6.325   3.641   3.114  0.0951 -0.0461 -0.1636
 9509W        W25643  14.307  11.526  14.874  0.1330 -0.1985 -0.2233
 9510W        W25644  11.127  13.937   1.934  0.1482 -0.1697 -0.1481
 9511W        W25645  16.429  10.823  12.108 -0.1427 -0.2384  0.0586
 9512W        W25646  13.344   5.224  14.323 -0.0372 -0.1818 -0.1959
 9513W        W25647  15.139   6.926   3.571  0.2253 -0.1203  0.0910
 9514W        W25648  16.305   2.868  15.061  0.0353  0.1256 -0.0583
 9515W        W25649   0.463   8.097  14.891 -0.1454  0.2745 -0.0521
 9516W        W25650   9.806  13.735  15.458  0.0195  0.0561  0.0444
 9517W        W25651   8.297   4.884  13.908  0.1610 -0.1579  0.1375
 9518W        W25652   7.003  11.696   3.461 -0.1760 -0.0822 -0.1661
 9519W        W25653   9.073  15.097  15.611 -0.2610 -0.1081 -0.0939
 9520W        W25654  10.017   8.933   2.469 -0.1411 -0.2015  0.0661
 9521W        W25655  11.062  16.255   0.009 -0.1942 -0.1054 -0.0645
 9522W        W25656  10.788   2.859   1.885  0.0831 -0.0834 -0.0269
 9523W        W25657   1.296  17.308  13.388  0.0079  0.0749  0.0554
 9524W        W25658   0.876   2.420   0.465 -0.0479  0.0762 -0.1066
 9525W        W25659  13.369  13.939  13.896  0.0510 -0.1563 -0.0427
 9526W        W25660  16.429  14.607   2.351  0.1110 -0.0545 -0.0751
 9527W        W25661  10.787   1.122  13.763  0.0064 -0.1623 -0.0421
 9528W        W25662  17.599  17.212  10.384 -0.0120  0.0945  0.0499
 9529W        W25663   9.364   5.972   3.281  0.1871 -0.4751  0.1684
 9530W        W25664  15.227   7.705  15.310 -0.1942 -0.4414 -0.1037
 9531W        W25665  16.540  17.611   1.607  0.0845 -0.0607  0.0141
 9532W        W25666   0.115  11.932  14.811  0.3642  0.0467 -0.3170
 9533W        W25667   3.183   8.704   2.831 -0.2560 -0.1209 -0.1168
 9534W        W25668  16.439  17.500   2.093  0.0821 -0.1165 -0.0590
 9535W        W25669  11.965  11.730  15.888 -0.1485  0.0612 -0.1933
 9536W        W25670  16.710  14.017   4.577 -0.0750 -0.0919 -0.3732
 9537W        W25671   5.089   8.425  14.213 -0.0886  0.0241  0.0525
 9538W        W25672   7.849  16.418   2.844  0.2465 -0.1426 -0.1155
 9539W        W25673   9.849   9.301   4.767  0.0044  0.3370  0.1142
 9540W        W25674  15.556  10.212   1.256 -0.1124 -0.1144 -0.2748
 9541W        W25675   9.949   9.628   3.683  0.1963 -0.0329  0.0494
 9542W        W25676   6.417   6.201  12.203 -0.2427 -0.0920  0.0048
 9543W        W25677  12.768  12.664  14.382 -0.1602  0.2843  0.0705
 9544W        W25678  10.277   4.686   4.412  0.1369 -0.2073  0.0366
 9545W        W25679  16.097  12.200   5.678 -0.0202  0.0341  0.3522
 9546W        W25680   1.283  15.518   1.529  0.1158  0.0733 -0.2294
 9547W        W25681   9.372  16.674   0.548  0.6309 -0.1699  0.0223
 9548W        W25682   4.370  13.475  10.597  0.2584  0.3331  0.0503
 9549W        W25683   3.891   2.598  14.463  0.0297 -0.1213  0.1783
 9550W        W25684  15.395   4.909  11.523 -0.2309  0.2639 -0.2348
 9551W        W25685  10.981   4.878   4.046 -0.0365 -0.1350 -0.2171
 9552W        W25686  14.595  17.050   4.759  0.0669  0.1711 -0.0881
 9553W        W25687   1.240  10.621  15.991 -0.1908 -0.0373 -0.0803
 9554W        W25688   4.460   9.898   4.255 -0.1485  0.0122 -0.2344
 9555W        W25689   7.376  10.871  12.752 -0.1943  0.1129  0.1042
 9556W        W25690   4.820  11.178   2.624 -0.2747 -0.0338  0.0422
 9557W        W25691   0.207  14.743   0.946  0.1540 -0.0102 -0.1251
 9558W        W25692   1.619   3.846   0.745  0.0108 -0.0321  0.1115
 9559W        W25693  13.052   5.516  12.369 -0.0858 -0.1070 -0.1776
 9560W        W25694  16.481   4.249  13.420 -0.2012 -0.0044 -0.1389
 9561W        W25695   3.268  12.589  12.547  0.3153 -0.0546  0.1990
 9562W        W25696   9.669   4.288  11.941 -0.2303  0.0631 -0.0525
 9563W        W25697  10.101   4.795  15.927 -0.1673 -0.2503  0.2708
 9564W        W25698   0.054  16.649   0.527 -0.5542 -0.1768  0.2088
 9565W        W25699   7.377   6.787  13.584  0.3589  0.1661  0.0428
 9566W        W25700  16.010   1.484   1.499  0.3211  0.3403 -0.3145
 9567W        W25701  16.757   9.079   0.428  0.1329 -0.1220 -0.0354
 9568W        W25702   1.869   5.973   1.294  0.1784  0.1798  0.2236
 9569W        W25703  14.579   5.671  13.674 -0.0845  0.1867  0.1024
 9570W        W25704   5.927  17.036  13.080  0.0011 -0.2912  0.2708
 9571W        W25705  14.856   2.824  15.826 -0.0409  0.2864  0.3015
 9572W        W25706  11.576   6.132   0.742  0.1340  0.0010 -0.1278
 9573W        W25707   7.394   9.964   2.094 -0.0206 -0.2708 -0.0590
 9574W        W25708   0.760  12.667  15.603  0.0528  0.0242  0.1596
 9575W        W25709   1.750  10.729  16.288  0.1042  0.0785 -0.2268
 9576W        W25710   5.812  13.872  15.632 -0.1269 -0.4588  0.3911
 9577W        W25711  16.559  13.003  12.520  0.0620  0.0683  0.0995
 9578W        W25712  12.274   3.303   4.764 -0.1440 -0.1605  0.2217
 9579W        W25713  14.101  17.637   5.278 -0.2573 -0.2221 -0.0647
 9580W        W25714   1.146  16.480  13.060  0.0505  0.0757  0.0195
 9581W        W25715  10.984  17.517   1.541 -0.1042 -0.0023  0.1181
 9582W        W25716  11.431   2.705   2.267 -0.0263 -0.0207 -0.3366
 9583W        W25717  17.502   2.751  15.927  0.6157 -0.2632  0.0034
 9584W        W25718  13.349   3.511  14.733 -0.0167 -0.2519  0.1087
 9585W        W25719  15.854   9.977  10.119  0.0379 -0.1702 -0.1353
 9586W        W25720  17.942   3.508   1.584 -0.1802 -0.1797 -0.1773
 9587W        W25721   3.075   4.916   2.518  0.1641  0.1162  0.0059
 9588W        W25722  12.972   6.416  15.320  0.2402 -0.1764 -0.3576
 9589W        W25723  10.149  11.654  14.002  0.0776 -0.3884  0.2616
 9590W        W25724   8.642   8.598  14.295 -0.2858 -0.0303  0.0093
 9591W        W25725  10.312   0.150   4.687 -0.0541  0.0833  0.1403
 9592W        W25726   6.205   2.454  11.987  0.1847  0.0004 -0.2778
 9593W        W25727   2.673   3.143   5.393  0.1317  0.3037 -0.1130
 9594W        W25728   1.608   0.626   2.866  0.0236  0.2489 -0.1516
 9595W        W25729  11.433   5.638   3.750 -0.1096  0.3868  0.0302
 9596W        W25730   6.503   7.554  15.946 -0.0188  0.0158 -0.2417
 9597W        W25731   6.757   1.895  15.815  0.1506 -0.0195  0.0997
 9598W        W25732   3.338  13.567   2.240  0.0600 -0.1527  0.3157
 9599W        W25733   6.336   3.760   2.589 -0.2877 -0.1215 -0.1175
 9600W        W25734  10.418  17.537  15.618 -0.0551  0.0774 -0.3118
 9601W        W25735  17.536   5.579  14.874  0.0006 -0.0769  0.2236
 9602W        W25736   9.127   9.245  13.870 -0.1090 -0.0275  0.1050
 9603W        W25737  15.924  16.039  15.178  0.0359  0.0360 -0.0642
 9604W        W25738  10.503  11.507  11.685 -0.2284 -0.0624  0.0909
 9605W        W25739  17.094   7.619   4.802 -0.0159 -0.0297  0.0327
 9606W        W25740   8.525   6.561   4.213 -0.1766 -0.0844 -0.0040
 9607W        W25741  12.674  16.868  12.351 -0.3739 -0.1390  0.2167
 9608W        W25742   7.184   0.588   0.789  0.1090  0.1345 -0.3128
 9609W        W25743  11.410  16.804   4.843 -0.0471 -0.3464 -0.3303
 9610W        W25744   6.420   0.588   1.608 -0.0484  0.0717 -0.3412
 9611W        W25745   5.408  15.613  15.022 -0.3022  0.1945  0.1456
 9612W        W25746  15.524   3.233   5.371  0.0142 -0.0576  0.1392
 9613W        W25747  16.629   4.142  14.521  0.3106 -0.0623 -0.1570
 9614W        W25748  16.898  15.889   2.655  0.3274  0.0253 -0.0488
 9615W        W25749   4.484   3.345  11.929  0.0204 -0.1730 -0.3359
 9616W        W25750   1.584  13.844  11.514 -0.1640  0.3471 -0.1750
 9617W        W25751   3.703   3.043  16.207 -0.0031  0.0413  0.0569
 9618W        W25752  14.993  15.941   0.932  0.1036  0.0945 -0.2534
 9619W        W25753  13.947   2.053  16.031 -0.1730  0.0152 -0.3985
 9620W        W25754   6.883   7.908  13.076 -0.0764  0.0953 -0.3775
 9621W        W25755  16.736   5.801   2.374 -0.0314 -0.0488 -0.2563
 9622W        W25756  16.537  16.285   3.525 -0.0879  0.2742 -0.0814
 9623W        W25757   3.615   8.360  14.708  0.1807  0.0357 -0.0505
 9624W        W25758  11.567  14.588   1.285 -0.3037  0.0261  0.4197
 9625W        W25759   2.104   9.925  15.070  0.1444  0.0710  0.1392
 9626W        W25760   6.465   6.127  14.709  0.2027 -0.2757  0.0125
 9627W        W25761  17.810   4.257  15.112 -0.0726  0.1270 -0.2236
 9628W        W25762  14.973   5.965   0.095 -0.2116 -0.1118 -0.1236
 9629W        W25763  11.103   3.653  13.227  0.1077 -0.0221  0.1201
 9630W        W25764   1.039   7.242   0.934 -0.1765  0.1546  0.1479
 9631W        W25765   9.073  13.931  15.077  0.0264  0.1697 -0.3773
 9632W        W25766   9.343  13.925   1.868  0.0844 -0.1218 -0.2802
 9633W        W25767   8.478   2.122  11.887  0.2203 -0.0658 -0.0255
 9634W        W25768  13.218  18.017   4.310  0.2410  0.2025  0.1542
 9635W        W25769  13.601  14.832  15.291 -0.1585  0.1353  0.1124
 9636W        W25770  16.089   6.700   5.558 -0.2820  0.0609 -0.1422
 9637W        W25771   1.692   1.592  14.471 -0.0340 -0.1177 -0.0588
 9638W        W25772  10.920   5.790   2.547  0.0277 -0.2766  0.2077
 9639W        W25773   7.540   1.656   3.347  0.0012 -0.1699 -0.0666
 9640W        W25774  12.363  15.954   4.741  0.1962  0.0370 -0.3336
 9641W        W25775  13.467   6.041   3.751 -0.2746 -0.1097  0.1439
 9642W        W25776  10.129  13.914  15.746  0.1525  0.1102  0.0201
 9643W        W25777  11.670   1.091  13.511  0.2321 -0.1379  0.0950
 9644W        W25778   9.231  11.889  14.287 -0.0095  0.1150  0.0691
 9645W        W25779   5.859  13.392   1.580  0.1102  0.0919 -0.0282
 9646W        W25780   1.962   7.873   4.714 -0.0190 -0.1285 -0.2006
 9647W        W25781   3.649  10.430   6.437  0.1413  0.0505 -0.1311
 9648W        W25782   0.583  13.070  12.476  0.0907 -0.0634  0.2464
 9649W        W25783   7.493   3.755   2.448  0.3083  0.0145 -0.2737
 9650W        W25784  10.562  11.835   4.869  0.0579  0.0834  0.0593
 9651W        W25785   2.639   5.614   0.991  0.2044  0.1295  0.0172
 9652W        W25786  14.467   7.267  11.676 -0.0106 -0.1161  0.0512
 9653W        W25787  17.905   6.070  10.075  0.0895 -0.1741  0.1954
 9654W        W25788  16.463   2.093   0.041 -0.0672  0.2455 -0.1448
 9655W        W25789  14.116  17.974   4.641  0.1413 -0.0365  0.1276
 9656W        W25790  11.604   2.059   4.944 -0.1266  0.3344  0.1819
 9657W        W25791   6.846  16.707   2.076  0.0203 -0.0539  0.3178
 9658W        W25792   2.673   0.330   4.511  0.1089 -0.3413 -0.0402
 9659W        W25793   1.941  17.789  11.885 -0.0902 -0.0674 -0.0001
 9660W        W25794   5.941  15.209   1.468 -0.0679  0.0541  0.0866
 9661W        W25795  14.313   7.103   4.509  0.1245  0.1043  0.0771
 9662W        W25796  15.042  16.345   4.206  0.0088 -0.1863  0.0773
 9663W        W25797  16.515  14.511   0.926  0.0984 -0.0566 -0.0439
 9664W        W25798  16.498   5.561  10.562  0.1462  0.1802  0.1056
 9665W        W25799   9.672   9.342   0.598  0.2057 -0.0115 -0.0427
 9666W        W25800  14.499   2.940  14.703  0.1020 -0.1721 -0.2100
 9667W        W25801   0.776   7.701   2.797 -0.4085 -0.3667  0.2315
 9668W        W25802  16.723  10.319  16.393 -0.0696  0.1950 -0.0212
 9669W        W25803   9.315   4.613   3.414 -0.0052 -0.0245  0.0821
 9670W        W25804  16.432  15.835   3.197 -0.0388 -0.1009  0.1670
 9671W        W25805   9.726  17.805   0.258  0.2294 -0.1263  0.0329
 9672W        W25806   8.189   5.518  14.457 -0.1016  0.0748  0.0223
 9673W        W25807  16.453   6.730  15.887  0.2808  0.1883  0.1928
 9674W        W25808  15.099   3.849  12.337  0.1949 -0.4422  0.1476
 9675W        W25809  16.567  15.395  13.689  0.0279  0.1813  0.2188
 9676W        W25810   3.336  10.104   4.219 -0.0651 -0.1890  0.1033
 9677W        W25811   1.473  13.778  15.420  0.0374  0.1310  0.0184
 9678W        W25812  11.095  12.253   6.209  0.1794 -0.0525  0.1925
 9679W        W25813  11.725  11.290   3.638 -0.0807  0.1052  0.0642
 9680W        W25814  13.030  15.535  12.277 -0.0462 -0.0232  0.0755
 9681W        W25815   0.779  15.879   5.791 -0.1829  0.1252  0.0965
 9682W        W25816   0.094   2.115   1.994  0.2044  0.0432 -0.0613
 9683W        W25817   0.542   9.694  13.177  0.1226 -0.1831  0.0557
 9684W        W25818  12.139  15.103   4.575  0.1293 -0.1154  0.0022
 9685W        W25819   2.543  13.230  15.863  0.0039  0.3889 -0.0371
 9686W        W25820   6.362   4.353   0.458 -0.1620 -0.1066 -0.0595
 9687W        W25821  12.631   4.788   2.127 -0.1040  0.2056 -0.0640
 9688W        W25822  13.712  10.995   3.672  0.0096 -0.2227 -0.0790
 9689W        W25823  14.744   8.078   2.079 -0.0641  0.2385 -0.1417
 9690W        W25824   1.064   5.052  16.028  0.0280 -0.0753 -0.1252
 9691W        W25825  13.531  17.940   2.558  0.0671  0.1410 -0.2673
 9692W        W25826  17.697  12.061   1.670  0.0686 -0.1668  0.1561
 9693W        W25827   5.871  13.936  12.462  0.0506  0.0801  0.2108
 9694W        W25828   5.909   6.832   2.641  0.2411  0.3365 -0.1433
 9695W        W25829   6.590  12.714  16.255 -0.1418 -0.1531 -0.4185
 9696W        W25830  17.724   7.294   5.311  0.2075 -0.0368 -0.1516
 9697W        W25831   7.653   1.377   0.450 -0.3670 -0.0483  0.1913
 9698W        W25832  14.448   3.277  11.740 -0.2078  0.0983 -0.1694
 9699W        W25833   4.260  11.797  11.940  0.1944  0.1536 -0.0128
 9700W        W25834   3.311   5.382  12.024 -0.1764  0.1407  0.0538
 9701W        W25835  15.813   3.362   2.051 -0.0815 -0.1677  0.0242
 9702W        W25836   3.645   1.191   4.840  0.1771 -0.3566 -0.1355
 9703W        W25837  14.414  16.672   1.538 -0.0350 -0.1500  0.1248
 9704W        W25838   4.648   6.260   1.832 -0.0985 -0.1625  0.4601
 9705W        W25839   3.703  10.604  15.283 -0.2974  0.1518  0.3390
 9706W        W25840   0.208   0.636   5.332  0.0625 -0.1356  0.0892
 9707W        W25841   5.335  10.840  13.940  0.2393  0.1048  0.2673
 9708W        W25842  16.514  11.511   2.798 -0.0679 -0.0374 -0.0638
 9709W        W25843   7.200   0.304  15.590  0.4892  0.0426  0.0364
 9710W        W25844   6.020   8.794   3.948 -0.1044  0.2222  0.1573
 9711W        W25845   7.458  11.997  12.120  0.1742 -0.2522 -0.4100
 9712W        W25846  10.798  15.001   4.015  0.1659 -0.1148  0.0883
 9713W        W25847   5.237   0.502   4.173  0.0719  0.0341  0.1485
 9714W        W25848  15.759  12.794   4.961 -0.0212 -0.1637  0.4403
 9715W        W25849   4.867  17.098   5.491 -0.0900  0.2702  0.0056
 9716W        W25850  15.721   5.410   0.093 -0.0739 -0.3346  0.0499
 9717W        W25851  13.477   0.408  15.636  0.1505 -0.1794  0.1102
 9718W        W25852   9.329  15.466  12.313 -0.0053 -0.2562 -0.1546
 9719W        W25853  11.105   2.778   4.729 -0.2224 -0.0998  0.0570
 9720W        W25854  15.350  15.365   0.465 -0.0560 -0.0428  0.0930
 9721W        W25855  11.042  11.394   5.523  0.1534 -0.0780  0.0591
 9722W        W25856  17.655   9.629  14.798  0.0863  0.4782 -0.0720
 9723W        W25857   6.565  13.459   2.544  0.0436 -0.0306 -0.0359
 9724W        W25858   8.025  10.617   0.277  0.0138 -0.0478 -0.0828
 9725W        W25859  12.901  10.089  16.212  0.2085  0.0791  0.3796
 9726W        W25860  10.448   0.715  15.001  0.0884  0.1535  0.0876
 9727W        W25861  14.088  13.701   3.088  0.3242 -0.0830  0.0499
 9728W        W25862  11.882  14.848  12.590  0.0730 -0.0548 -0.0711
 9729W        W25863   2.716  14.809   2.779 -0.0096 -0.0499 -0.1166
 9730W        W25864   1.321   2.197   3.139  0.3574  0.1852 -0.1245
 9731W        W25865   5.516   1.836   0.014 -0.0922  0.0687 -0.2385
 9732W        W25866  13.493  11.005   2.521  0.2439 -0.0855 -0.1402
 9733W        W25867  11.156   2.719   0.659 -0.1341  0.0279 -0.0225
 9734W        W25868   8.678   9.919   5.896 -0.2968 -0.2027 -0.2538
 9735W        W25869  17.502   9.577   3.942 -0.1110  0.3505 -0.0402
 9736W        W25870   1.027   2.159   5.640 -0.1380  0.0016  0.0887
 9737W        W25871  10.486  17.029   3.898  0.0441 -0.2457 -0.0645
 9738W        W25872  12.130   7.532   4.158  0.0202 -0.0948  0.2249
 9739W        W25873  15.728  14.100  12.401 -0.3448 -0.0576 -0.1470
 9740W        W25874   6.548   4.363  11.383 -0.0586  0.0615 -0.2049
 9741W        W25875  12.141  12.079  12.968  0.1517  0.1794  0.1755
 9742W        W25876  13.381  10.749   5.002  0.0183 -0.2051 -0.0801
 9743W        W25877  17.401   5.773  12.565 -0.1054 -0.1321  0.0710
 9744W        W25878   5.235   6.076   3.526 -0.1187  0.1660 -0.1594
 9745W        W25879   1.934  14.144   4.753  0.2853 -0.1005 -0.3465
 9746W        W25880  11.840  17.166   3.144  0.1095  0.1052 -0.1893
 9747W        W25881   0.832   6.268   3.781  0.0631 -0.3140  0.1459
 9748W        W25882  15.513  10.532   4.798  0.0789  0.0462  0.0349
 9749W        W25883   1.572  17.056  11.216 -0.0660  0.2072 -0.0883
 9750W        W25884  12.977   8.123  15.444 -0.1055 -0.0007  0.1168
 9751W        W25885   5.657   7.256   0.728 -0.1626 -0.1909 -0.0391
 9752W        W25886  11.309   1.861   2.629 -0.0236 -0.1085 -0.0757
 9753W        W25887  14.170  12.865   5.806  0.1331 -0.0635 -0.2848
 9754W        W25888   9.287   7.829  14.992  0.2031 -0.1180 -0.2141
 9755W        W25889   2.138   4.581   2.699 -0.2531  0.1864  0.0061
 9756W        W25890  14.992  13.710  16.148 -0.0107  0.2668  0.0550
 9757W        W25891  15.303  12.014  11.903  0.3058 -0.0286 -0.0586
 9758W        W25892   2.704  18.003   1.335  0.2026  0.1247  0.2443
 9759W        W25893  11.135   9.328   3.885  0.0468 -0.2283  0.0164
 9760W        W25894   8.988   2.854   4.560 -0.0189  0.1435  0.0035
 9761W        W25895  12.619  10.521  16.030  0.1051  0.1330  0.0109
 9762W        W25896  14.136  14.406  15.846  0.0751 -0.2020  0.1266
 9763W        W25897   0.074   8.533  14.599 -0.0696 -0.1342 -0.1915
 9764W        W25898   9.666   2.012   3.580  0.1339 -0.0424 -0.0878
 9765W        W25899  10.627   0.608   4.548  0.1515 -0.1851  0.0533
 9766W        W25900  11.702  12.674   2.393  0.0738  0.3710  0.0021
 9767W        W25901  12.429   0.980   1.608 -0.2292 -0.3292  0.0815
 9768W        W25902   2.548   1.249  12.757 -0.1364  0.0212  0.3879
 9769W        W25903   5.042  14.793  11.229  0.1161  0.0905  0.2584
 9770W        W25904  17.264  14.796  11.603 -0.2632 -0.2472  0.0518
 9771W        W25905   4.233   2.317   6.132 -0.0634 -0.2562 -0.1710
 9772W        W25906  16.936   7.995   3.925 -0.2419  0.0834  0.1330
 9773W        W25907   5.203   6.291   4.794 -0.0236 -0.3043  0.2574
 9774W        W25908   4.366   1.556   2.470 -0.1711  0.0234  0.0061
 9775W        W25909  10.897  10.196  12.668 -0.0667 -0.1382  0.0989
 9776W        W25910   7.132   9.098  11.212  0.2562  0.0670  0.1772
 9777W        W25911  12.447  15.470   4.811 -0.0642  0.3063 -0.0596
 9778W        W25912  14.088   1.627   0.050  0.1488  0.1565  0.1972
 9779W        W25913  16.540   5.809   2.863  0.0027  0.1602  0.1987
 9780W        W25914   4.807   8.571   0.171 -0.0325  0.1495 -0.2556
 9781W        W25915   1.090   2.985  12.696 -0.1460  0.0811 -0.1463
 9782W        W25916  14.407   4.205   6.259 -0.1091 -0.1191 -0.1324
 9783W        W25917   9.644  13.259  14.646  0.4635 -0.2065  0.2456
 9784W        W25918   7.686   8.259  15.774 -0.1849  0.0363  0.1888
 9785W        W25919  11.078   7.155  11.362 -0.0687 -0.2116 -0.0731
 9786W        W25920  17.269   1.023  16.317 -0.1315 -0.2154  0.0238
 9787W        W25921  10.993  15.429  14.862  0.2843  0.1321 -0.0655
 9788W        W25922  11.333   6.070   5.565  0.0419 -0.1868  0.1071
 9789W        W25923   9.818   9.025  15.186  0.2944  0.3478  0.0100
 9790W        W25924  13.089  17.442  14.847 -0.2136 -0.1761  0.0694
 9791W        W25925   4.879   9.845   5.000 -0.3212  0.0571 -0.0439
 9792W        W25926   3.031   6.156  12.364 -0.0345 -0.0365 -0.0665
 9793W        W25927   3.862  11.449  15.336  0.0145  0.0606  0.0940
 9794W        W25928  15.900   8.620  15.682 -0.1041 -0.3286  0.1715
 9795W        W25929   0.522  14.773  11.521 -0.0748  0.0557 -0.2473
 9796W        W25930  14.149  10.540   1.564 -0.0602  0.1146  0.0168
 9797W        W25931   7.097   2.551  15.999 -0.1568 -0.1018  0.1784
 9798W        W25932   6.589   6.303  16.294  0.3945  0.1866  0.2722
 9799W        W25933   0.258  12.585   0.370 -0.0691  0.1869  0.1501
 9800W        W25934   7.740   2.474   3.180  0.0442  0.1477 -0.0805
 9801W        W25935  14.612  11.148   5.577 -0.0114  0.1637 -0.1719
 9802W        W25936   1.516  14.446   4.861  0.1189 -0.0529  0.2239
 9803W        W25937  14.770   2.722   1.685  0.0053  0.2568 -0.0710
 9804W        W25938   4.489   6.155  12.348 -0.1704  0.4398  0.0823
 9805W        W25939   1.416  17.418  14.224  0.1206  0.2421  0.0632
 9806W        W25940  11.554  15.376   0.447  0.0846 -0.1541 -0.0982
 9807W        W25941   5.377   3.946   0.853  0.0002 -0.0990  0.0455
 9808W        W25942  16.201   9.866  12.860  0.0845  0.0024  0.1952
 9809W        W25943  11.797  13.359   4.453 -0.0029  0.2184  0.2060
 9810W        W25944  10.083  16.055  12.663 -0.0971  0.2861 -0.1305
 9811W        W25945  11.887  13.104   2.165 -0.1355 -0.2540  0.1862
 9812W        W25946   8.474  15.075   1.244 -0.2233  0.0350  0.2521
 9813W        W25947   5.957   8.335   4.179 -0.2613 -0.2864  0.3294
 9814W        W25948  17.780  14.657   1.483 -0.1812 -0.0948 -0.0575
 9815W        W25949  13.408  13.086   3.190 -0.0373 -0.0270  0.0780
 9816W        W25950  17.044   1.684   3.058 -0.1156  0.1160  0.1413
 9817W        W25951  17.550   8.740   0.074 -0.0235 -0.4309  0.1522
 9818W        W25952   4.201   2.549  13.031  0.1863  0.0901  0.0045
 9819W        W25953  11.170   1.383  13.595 -0.1450 -0.1224  0.1395
 9820W        W25954  16.286  17.088   5.737 -0.2129 -0.1050 -0.3444
 9821W        W25955  12.945  11.865  14.887  0.0028 -0.0638 -0.0337
 9822W        W25956   3.510  13.901  13.262  0.2170 -0.0580 -0.3662
 9823W        W25957   3.508   1.938   2.830  0.1558  0.0174  0.0927
 9824W        W25958  10.030  17.834  11.823 -0.1543  0.0793  0.0590
 9825W        W25959   2.174  11.441  15.513  0.1859 -0.6112 -0.0441
 9826W        W25960   7.818   9.568   3.240  0.2167 -0.0603  0.2484
 9827W        W25961  15.601   9.881  11.884 -0.1275 -0.0525  0.2829
 9828W        W25962   5.269   5.541  13.359  0.0423 -0.0184  0.1974
 9829W        W25963  12.725  16.825   4.914  0.1923 -0.3405  0.0486
 9830W        W25964  16.088  14.266  14.312 -0.0787  0.1542  0.2067
 9831W        W25965   7.105   4.951   3.557  0.3098  0.0738  0.3250
 9832W        W25966   9.808  13.431   1.297 -0.0646  0.0486 -0.3001
 9833W        W25967   7.553   5.109  11.332 -0.0638 -0.1009  0.0803
 9834W        W25968   6.836  17.674   5.000  0.0445  0.0531 -0.1415
 9835W        W25969   0.454   6.269  16.111  0.0935 -0.0212  0.1882
 9836W        W25970  10.031  13.850   1.168 -0.0260  0.0216  0.2094
 9837W        W25971   0.185  15.928  16.101  0.0707 -0.0490 -0.0904
 9838W        W25972  10.876   9.650   1.458 -0.1865 -0.0436  0.0300
 9839W        W25973  14.138  15.259   2.599 -0.0845 -0.2131 -0.0385
 9840W        W25974   7.354  17.661   4.962  0.1252  0.2974  0.0472
 9841W        W25975  11.746  11.923   5.103  0.0110  0.1107  0.0027
 9842W        W25976  14.756  12.580   1.171 -0.0317  0.0017 -0.2161
 9843W        W25977  16.408  14.994  14.512 -0.0427 -0.1669 -0.0614
 9844W        W25978   3.649  16.472  11.477 -0.1092 -0.0394 -0.1374
 9845W        W25979   4.120   7.091   5.260  0.0594  0.0281 -0.0743
 9846W        W25980   7.822   1.581  13.548  0.0362  0.1681 -0.0282
 9847W        W25981  16.377   4.680  12.589 -0.2245  0.0539 -0.1517
 9848W        W25982   1.896  15.460  12.309  0.0573  0.0965  0.1111
 9849W        W25983  17.871  13.245   3.358  0.1472 -0.0810  0.1859
 9850W        W25984  12.835  11.679   4.505  0.2096 -0.1413  0.2411
 9851W        W25985  15.693   9.836  11.318 -0.0427 -0.0758 -0.0736
 9852W        W25986   6.090  15.211  15.201 -0.2295  0.1009 -0.0360
 9853W        W25987   1.354  16.782   1.488 -0.0600  0.1387 -0.1941
 9854W        W25988   3.961   9.373   1.635 -0.1013  0.1881 -0.2293
 9855W        W25989  16.335  12.535  15.658 -0.0094 -0.0924  0.3222
 9856W        W25990  14.978   2.034   3.617  0.0207  0.1686  0.3712
 9857W        W25991  17.071   1.132   0.711  0.0266  0.2661  0.2650
 9858W        W25992   2.102  12.327  10.922  0.0579  0.1061 -0.1306
 9859W        W25993   5.223   6.622  15.335  0.0101 -0.0052 -0.1153
 9860W        W25994  13.217   5.862  13.600 -0.1582 -0.0086  0.4310
 9861W        W25995   5.877  16.472   4.365 -0.0138  0.1387 -0.1995
 9862W        W25996   2.374  17.446  14.404 -0.0132 -0.2600 -0.0650
 9863W        W25997  15.792   1.417   2.586 -0.3262 -0.1892 -0.0979
 9864W        W25998  10.140   7.429  16.229 -0.1129  0.0331 -0.1750
 9865W        W25999  15.174   4.742  15.380 -0.0512 -0.2628  0.0011
 9866W        W26000  15.669  17.384   2.729  0.0405 -0.3282 -0.2042
 9867W        W26001  10.091  11.286  11.686 -0.0809  0.1239  0.0846
 9868W        W26002   8.439  14.423  13.574 -0.0395  0.1276  0.0976
 9869W        W26003   2.623  15.571  14.627  0.2404  0.3401  0.2055
 9870W        W26004  14.711   8.661   5.184 -0.0986  0.2693  0.0903
 9871W        W26005  13.877  11.201  12.129 -0.1150  0.0367  0.2579
 9872W        W26006   4.954   1.557  15.746 -0.1343 -0.2853  0.1586
 9873W        W26007   3.429   4.314  13.371 -0.0539  0.1701  0.1767
 9874W        W26008  13.564   0.202   2.232  0.1449 -0.0636  0.2095
 9875W        W26009   5.712   9.182  12.914 -0.0384 -0.0308 -0.1574
 9876W        W26010  17.157  10.017   2.085 -0.0744  0.0476 -0.1603
 9877W        W26011   6.466  15.642  14.329  0.0991  0.5471 -0.0175
 9878W        W26012   4.489   3.822  12.673  0.1384 -0.0818 -0.1940
 9879W        W26013   0.414  16.485   1.409  0.1612  0.3860  0.2229
 9880W        W26014  11.891   3.709  12.593  0.0256  0.2231  0.0895
 9881W        W26015  14.664   7.113  12.190 -0.1745 -0.0680 -0.0550
 9882W        W26016   0.261  17.880   1.005  0.1448 -0.0941  0.1519
 9883W        W26017  16.729  10.393   3.531 -0.0634  0.0117 -0.2300
 9884W        W26018   5.076   0.348  11.485  0.3306  0.0439 -0.0145
 9885W        W26019   9.351  12.278  15.848 -0.1483 -0.0019  0.2569
 9886W        W26020   1.908   8.563   2.294 -0.2973  0.0885 -0.1161
 9887W        W26021   6.960   8.721   2.715 -0.2357 -0.0494  0.1277
 9888W        W26022  14.481  12.966  11.542 -0.0020 -0.0468  0.2385
 9889W        W26023  13.737   0.600  12.032  0.4106 -0.1029  0.3152
 9890W        W26024   6.256  14.754   3.661 -0.0434 -0.0001 -0.3883
 9891W        W26025   0.193   3.911  15.030  0.2920  0.0060 -0.0112
 9892W        W26026  12.701   4.140   3.603 -0.0802 -0.3146  0.5096
 9893W        W26027  15.500  11.835   1.305  0.1911  0.0557  0.1667
 9894W        W26028   0.569   9.700   1.529 -0.0303  0.0971 -0.0278
 9895W        W26029   5.186   7.145   5.382 -0.0996 -0.6580  0.0043
 9896W        W26030   4.900   4.158  12.825  0.2542  0.3659  0.0615
 9897W        W26031   5.084   4.155  11.685 -0.1373 -0.0442 -0.3262
 9898W        W26032   7.947  11.616  10.632  0.2016 -0.1307 -0.3561
 9899W        W26033  11.487  17.686   1.455  0.2693  0.2552  0.0997
 9900W        W26034   8.933   3.438   4.736  0.0418 -0.0970  0.2874
 9901W        W26035   8.306   9.195  16.381  0.0415  0.0378 -0.3874
 9902W        W26036   1.407   3.722   0.100  0.0176  0.2915 -0.0336
 9903W        W26037  16.083   1.163   3.084  0.0373  0.0132 -0.1487
 9904W        W26038   6.912   2.529  12.818  0.2274  0.0726  0.0405
 9905W        W26039  15.189  13.507   3.913  0.2111  0.0016 -0.2644
 9906W        W26040  16.553   9.608  11.581 -0.0171  0.2014  0.0657
 9907W        W26041   6.249   6.736  13.928 -0.0588 -0.0489 -0.3650
 9908W        W26042   7.836  10.671  15.691  0.0914 -0.1090 -0.0720
 9909W        W26043  15.959   7.737   2.547 -0.2063 -0.0846 -0.2006
 9910W        W26044   3.181  13.027  14.514  0.0813  0.0929 -0.0584
 9911W        W26045   9.647   8.118   2.396 -0.1448 -0.0028 -0.0956
 9912W        W26046   7.708   3.278  14.288 -0.0925 -0.3561 -0.0304
 9913W        W26047   9.934  17.087   3.832  0.1525 -0.1136  0.0770
 9914W        W26048   7.343   1.612   3.780 -0.0894  0.2013 -0.1610
 9915W        W26049   4.444   9.658   4.860 -0.1472  0.1343 -0.0348
 9916W        W26050  12.905  14.489  15.773  0.2626 -0.1339  0.2152
 9917W        W26051  13.864   3.867   5.114  0.1671 -0.1708  0.0014
 9918W        W26052  16.297  11.160   3.034  0.1783 -0.0306 -0.2826
 9919W        W26053   1.971  11.039  12.047 -0.1963  0.0685 -0.1624
 9920W        W26054   8.455   1.209   0.410  0.0365  0.0189  0.0196
 9921W        W26055  16.493   5.961  11.830 -0.2074  0.0118  0.0702
 9922W        W26056  13.534   4.139   2.448  0.1299 -0.1807 -0.0797
 9923W        W26057   3.107  14.948  16.084 -0.1166  0.0381 -0.3802
 9924W        W26058   9.813   4.381  11.451 -0.2740  0.1501 -0.0943
 9925W        W26059  14.598   9.061   1.778  0.1152 -0.1911  0.1175
 9926W        W26060   3.484   2.668  14.869  0.1644  0.1751 -0.2268
 9927W        W26061   0.632   9.086  12.062  0.1051  0.0217 -0.1567
 9928W        W26062  13.628   1.636   2.226 -0.2387  0.1437 -0.4746
 9929W        W26063   7.531   5.760   2.174  0.0625  0.0500  0.2415
 9930W        W26064   8.914   6.378   2.558  0.3502 -0.1257  0.2566
 9931W        W26065   4.090   6.438  12.707 -0.1096  0.0101 -0.1937
 9932W        W26066  17.653   8.255   2.011 -0.2629 -0.1019 -0.0903
 9933W        W26067   7.870   1.071  12.310 -0.2298 -0.0688  0.0469
 9934W        W26068   3.114   2.355   5.469  0.1900 -0.1225  0.0619
 9935W        W26069   1.710   8.148   5.662 -0.0517 -0.1379  0.0554
 9936W        W26070   3.839   6.480   1.506 -0.0162 -0.1144 -0.1638
 9937W        W26071   5.486  15.707  14.396  0.0767  0.0408  0.0880
 9938W        W26072  10.003  13.949   3.122 -0.2553 -0.1865 -0.0365
 9939W        W26073   0.935  14.466   2.996 -0.2529  0.1632 -0.1720
 9940W        W26074  14.681  13.645  12.404  0.2151 -0.0425 -0.0700
 9941W        W26075   0.232   1.788   5.341  0.0635  0.2769  0.3130
 9942W        W26076  15.234  13.786   2.440  0.0212  0.0999  0.0233
 9943W        W26077   0.125   1.556   2.837 -0.1442 -0.1887 -0.2385
 9944W        W26078  16.604   4.670  13.691  0.1784  0.0642  0.1593
 9945W        W26079   5.055   8.850  10.458  0.1059 -0.1972 -0.0652
 9946W        W26080   6.560   1.865   2.580  0.0788 -0.0713 -0.0850
 9947W        W26081   4.100  10.082  11.569 -0.0273  0.1529  0.0997
 9948W        W26082   0.988   1.537   4.384 -0.0828  0.3059 -0.6877
 9949W        W26083  16.457   6.457  14.134  0.3395  0.2428  0.3046
 9950W        W26084   0.151   4.530   0.636  0.0433  0.0900  0.0078
 9951W        W26085  11.109   0.650  10.806  0.0245  0.0497  0.1110
 9952W        W26086   7.274  16.343   4.863 -0.2172  0.1329 -0.2774
 9953W        W26087  15.953  10.434  12.651  0.0389  0.0667 -0.1045
 9954W        W26088   2.296   7.042  13.704  0.1560  0.3878  0.0744
 9955W        W26089  13.301   2.858   0.445 -0.1891 -0.0508  0.0957
 9956W        W26090   1.958   4.241  12.975 -0.1191 -0.3157 -0.0267
 9957W        W26091   1.666   9.260  16.183 -0.0028 -0.0667  0.0327
 9958W        W26092  12.691   8.954  14.383 -0.0814 -0.2952  0.1467
 9959W        W26093   9.846   8.301   1.874 -0.0841 -0.0953 -0.0389
 9960W        W26094  14.820   1.281   0.828 -0.0963  0.3693  0.0080
 9961W        W26095  15.886   0.326  14.892 -0.0546  0.2004  0.0413
 9962W        W26096  17.479   4.887   3.718 -0.3988  0.1421  0.0416
 9963W        W26097  12.898   7.984   4.832 -0.4731 -0.1424 -0.1211
 9964W        W26098   2.477   9.694  14.510 -0.0249  0.0417 -0.0497
 9965W        W26099   6.056  10.662  12.690 -0.0905  0.0552  0.1048
 9966W        W26100   1.702  17.349   3.876 -0.2668  0.0695 -0.2711
 9967W        W26101   7.288  12.265  13.696  0.1372  0.0776  0.4440
 9968W        W26102  15.934  13.209  14.235 -0.0130 -0.0230 -0.0569
 9969W        W26103  12.578   6.524  14.957 -0.1836 -0.0054 -0.1905
 9970W        W26104   9.665   3.090   0.189 -0.1008  0.1687  0.1914
 9971W        W26105   3.579  15.435   0.513  0.0093 -0.1877  0.3614
 9972W        W26106  11.150   8.643   0.839  0.3091 -0.2990 -0.2610
 9973W        W26107   7.669  15.194   3.507  0.0114  0.2180  0.2463
 9974W        W26108   8.287   6.103  12.331  0.0489 -0.2735 -0.2162
 9975W        W26109   4.518   5.489   0.826 -0.0321  0.1359 -0.0018
 9976W        W26110   4.101   4.729   6.462 -0.2141 -0.1374  0.1393
 9977W        W26111   6.791   9.390  15.225 -0.2045  0.3220 -0.0523
 9978W        W26112  17.568  14.232  13.945  0.2273  0.4473  0.0900
 9979W        W26113  17.872  16.604  13.321  0.1128  0.0495 -0.2739
 9980W        W26114  13.571   2.181   3.030  0.1274  0.1293  0.0148
 9981W        W26115  11.784   6.074  14.144 -0.0127 -0.1543  0.0257
 9982W        W26116  11.285  12.390  12.772  0.2149  0.3234  0.0830
 9983W        W26117   9.745  16.788   0.313 -0.1023  0.1926  0.1002
 9984W        W26118   8.542  11.855  14.730 -0.0229  0.1295 -0.0412
 9985W        W26119   0.327  10.040   2.787 -0.1380  0.1215 -0.0679
 9986W        W26120   2.123   1.642   0.102 -0.0315 -0.0222  0.0548
 9987W        W26121  11.747  12.411  11.177  0.0357  0.1964  0.3255
 9988W        W26122   0.199  10.391   0.946  0.1335 -0.1392  0.1311
 9989W        W26123   2.459  17.976   4.273 -0.1236  0.2271 -0.0022
 9990W        W26124   0.366   8.568   3.852  0.2480  0.1419  0.4860
 9991W        W26125   0.761   1.719  14.611  0.0307  0.0001  0.0212
 9992W        W26126  13.288  12.518  14.937 -0.1169 -0.0158 -0.0123
 9993W        W26127   3.657  11.918  13.546 -0.0477 -0.2875  0.1184
 9994W        W26128   9.194   0.088   2.224 -0.0847 -0.0463  0.0484
 9995W        W26129   0.230   1.930  13.961  0.1130 -0.3551  0.1631
 9996W        W26130  15.915  13.438   1.323  0.1103  0.1203  0.0840
 9997W        W26131  15.360   0.776  13.813  0.4281 -0.1625 -0.0469
 9998W        W26132   9.894   2.078   3.111  0.1336 -0.0598  0.0315
 9999W        W26133   4.362   0.669   2.228  0.0944  0.1416  0.0521
10000W        W26134   8.918  10.381   1.829  0.2397 -0.2087  0.1975
10001W        W26135   7.058  12.456  16.227 -0.0591  0.0895 -0.1400
10002W        W26136   3.936  15.389  10.424  0.4295  0.3405 -0.0139
10003W        W26137   6.455  15.270  13.333  0.2382 -0.1469  0.1643
10004W        W26138  11.358   9.099  14.961 -0.0318  0.1243 -0.1157
10005W        W26139  17.225  16.768  11.457  0.0657 -0.3394 -0.0139
10006W        W26140  13.907  12.512  13.512  0.0894  0.1457  0.0241
10007W        W26141   6.399  16.389   3.230  0.0912 -0.0967  0.1790
10008W        W26142   9.049  10.958   1.084 -0.0308 -0.0873  0.1841
10009W        W26143   7.135  17.050   4.232 -0.2790 -0.2398 -0.3135
10010W        W26144   7.594  15.843  11.865 -0.0841  0.0628  0.1885
10011W        W26145  17.074   7.806   0.281 -0.2353 -0.3776 -0.4010
10012W        W26146   8.988   2.201  14.666  0.0321  0.0147  0.0647
10013W        W26147  11.195  14.391  15.019  0.1703 -0.2604  0.0298
10014W        W26148   0.127  17.108   5.983 -0.2471 -0.2207  0.4664
10015W        W26149   0.555   1.130   2.111 -0.1595 -0.0092  0.0611
10016W        W26150  11.455   2.076  14.675  0.1052 -0.1537 -0.1099
10017W        W26151   1.620  14.492  13.390  0.1518  0.2312 -0.2412
10018W        W26152  16.858  10.986   3.540 -0.1621  0.0847  0.0212
10019W        W26153   2.862   3.251  15.412 -0.0207  0.2987  0.0371
10020W        W26154   6.381   1.956  11.873 -0.1419 -0.0659  0.1913
10021W        W26155   8.684  12.042   2.652 -0.0302 -0.1311  0.2373
10022W        W26156   0.738  15.617  15.947  0.4213 -0.1095 -0.1143
10023W        W26157  15.036   1.116  12.537 -0.1549 -0.0036 -0.2184
10024W        W26158   9.922   1.893  12.880 -0.1986 -0.3712  0.0782
10025W        W26159   9.287   2.284   2.496  0.1652 -0.3206  0.1194
10026W        W26160  13.188  14.751   4.384 -0.0893 -0.1643 -0.0364
10027W        W26161  17.208  15.064  14.238 -0.0280  0.0198  0.0827
10028W        W26162   2.538   6.183  13.190  0.0505  0.0311 -0.1520
10029W        W26163  15.434   2.305   3.650  0.2046  0.0267  0.0896
10030W        W26164  14.365  10.166  13.241 -0.0076 -0.0879  0.1808
10031W        W26165  11.809  17.438   3.833 -0.0012  0.1719 -0.1726
10032W        W26166   0.294   3.670  12.656  0.1741 -0.0424  0.1252
10033W        W26167  12.859  16.000   4.539  0.0654 -0.0233  0.1063
10034W        W26168   7.781   7.965  12.586 -0.1084  0.1715 -0.2580
10035W        W26169  11.529  17.456  11.759 -0.0875 -0.0678  0.0052
10036W        W26170  10.608  10.808   2.513  0.0397 -0.4451 -0.0922
10037W        W26171  14.139   0.423   5.321 -0.0160  0.1097 -0.3853
10038W        W26172   2.912   6.904  11.648 -0.0412  0.0424 -0.2444
10039W        W26173  16.014   6.648  14.251  0.0389  0.1728 -0.0897
10040W        W26174  18.042  15.485   3.978 -0.2192  0.1872 -0.1933
10041W        W26175  16.100   5.958  12.765 -0.0332  0.1868 -0.1356
10042W        W26176  13.546   1.010   4.073 -0.1298  0.1122  0.1069
10043W        W26177  15.620   0.563  15.263  0.2508  0.2366 -0.3394
10044W        W26178   4.055   0.453   3.674  0.1495  0.0263  0.3363
10045W        W26179   7.480   3.819  13.513 -0.1630  0.1192 -0.0846
10046W        W26180   8.555   6.359   4.703 -0.0887  0.1261 -0.0849
10047W        W26181   0.361   6.258   2.469  0.3832 -0.0658  0.1668
10048W        W26182   1.646  12.133   1.312 -0.0457  0.1232  0.0435
10049W        W26183  11.887   4.003   4.427  0.0442 -0.1342  0.0266
10050W        W26184   1.237  14.680  13.145 -0.1224 -0.2007  0.1015
10051W        W26185   3.174   0.845  11.683  0.3578 -0.1359  0.0227
10052W        W26186   0.001   6.764   3.107 -0.1629  0.1064 -0.2107
10053W        W26187   0.263   9.580   2.434 -0.2235  0.0013 -0.0353
10054W        W26188  10.159   2.044   1.251  0.1392 -0.2866 -0.0048
10055W        W26189   0.193  17.997   2.342  0.0166 -0.0694 -0.1108
10056W        W26190   9.289  17.279  11.875  0.0419  0.3980  0.0662
10057W        W26191  10.568   6.699  14.719  0.2304 -0.1090 -0.0386
10058W        W26192   5.128  10.578   5.344 -0.1580 -0.3319  0.4535
10059W        W26193   9.035  13.703   1.078 -0.1151 -0.2447  0.1522
10060W        W26194   1.791   0.595  12.665 -0.0595  0.3759 -0.0531
10061W        W26195  15.297  16.284   5.212 -0.2685 -0.1140  0.0607
10062W        W26196  10.499  16.906  13.642  0.0730  0.0443  0.2372
10063W        W26197   9.185   4.427   2.564 -0.4517  0.0803 -0.0591
10064W        W26198   2.704   3.449  13.572  0.2327  0.1812 -0.1681
10065W        W26199  17.864  13.967   4.104  0.1253 -0.0707  0.1342
10066W        W26200   1.324   4.843  15.658 -0.0344  0.0102  0.1575
10067W        W26201  10.254  16.626  15.935 -0.1643 -0.2144  0.1142
10068W        W26202   6.161  16.270   1.184 -0.1093  0.0234 -0.1634
10069W        W26203  14.699  17.043  14.482 -0.0918  0.1861 -0.0053
10070W        W26204  11.959  13.759   0.808 -0.0142  0.0098 -0.0368
10071W        W26205   2.791  10.758   0.570 -0.0688  0.0290 -0.2046
10072W        W26206  17.882   5.726  12.421 -0.3090  0.1144 -0.2530
10073W        W26207   0.386   3.324  14.796  0.1340  0.0985  0.1401
10074W        W26208   0.537  16.171   2.675 -0.1098  0.1314  0.0405
10075W        W26209   4.441  14.551   4.648  0.1016 -0.1605 -0.0349
10076W        W26210   6.847  17.968   3.405  0.2019 -0.2951  0.1119
10077W        W26211   8.753  12.329  12.082  0.1255  0.0223  0.0659
10078W        W26212   8.125  13.562  15.426 -0.0446  0.1840 -0.1086
10079W        W26213  15.799  14.977  15.403 -0.1965 -0.0133 -0.1578
10080W        W26214   4.982   8.701   5.700 -0.1094  0.0763 -0.0361
10081W        W26215   5.548   3.174  12.608  0.1316  0.1061 -0.1005
10082W        W26216   3.407  14.285   2.470  0.1373 -0.0358 -0.0479
10083W        W26217  10.551   3.974   6.216  0.2425  0.2276 -0.0518
10084W        W26218  11.008   0.106   3.430 -0.1371  0.0188  0.0018
10085W        W26219  10.141   0.864   2.303  0.3000  0.0261  0.0351
10086W        W26220  10.774  16.764  12.308 -0.1720 -0.1717  0.1798
10087W        W26221  14.067  12.864   2.600  0.1046  0.0418  0.0372
10088W        W26222  13.789   4.501  11.089  0.0436  0.2865 -0.0527
10089W        W26223  13.154   4.989  13.934 -0.1734 -0.2434  0.1787
10090W        W26224   2.778   7.604  13.298  0.2815  0.0293  0.1050
10091W        W26225   9.234   2.346   1.204  0.1250  0.0788  0.0339
10092W        W26226  13.821   0.100   4.288  0.0519 -0.6514  0.2521
10093W        W26227  15.105  14.783  13.458 -0.0763 -0.1638  0.0038
10094W        W26228   9.947   8.022   0.353 -0.0047 -0.2107  0.6379
10095W        W26229  16.650   4.077   4.995 -0.0099  0.2334 -0.1201
10096W        W26230  14.351   1.960  10.831 -0.2331  0.0640 -0.3215
10097W        W26231   1.059  12.303  16.311  0.0199  0.0220  0.0897
10098W        W26232   2.631   0.170   0.392  0.0880  0.1910 -0.4146
10099W        W26233   8.878   5.961   1.123 -0.1461  0.1416 -0.1947
10100W        W26234   0.474   7.240  14.657 -0.2174 -0.1447 -0.0543
10101W        W26235   6.395  11.146   3.076 -0.0827  0.1032 -0.2410
10102W        W26236   4.574   8.782  10.436 -0.4236 -0.0240 -0.0625
10103W        W26237   6.944   1.763  11.862  0.1203 -0.1322 -0.0116
10104W        W26238   6.192   4.494  13.292  0.0717  0.1448 -0.0768
10105W        W26239  12.009  11.097   4.207 -0.0864 -0.1718 -0.2599
10106W        W26240   5.882   7.592   3.967  0.2067 -0.0347  0.1252
10107W        W26241   7.287  10.859   3.079  0.1007 -0.2399  0.1294
10108W        W26242   9.657   9.947  14.746 -0.0272  0.2811  0.0326
10109W        W26243   1.557  12.926   2.378 -0.0961 -0.0866 -0.2984
10110W        W26244   0.229  11.084   0.104  0.2361  0.0021  0.1397
10111W        W26245  13.520   9.233   2.770 -0.0034 -0.0291 -0.0288
10112W        W26246  10.989  12.803  13.610 -0.0425 -0.1120  0.1005
10113W        W26247   5.791   2.071  16.047  0.1316  0.0302  0.0661
10114W        W26248  14.603   2.314   4.589  0.2717  0.0991 -0.2718
10115W        W26249   8.129  15.749   3.025 -0.0442  0.2794 -0.2024
10116W        W26250  11.125  10.995  14.312  0.3271 -0.1038 -0.1324
10117W        W26251  14.968   4.365   2.065  0.0584  0.0585  0.1276
10118W        W26252  14.991  16.645   6.046 -0.0816 -0.0526  0.0624
10119W        W26253   4.697   7.299  15.824  0.1227 -0.1671 -0.1732
10120W        W26254   8.599  17.631   2.220  0.0983 -0.1027  0.0498
10121W        W26255  16.984   4.292   5.770  0.1329  0.2141 -0.1873
10122W        W26256   7.161  11.634  13.453  0.1202 -0.3583  0.1418
10123W        W26257  16.087  15.882   4.885 -0.0410  0.0700  0.2969
10124W        W26258  11.832  17.901  15.096  0.1124 -0.0786 -0.2496
10125W        W26259   9.862   3.056  15.191  0.0698  0.0774 -0.2835
10126W        W26260   2.240  14.683   2.741 -0.0438  0.0550 -0.6846
10127W        W26261  12.819  17.833  11.464  0.2000  0.1277 -0.5266
10128W        W26262  11.823  16.980  11.634  0.2273  0.3593 -0.0416
10129W        W26263   6.711   3.342  16.340  0.0079  0.1951  0.3023
10130W        W26264  13.764   6.379   5.278  0.1810  0.2244 -0.0413
10131W        W26265  13.979  15.683   1.440 -0.0192 -0.2863 -0.0068
10132W        W26266  13.414   4.738   1.224  0.1516 -0.3329 -0.0924
10133W        W26267   1.755   8.926   0.063  0.2150  0.0506 -0.1416
10134W        W26268  13.803  11.187  15.755  0.2389  0.2199  0.2292
10135W        W26269  15.764  11.451  11.882 -0.1229  0.0758  0.0926
10136W        W26270  10.175   0.655  13.265  0.0163 -0.0357  0.0682
10137W        W26271   5.104   7.658   3.703 -0.0616  0.0970  0.0505
10138W        W26272   2.358  15.487  15.960  0.1835  0.0334 -0.1914
10139W        W26273   6.648   7.934  12.607 -0.1121  0.1957 -0.1289
10140W        W26274   6.192   3.664   0.017 -0.2592  0.1430  0.2656
10141W        W26275   3.801   6.034  12.878  0.1865 -0.0260 -0.0290
10142W        W26276   2.662   9.073  12.045 -0.2890  0.0375 -0.0618
10143W        W26277  10.283  13.872   5.228 -0.2407  0.0298 -0.1580
10144W        W26278  15.833   2.719  15.240 -0.1296  0.0094 -0.0908
10145W        W26279   7.938   7.669   1.146 -0.0011 -0.0886  0.1737
10146W        W26280   6.804  10.148  11.602  0.0070 -0.2071  0.0868
10147W        W26281   5.142   5.091  11.839 -0.1455  0.0579  0.2720
10148W        W26282   9.779   2.996   1.618 -0.0615 -0.0757 -0.2161
10149W        W26283   6.636  11.752   4.817  0.0027 -0.2085  0.1185
10150W        W26284  17.023   2.153   0.298  0.0641  0.1545 -0.0857
10151W        W26285  13.444  12.659  13.956  0.0550 -0.0286  0.1117
10152W        W26286   0.140  14.259  15.663 -0.1039  0.1271 -0.1269
10153W        W26287   2.257   7.028   4.766 -0.3057 -0.2172  0.2277
10154W        W26288  15.330   5.051   0.550 -0.1586 -0.4611 -0.2015
10155W        W26289  11.261  16.032   1.801  0.2978  0.2131  0.3195
10156W        W26290  15.594   1.494   5.221  0.0309  0.1368 -0.0064
10157W        W26291   0.514   5.384   0.071 -0.0013  0.0206 -0.1072
10158W        W26292   1.510   7.245   1.079  0.3280 -0.1053  0.0459
10159W        W26293  11.271   1.616   0.881  0.0686  0.2646 -0.0746
10160W        W26294  13.505   4.695   0.738 -0.1043 -0.0426 -0.2793
10161W        W26295  17.831  10.725  14.296  0.0054  0.1137  0.1315
10162W        W26296   1.380  12.725   4.458 -0.1697 -0.2811  0.0073
10163W        W26297   4.832  11.684   5.818  0.1293 -0.5211  0.1166
10164W        W26298  12.922  16.069  12.909 -0.2426 -0.1418 -0.0117
10165W        W26299   8.729   0.852   4.244  0.0926 -0.0461 -0.0095
10166W        W26300   6.632   9.448  12.075  0.2643  0.0286  0.1916
10167W        W26301  16.514  15.964   4.412  0.0915  0.3296  0.1616
10168W        W26302  15.749   7.167   0.188  0.0700  0.0005 -0.2181
10169W        W26303   0.036   4.985  16.368 -0.0956 -0.2712 -0.3149
10170W        W26304   7.892  12.618   2.523  0.3110 -0.1347 -0.1215
10171W        W26305  17.637   0.655  12.011 -0.2884  0.1205 -0.1902
10172W        W26306   0.616   6.731  15.438 -0.2088 -0.2226 -0.0231
10173W        W26307  14.852  12.351   2.916  0.1807 -0.1503 -0.2331
10174W        W26308  14.775   9.341   3.877  0.0490 -0.0473  0.0648
10175W        W26309  15.850   4.263  15.739 -0.2177  0.2548  0.1438
10176W        W26310  10.956  15.774   4.649  0.0561  0.0720 -0.0362
10177W        W26311   6.041   7.589   6.190 -0.0742  0.1328  0.5254
10178W        W26312  16.794   3.399   2.018  0.1439  0.2439 -0.0479
10179W        W26313  18.086  17.707   4.729 -0.0919 -0.6067 -0.0062
10180W        W26314   8.327   4.444   2.785 -0.3106 -0.0767  0.0767
10181W        W26315  15.850  15.732   2.081 -0.0829  0.0492 -0.0514
10182W        W26316  15.553  14.601  13.642 -0.4051  0.0422  0.1917
10183W        W26317   6.153  12.344   4.892 -0.0173 -0.3028  0.3026
10184W        W26318   4.206   2.968   2.104 -0.2071  0.2917 -0.1216
10185W        W26319   9.938  17.248   3.131  0.0811 -0.1203 -0.0940
10186W        W26320   6.151  15.730  15.302  0.0904 -0.0751 -0.2153
10187W        W26321   7.597  13.036   4.375  0.2019  0.1862  0.1164
10188W        W26322   7.814   7.077  14.472 -0.1499  0.0074 -0.2243
10189W        W26323   7.953   8.745  12.798  0.1242  0.1491  0.2089
10190W        W26324   5.385   3.045  10.439 -0.0578  0.0993  0.2853
10191W        W26325   7.242  13.891  15.152 -0.2490  0.0211 -0.2346
10192W        W26326   7.022  13.299   5.518  0.4429 -0.0686  0.3065
10193W        W26327   5.603   6.662  12.707  0.0671 -0.2916  0.0883
10194W        W26328   4.957  16.371   3.941  0.2950 -0.4615 -0.0458
10195W        W26329   1.729   1.129  14.685 -0.1695  0.2440 -0.0441
10196W        W26330   8.359   7.831  13.184 -0.0114 -0.2317 -0.2964
10197W        W26331   4.118   6.455  13.226 -0.0346  0.0383 -0.0964
10198W        W26332   9.073  13.679  15.600  0.1015  0.1560 -0.0372
10199W        W26333   5.993  15.197   0.620 -0.1145  0.1180 -0.0804
10200W        W26334  10.557   6.917  12.684 -0.1116  0.4088  0.5688
10201W        W26335   0.802   8.326  13.174 -0.1649  0.0069  0.0574
10202W        W26336  12.021  12.971  15.199  0.0174  0.0079  0.2424
10203W        W26337   8.421  13.399  13.401  0.2360  0.3185 -0.2377
10204W        W26338   7.414   9.260  11.603 -0.1531  0.1463  0.1229
10205W        W26339  11.967  15.754   5.150  0.1484 -0.0483  0.1853
10206W        W26340   4.447   7.380  15.005  0.0300 -0.0656  0.3438
10207W        W26341   5.156   5.901  13.872 -0.0400 -0.0387 -0.0308
10208W        W26342   4.525   9.540   1.910 -0.0656  0.3034  0.1072
10209W        W26343  12.960  17.746   6.057 -0.4195  0.1259 -0.0403
10210W        W26344   9.717   3.095   3.003 -0.1709  0.3166 -0.0407
10211W        W26345   8.697   0.372   0.415 -0.1711  0.0578  0.3419
10212W        W26346  17.210   6.210  16.180 -0.2649 -0.2275 -0.1324
10213W        W26347   0.827   1.947  15.041 -0.0105 -0.0473  0.3112
10214W        W26348   8.418   8.154  14.416  0.1661  0.1138 -0.1133
10215W        W26349   8.819  14.786  15.361 -0.1562 -0.1352  0.3248
10216W        W26350   4.394   5.439   1.765  0.1294  0.0787  0.1362
10217W        W26351  18.046  14.648   4.926  0.1009 -0.2305 -0.0674
10218W        W26352  17.131   5.108  12.843 -0.3799  0.1805  0.3078
10219W        W26353   8.587  10.108   3.365  0.2277  0.1994 -0.1468
10220W        W26354  14.213   4.155   4.603 -0.0561 -0.0674 -0.1070
10221W        W26355   5.956   0.865  14.769  0.3193 -0.2384  0.1591
10222W        W26356  16.507  14.504   0.344 -0.0181 -0.0755 -0.0588
10223W        W26357  10.818  13.615  12.365  0.3774  0.3227 -0.1738
10224W        W26358   9.364  17.139   3.059  0.2088 -0.0587 -0.1903
10225W        W26359   2.449  16.517  14.437  0.0890 -0.1311  0.1338
10226W        W26360  13.882  15.674   2.411  0.2596  0.0767 -0.1658
10227W        W26361   6.743   7.238   0.590 -0.0457  0.1451  0.1462
10228W        W26362  11.509   7.751  14.027 -0.0827 -0.3613  0.1310
10229W        W26363  11.027   3.186   0.379 -0.1942  0.3234 -0.1232
10230W        W26364  17.593   7.494   4.120 -0.0772  0.2723  0.1685
10231W        W26365   6.580  16.586  12.740  0.1077 -0.0777 -0.2325
10232W        W26366   1.447   5.573   4.033 -0.1368  0.4513  0.1660
10233W        W26367  10.005   4.984  12.294 -0.4261 -0.2744 -0.2281
10234W        W26368  17.976  13.562   1.165  0.1481  0.0712 -0.1132
10235W        W26369  13.106  11.186   2.277  0.1081 -0.2700 -0.0442
10236W        W26370   1.492  13.294  12.389 -0.0788  0.0230 -0.0551
10237W        W26371  12.037  11.631  16.393 -0.1260 -0.2172  0.2622
10238W        W26372  15.937  12.220  14.658  0.1746  0.0138 -0.2199
10239W        W26373   7.543  12.617   1.061  0.1436 -0.1823  0.2629
10240W        W26374  14.314   2.198   5.050 -0.0577  0.1444 -0.1428
10241W        W26375   5.704  11.668  15.573  0.0697  0.2378 -0.1031
10242W        W26376  13.603  15.376  16.275  0.2327  0.0199 -0.0382
10243W        W26377   9.778   7.757  11.662  0.1280 -0.1880 -0.1040
10244W        W26378  14.571  14.446  12.649  0.0700 -0.1654 -0.0471
10245W        W26379   7.510   0.179   4.849  0.2153 -0.1633 -0.1088
10246W        W26380  13.536  13.351   3.630 -0.2728  0.1929  0.2342
10247W        W26381  13.542   9.514   0.209  0.0471  0.3123  0.2059
10248W        W26382  15.031   3.904  10.699  0.0765 -0.2916 -0.1921
10249W        W26383   6.439  17.377  16.306 -0.1272  0.2524 -0.0388
10250W        W26384   1.449  13.042   4.032 -0.1373 -0.2067 -0.1100
10251W        W26385  14.417  13.118   1.899 -0.1206 -0.0677  0.0134
10252W        W26386   6.368   5.422   5.576 -0.1694  0.2383 -0.0699
10253W        W26387   9.035   9.763   4.415  0.6992  0.1851  0.0218
10254W        W26388  17.301  13.414  16.299 -0.2218 -0.0962 -0.0580
10255W        W26389  16.581  10.928   2.536  0.0362  0.1364  0.0247
10256W        W26390   3.021   2.942  16.227 -0.0173 -0.2712 -0.1306
10257W        W26391   6.541   3.479  11.985 -0.0118  0.1065  0.3030
10258W        W26392   6.318  17.784   0.212  0.0048  0.0386 -0.0479
10259W        W26393  11.302   0.300  13.849  0.3737 -0.1763 -0.0930
10260W        W26394  16.196  18.048  14.639  0.3546 -0.2425  0.1669
10261W        W26395  17.053  11.050  11.412  0.1665  0.0243  0.0771
10262W        W26396  11.251   8.027   2.450  0.1438 -0.2602 -0.2472
10263W        W26397  10.288  12.452  14.474 -0.1875  0.1809 -0.0733
10264W        W26398   1.040  11.273   4.272  0.0043 -0.1393  0.1101
10265W        W26399   7.459   6.837   1.590  0.1474  0.1389 -0.1165
10266W        W26400  15.810  13.403  14.735 -0.3092  0.2769 -0.1273
10267W        W26401  16.902   2.169   3.798 -0.0979  0.1468 -0.0217
10268W        W26402   1.532  17.940   5.141 -0.1890 -0.2091  0.1473
10269W        W26403   0.830  11.317   1.382  0.1253 -0.0211  0.2086
10270W        W26404   4.855  12.119   4.710 -0.1692 -0.0581  0.0186
10271W        W26405   1.137   9.574  14.711  0.0433 -0.0830  0.2443
10272W        W26406   4.638  14.889  14.697  0.1694  0.0262 -0.0027
10273W        W26407  11.858  10.577   1.723 -0.0538 -0.1689  0.1774
10274W        W26408  11.370  12.365   2.685 -0.0530 -0.0739  0.1237
10275W        W26409  10.504  16.190   5.324  0.0006  0.1172 -0.1028
10276W        W26410  10.292   2.874  16.185  0.3351  0.2326 -0.2630
10277W        W26411   9.124   4.323  13.733 -0.2268 -0.0559 -0.1695
10278W        W26412  16.172  12.582   5.326  0.0895 -0.1686  0.1249
10279W        W26413  11.559   4.966  15.655  0.1865 -0.3414  0.1333
10280W        W26414  18.029   3.737  11.158 -0.0800  0.1341 -0.0901
10281W        W26415  15.404  10.452   2.535  0.0966  0.0718  0.0778
10282W        W26416   8.697   8.627   1.631 -0.0222 -0.2636  0.2215
10283W        W26417  12.113   5.831  10.550  0.0288 -0.2076 -0.3803
10284W        W26418  11.384   0.800   0.119 -0.0724 -0.3886 -0.2031
10285W        W26419  16.725   5.535  11.569 -0.1007  0.6012 -0.1201
10286W        W26420  14.291   3.186  14.320 -0.3195  0.0291 -0.0614
10287W        W26421  12.522   7.047  14.875 -0.3078  0.1617  0.1775
10288W        W26422   7.164  15.315  14.608  0.1772 -0.0664 -0.4838
10289W        W26423   3.487  13.069  12.632  0.0216  0.0497 -0.0399
10290W        W26424  10.931   9.329   4.637 -0.0705 -0.0829  0.3417
10291W        W26425   0.039   3.613  13.714 -0.0323 -0.0755  0.0400
10292W        W26426   8.943  15.870   0.259 -0.0260 -0.5964 -0.1077
10293W        W26427  15.618   5.800  12.747 -0.2617  0.2847  0.1870
10294W        W26428  12.153   4.280   5.473  0.0212  0.1770 -0.1288
10295W        W26429   9.465   7.907  15.837  0.0489  0.0214 -0.2109
10296W        W26430   3.180   8.120   2.066 -0.2849  0.0615  0.0057
10297W        W26431  17.400  15.571   5.628 -0.4162 -0.1437  0.0540
10298W        W26432   2.109  13.997  11.556  0.1313  0.0960  0.2489
10299W        W26433  10.318  11.085  15.507 -0.1816 -0.0053 -0.0905
10300W        W26434   4.486  16.198  15.750 -0.0335 -0.1962 -0.2147
10301W        W26435   2.629   3.372  14.119  0.0705 -0.1668  0.1763
10302W        W26436   8.574  12.196   4.695  0.0355  0.0290 -0.2844
10303W        W26437   6.935  14.958  14.328 -0.1258 -0.2075 -0.0872
10304W        W26438   6.102  12.647  12.103 -0.5007  0.2273  0.1347
10305W        W26439   6.064  10.768   0.754 -0.2169  0.4821  0.1791
10306W        W26440  11.822  14.587   0.856  0.1336 -0.0886 -0.0930
10307W        W26441  16.447  17.190  16.025 -0.0834 -0.1630 -0.1527
10308W        W26442   3.158   0.531   3.912 -0.4526 -0.1200  0.0947
10309W        W26443   7.157  15.828  11.709 -0.1476  0.3435  0.1558
10310W        W26444  14.845   2.309   5.021 -0.0306 -0.1924 -0.4413
10311W        W26445   4.006   7.524  13.778  0.0337  0.1655  0.1896
10312W        W26446   2.693  11.918  12.694  0.3170 -0.2440 -0.2174
10313W        W26447   1.198  15.039   1.725  0.1440 -0.2309  0.1427
10314W        W26448  10.885  10.522  14.918  0.1192  0.0041 -0.2386
10315W        W26449   7.195  14.671  11.952  0.0859 -0.2231  0.1792
10316W        W26450  15.122   8.916  12.145 -0.1073  0.0439  0.0597
10317W        W26451   2.325   2.033  11.733  0.0831  0.0927  0.0100
10318W        W26452  10.523  17.062  16.021  0.0043 -0.2825  0.0690
10319W        W26453  15.963   0.431   4.786 -0.0643  0.0068  0.2286
10320W        W26454   3.337   1.884   1.834  0.0496 -0.0615 -0.3175
10321W        W26455   1.665   3.155   3.724  0.1129 -0.0146 -0.3963
10322W        W26456   2.414  12.206   1.483 -0.1442 -0.3926  0.1963
10323W        W26457  15.495   1.227  12.455  0.0801  0.0257 -0.3025
10324W        W26458   5.675  12.796  15.304  0.1339 -0.1264  0.2628
10325W        W26459   0.985   9.316   5.511 -0.1441  0.1633 -0.0561
10326W        W26460   6.273   2.131   4.535 -0.2039  0.1304  0.3037
10327W        W26461  12.928  10.146   4.064 -0.1604  0.1506 -0.2906
10328W        W26462  15.150   6.374   4.160 -0.0232  0.2063 -0.0385
10329W        W26463   0.413  10.316  12.297 -0.1227 -0.2237 -0.2197
10330W        W26464   9.157   1.858  15.546  0.0875  0.1808  0.2065
10331W        W26465  12.880   7.923  13.981 -0.0319 -0.3493 -0.2433
10332W        W26466   8.476   4.958  15.231 -0.1288  0.2505  0.1100
10333W        W26467  10.526  11.677   4.404 -0.1416 -0.2540  0.1698
10334W        W26468   4.825  13.645   3.603  0.1110 -0.1125  0.0822
10335W        W26469  13.706   9.145  12.882 -0.1268  0.1222  0.1005
10336W        W26470  10.997   0.022   3.960 -0.1129 -0.2722 -0.0110
10337W        W26471  12.405  14.157   4.386 -0.1174  0.1523  0.1668
10338W        W26472   6.038   2.507   2.881 -0.1652 -0.0067  0.0586
10339W        W26473  13.403   5.498  13.259  0.0025 -0.0541 -0.0059
10340W        W26474   4.549  12.897  16.232 -0.1249 -0.1780 -0.0602
10341W        W26475   4.628  13.865   5.122  0.1049  0.1132  0.0225
10342W        W26476  12.481  16.597  10.909  0.1901 -0.2412 -0.2549
10343W        W26477  16.650   1.739  15.455  0.1389  0.0543 -0.0751
10344W        W26478  11.946  17.875  13.914 -0.0419  0.0869 -0.3041
10345W        W26479  12.166   4.999  12.977  0.3168 -0.1945 -0.0346
10346W        W26480   2.440  16.810   0.051  0.0013 -0.3694  0.0456
10347W        W26481  12.632   6.756  10.531  0.0784 -0.1690 -0.2010
10348W        W26482  11.142   3.589   0.761 -0.0598  0.1514  0.2666
10349W        W26483   0.346  14.655  13.630  0.1493 -0.2388 -0.2117
10350W        W26484  14.360  17.375  10.492  0.1898 -0.0651  0.1959
10351W        W26485   5.744   6.380   0.914  0.0783  0.2383  0.1502
10352W        W26486   2.703  17.671  14.708  0.0854 -0.2020  0.0892
10353W        W26487   5.151   8.195  12.279 -0.1725 -0.0451  0.2729
10354W        W26488  17.004   4.930   1.237 -0.2596 -0.1336  0.1080
10355W        W26489   6.395   8.509   3.696  0.2224 -0.1726 -0.0539
10356W        W26490  16.493  17.742  13.119 -0.0095  0.2326 -0.0752
10357W        W26491   8.250   9.513   1.858 -0.2116  0.2364 -0.4608
10358W        W26492   3.338  10.556   3.178  0.2877 -0.4152  0.0540
10359W        W26493   5.595   3.329  14.438  0.0132 -0.2370  0.1685
10360W        W26494   0.789  10.566   3.609 -0.3043  0.0119  0.2221
10361W        W26495   8.809  12.233  16.111  0.2050 -0.3232 -0.1416
10362W        W26496   4.340  15.034  13.072  0.0101 -0.0613 -0.3298
10363W        W26497   7.580   7.931  14.273  0.3021 -0.2970 -0.0345
10364W        W26498   4.177  13.633  14.527  0.2909  0.5285  0.0178
10365W        W26499   6.887   2.233  10.578 -0.3235  0.1916 -0.1694
10366W        W26500  13.509   8.280   2.262  0.0959 -0.3352  0.1986
10367W        W26501  12.338  14.543   0.850  0.1757 -0.0492  0.0254
10368W        W26502  10.993  15.755  12.643 -0.0199 -0.2945  0.0461
10369W        W26503  12.858   2.503   4.199 -0.0029  0.3031 -0.2985
10370W        W26504   9.526  13.377  15.656 -0.0945  0.0105  0.3322
10371W        W26505   0.480  10.714  10.246  0.1255  0.0034 -0.0544
10372W        W26506   0.712   2.939  15.835 -0.0691  0.0752 -0.0641
10373W        W26507  12.075   9.866   3.055  0.2538 -0.2490  0.0491
10374W        W26508  16.560  17.696   4.470 -0.0743  0.0029 -0.2399
10375W        W26509   9.120  11.923   0.009 -0.1654  0.3047  0.0531
10376W        W26510   0.808   5.410  10.925  0.1298  0.2853 -0.2378
10377W        W26511   2.797  15.931  16.206 -0.0077  0.2460  0.1728
10378W        W26512   6.501  16.960   3.344 -0.0169  0.1647  0.1735
10379W        W26513   9.396  14.973   5.319 -0.1990  0.1818  0.1622
10380W        W26514  15.777  14.555  12.816  0.2269 -0.1192  0.0373
10381W        W26515  13.770   6.861  14.241  0.2282 -0.2276 -0.2882
10382W        W26516   4.452  17.039   0.919 -0.0018 -0.0771  0.1533
10383W        W26517  16.172  10.305  13.504 -0.0210  0.1457  0.0144
10384W        W26518  13.371  16.877   4.494 -0.0488 -0.1517 -0.0478
10385W        W26519   5.973   1.469  11.134  0.0248 -0.1919 -0.0482
10386W        W26520   8.629   3.683  14.231 -0.2969 -0.0381 -0.0626
10387W        W26521   5.066  15.598   1.559 -0.0874 -0.0098 -0.0999
10388W        W26522  10.069  13.950  11.830 -0.2376  0.2462 -0.2102
10389W        W26523  16.899   0.424  13.270  0.1296  0.0326 -0.0794
10390W        W26524  12.291   1.356   0.273  0.3051  0.0140  0.1053
10391W        W26525   9.072  10.523   2.278  0.0428  0.0582 -0.0075
10392W        W26526  10.256   7.324  13.396 -0.0084  0.1412 -0.1523
10393W        W26527  14.107  16.899   4.554 -0.0111  0.4538 -0.2887
10394W        W26528  11.816   7.654  11.780  0.2760 -0.0182 -0.2371
10395W        W26529   1.851  18.075   2.000 -0.3684 -0.2893 -0.1054
10396W        W26530  10.822   8.191   3.647 -0.1512 -0.1309 -0.0986
10397W        W26531   0.683   8.520  14.043  0.0422  0.1391  0.3163
10398W        W26532   3.534  12.655  12.987 -0.0919 -0.1775  0.0523
10399W        W26533   0.709  17.364  14.688 -0.3586  0.1142 -0.1591
10400W        W26534  10.506   4.793  13.983  0.3213 -0.4196  0.0075
10401W        W26535   6.615   7.580   2.534  0.3329 -0.1533  0.1908
10402W        W26536  17.899   7.555   2.557 -0.1649  0.1585 -0.0792
10403W        W26537   0.981   7.760   4.863  0.0399 -0.0699  0.2049
10404W        W26538   5.186  11.487   4.006 -0.1259 -0.0234 -0.0584
10405W        W26539  18.006  10.046  11.363  0.3050  0.1703 -0.0541
10406W        W26540   8.818  13.741  11.693  0.1149  0.0891 -0.0408
10407W        W26541  15.040  14.746   2.588 -0.0502  0.1682  0.0985
10408W        W26542  15.634   2.103   5.799  0.2457  0.3615  0.0636
10409W        W26543   6.210  16.128   0.398  0.1958  0.1783 -0.1586
10410W        W26544  12.730  15.231   1.962 -0.0245 -0.0003  0.1025
10411W        W26545  10.341   0.595   0.108  0.0978  0.3444  0.1203
10412W        W26546   9.439  12.761  15.979  0.0991 -0.2269  0.2415
10413W        W26547  10.953   3.069  12.767 -0.0510 -0.3258 -0.0485
10414W        W26548   6.666  11.653   5.738  0.1128  0.1005 -0.1004
10415W        W26549   7.153  14.087  12.199 -0.0777 -0.2450 -0.1078
10416W        W26550   9.315  15.247  13.544  0.0344 -0.1214  0.0946
10417W        W26551   8.252  14.666  15.925  0.2214 -0.2042 -0.0793
10418W        W26552  10.923  11.245  11.749 -0.0345 -0.0871  0.2049
10419W        W26553  10.047   8.605  11.305 -0.1622  0.0334  0.1749
10420W        W26554  13.651   3.328   1.394  0.1656 -0.0909 -0.0863
10421W        W26555  11.210  10.876  15.671  0.0979 -0.3502  0.2548
10422W        W26556  13.067  14.299  14.616 -0.0917  0.1992 -0.1524
10423W        W26557  14.318  17.167   1.499  0.0134 -0.0383  0.2166
10424W        W26558   0.709   0.490   1.569 -0.0114 -0.2983 -0.0173
10425W        W26559   6.832   1.077  14.584  0.1221 -0.0985 -0.3404
10426W        W26560   9.694  13.121   0.554 -0.0506  0.0445  0.0093
10427W        W26561  14.763  12.692  16.274 -0.0336  0.1214 -0.2425
10428W        W26562  16.973  12.033  11.041  0.1095  0.1930  0.0516
10429W        W26563   4.449   9.835   1.459 -0.0546 -0.1076 -0.2556
10430W        W26564  11.548  12.800  11.805 -0.2670  0.1939  0.6154
10431W        W26565  17.171  17.534  14.114 -0.0564 -0.0984 -0.0946
10432W        W26566   0.398  11.446  15.406  0.0892 -0.2697 -0.3810
10433W        W26567   6.982  12.692  12.496  0.3173  0.0290  0.0813
10434W        W26568  12.789  12.662  15.754 -0.1167  0.2591  0.1140
10435W        W26569  10.968  15.009  11.672 -0.1970  0.2360  0.1315
10436W        W26570   2.203   0.945  14.598  0.1042  0.0686  0.1070
10437W        W26571  13.300   1.876  12.536  0.0184 -0.0491 -0.0275
10438W        W26572  13.758   5.519  14.183 -0.2027 -0.1588  0.0355
10439W        W26573  17.716  11.891  16.389  0.0679 -0.1639 -0.2391
10440W        W26574  14.175   1.328  11.473 -0.0180  0.0734  0.1099
10441W        W26575  13.725  14.069  11.353 -0.4187 -0.0084  0.1545
10442W        W26576   3.604  14.015  12.311  0.0295 -0.2644  0.2514
10443W        W26577   7.067   8.260   2.456  0.1689 -0.0502  0.0863
10444W        W26578   1.325   4.119  14.748  0.2115 -0.3525  0.0369
10445W        W26579   3.754   5.445   3.579  0.3815 -0.0489  0.0326
10446W        W26580   8.045  15.792  14.711 -0.2518  0.1705  0.1913
10447W        W26581  16.497   3.378   1.434  0.0363  0.0686 -0.4437
10448W        W26582  15.960  13.523   0.767  0.1985 -0.2195 -0.2047
10449W        W26583  13.173   1.364  11.352 -0.0599  0.0066  0.1471
10450W        W26584   5.047  10.145  11.577 -0.0949  0.2894 -0.0786
10451W        W26585   0.519   3.127   1.306 -0.3223 -0.0532  0.2282
10452W        W26586  11.404  13.065   6.094 -0.0067 -0.2945  0.3153
10453W        W26587  16.867   5.487   2.702  0.0714  0.2185  0.0150
10454W        W26588  10.473  17.766   4.914  0.2706  0.1982 -0.0105
10455W        W26589  17.854  12.655   0.345  0.0728  0.1629  0.1452
10456W        W26590   8.392  15.267  16.332 -0.0261 -0.2434 -0.2537
10457W        W26591   3.963   9.980  13.592 -0.0179  0.2679 -0.1264
10458W        W26592  13.055   4.508  13.902  0.2983  0.4513  0.0100
10459W        W26593  10.818   6.995   2.781  0.3063 -0.1867 -0.2906
10460W        W26594  16.642   4.921   5.288 -0.2864 -0.0190  0.0487
10461W        W26595  17.045  12.506  15.060 -0.0655  0.2094 -0.1984
10462W        W26596   8.878  11.200   0.664  0.3245 -0.0126  0.0092
10463W        W26597   4.927  17.463   0.096 -0.0039  0.1050 -0.1103
10464W        W26598  16.065  11.101   2.451 -0.1312  0.0743  0.3717
10465W        W26599  17.194  10.659   3.242  0.3503  0.0313  0.2388
10466W        W26600  12.936   2.183   0.393 -0.0210 -0.0519 -0.2161
10467W        W26601  16.872   8.494   1.581  0.0031 -0.1657  0.0498
10468W        W26602  10.746   4.500   5.787  0.3392  0.2466  0.0841
10469W        W26603   7.292   1.579  13.436  0.0809  0.1238 -0.1060
10470W        W26604  10.649  12.263   5.129 -0.0575  0.2296 -0.1303
10471W        W26605  10.525  11.635   3.111  0.0867 -0.0855 -0.0963
10472W        W26606   3.882   0.216   5.790  0.0903 -0.0507 -0.1669
10473W        W26607  17.331   9.036   3.763 -0.1865  0.1053 -0.1713
10474W        W26608  10.594  14.934  11.318  0.0409  0.0218  0.0763
10475W        W26609   6.357  14.565  15.873  0.0233 -0.0316  0.0218
10476W        W26610  14.527  13.870  14.635  0.0764 -0.1888  0.0935
10477W        W26611  15.402  17.540  14.403 -0.1921  0.0578  0.1369
10478W        W26612   2.751  16.659   3.804 -0.2140 -0.0662  0.1891
10479W        W26613  14.246   5.943   3.286 -0.0229  0.2510 -0.1881
10480W        W26614   3.153  14.780  15.501  0.1724 -0.2850 -0.1836
10481W        W26615   7.570   7.755  16.194 -0.3357 -0.0458 -0.1588
10482W        W26616   6.716  12.038  13.265  0.1555  0.2403  0.0338
10483W        W26617   5.991  15.562  14.421  0.0723  0.2091 -0.1569
10484W        W26618  14.811   1.220  15.184  0.0500 -0.0084  0.1021
10485W        W26619  17.607   4.542  14.637  0.0948 -0.0981  0.0610
10486W        W26620   7.570   4.935   4.234 -0.0312 -0.1508 -0.1218
10487W        W26621   0.311   1.380   5.051 -0.0685  0.0695  0.2640
10488W        W26622  12.201   1.906  15.278 -0.0091  0.0304 -0.1700
10489W        W26623   3.901   1.730   2.633 -0.2664 -0.0094  0.0736
10490W        W26624   0.678  10.017  15.464  0.1741  0.0271 -0.1241
10491W        W26625   8.381   5.371   0.170  0.3175 -0.0772 -0.0911
10492W        W26626  10.738   2.105  13.518 -0.0125  0.4034 -0.0236
10493W        W26627  12.292  15.253  12.849 -0.3246  0.1301 -0.0922
10494W        W26628   0.317  12.993   0.022  0.0379  0.3654 -0.0128
10495W        W26629  11.669   2.077  13.303  0.1644  0.1620  0.1501
10496W        W26630   2.696  14.131   4.064  0.1693 -0.3187 -0.0180
10497W        W26631  17.752  11.348   3.438  0.3587  0.0712  0.1026
10498W        W26632   7.737  13.051   3.352  0.2270  0.1740 -0.1584
10499W        W26633  13.670  14.946  14.276 -0.1646  0.3055 -0.0685
10500W        W26634   1.518  10.220   4.748  0.2100 -0.0430 -0.0750
10501W        W26635   2.496   0.063  11.738 -0.0429 -0.2546  0.0283
10502W        W26636   0.910   0.905  14.063 -0.0143  0.0052 -0.2699
10503W        W26637   9.521   6.037  14.506  0.0928  0.1218  0.0951
10504W        W26638  12.785  17.225   3.105  0.0544 -0.0636 -0.1412
10505W        W26639   6.269   3.271  10.247  0.2843  0.0989  0.0384
10506W        W26640  16.563   7.834   0.798  0.0847  0.1727  0.0135
10507W        W26641  17.727   2.486   3.126  0.0544 -0.0923 -0.3658
10508W        W26642  11.621  16.344   3.907 -0.0505  0.1393  0.0729
10509W        W26643  10.446  14.050  15.145  0.1572 -0.2642  0.1287
10510W        W26644   7.889   8.545   5.076 -0.2413 -0.3503 -0.1744
10511W        W26645   7.996   3.111   0.462  0.0639 -0.0623  0.2758
10512W        W26646   5.430  11.228  11.637 -0.1038  0.0887 -0.1154
10513W        W26647  13.015   2.476  11.982 -0.0202 -0.0119 -0.0443
10514W        W26648   1.846  17.388   4.348 -0.0143  0.2346 -0.1753
10515W        W26649   5.835  15.918   3.315  0.1100  0.0801  0.1728
10516W        W26650   3.504  10.342  11.246 -0.0031  0.0779  0.5283
10517W        W26651  13.003  15.248  16.044 -0.1622  0.0813 -0.0158
10518W        W26652  12.902   7.424   0.204 -0.1058 -0.0616 -0.2962
10519W        W26653  16.938   8.892   1.323 -0.1375 -0.2145 -0.2186
10520W        W26654   2.927   0.928  12.187 -0.0203 -0.2581  0.0889
10521W        W26655   5.641   8.559   0.885  0.3901 -0.2059 -0.2378
10522W        W26656   6.018   6.138   3.860  0.0797  0.2557  0.0632
10523W        W26657  14.105   7.843  15.973  0.1486 -0.0550  0.4238
10524W        W26658   6.459  17.127  11.796  0.1289 -0.1401  0.1529
10525W        W26659   6.399   1.845   6.579 -0.1975 -0.1597  0.0091
10526W        W26660  16.317   8.686   1.706  0.0475 -0.2745  0.1695
10527W        W26661  17.201  12.903  14.813 -0.0954  0.1497 -0.0188
10528W        W26662  11.706  14.121  13.454 -0.1163  0.0255 -0.2985
10529W        W26663  10.661  12.131  16.202  0.1571  0.1260 -0.1278
10530W        W26664   9.886  11.884  15.046 -0.0478 -0.1852  0.0596
10531W        W26665   4.899  17.055  14.918 -0.0250  0.0196  0.3111
10532W        W26666   5.537   6.282   1.592 -0.2266  0.0173  0.3776
10533W        W26667   8.758  17.591  15.264  0.1603 -0.1246 -0.0855
10534W        W26668  10.482   6.742   1.795  0.1122 -0.0632 -0.3091
10535W        W26669   5.317   2.880  14.273  0.0714 -0.1068 -0.3534
10536W        W26670   7.429   0.984   6.016 -0.2122  0.2162  0.0763
10537W        W26671   5.042   3.070  12.568  0.2055  0.0759  0.0852
10538W        W26672   4.775  11.958   1.492 -0.0500 -0.1741 -0.0114
10539W        W26673  10.804   1.341  13.250 -0.0796  0.0751  0.0932
10540W        W26674  10.033   6.811   4.789  0.2177  0.0889 -0.0492
10541W        W26675  14.243   1.961   0.444  0.1185  0.1725 -0.2375
10542W        W26676  16.693   8.135  15.952  0.1343  0.1004  0.2564
10543W        W26677   2.152  17.266   1.870 -0.0533 -0.1008 -0.2158
10544W        W26678   3.372  15.009  13.946 -0.1724 -0.0238 -0.0137
10545W        W26679   7.752   3.181  11.304 -0.2029  0.3022  0.0927
10546W        W26680  11.475  12.780  13.655  0.3736 -0.1060 -0.1417
10547W        W26681   2.875   0.954  16.334 -0.2622 -0.1996 -0.1670
10548W        W26682  14.419   6.901   3.649  0.1267  0.0252 -0.0891
10549W        W26683   6.059   4.568  12.742  0.1458  0.0567  0.5494
10550W        W26684   1.311  12.037  13.791 -0.0354 -0.1706  0.0344
10551W        W26685  17.061   4.495   4.291  0.1749 -0.2509  0.1435
10552W        W26686   7.575  10.976  12.312  0.1812 -0.0672  0.1232
10553W        W26687   1.791   4.160  15.822 -0.1547  0.1910 -0.2407
10554W        W26688   1.910  14.042   0.219 -0.2170  0.0292  0.1643
10555W        W26689   0.938  11.979   3.423  0.1004  0.0515 -0.1476
10556W        W26690   4.766   2.725  15.055  0.1588 -0.0250  0.0127
10557W        W26691  15.558  10.902   2.586  0.1277 -0.0098 -0.1816
10558W        W26692   9.089   9.574  12.865  0.0547  0.3138 -0.1551
10559W        W26693   3.310  12.409   3.775 -0.0309 -0.2479 -0.0623
10560W        W26694  11.001   0.763   2.485 -0.0325  0.1616 -0.1297
10561W        W26695  10.374   9.039   5.095  0.1150 -0.1688  0.1283
10562W        W26696   9.266  12.333   0.965  0.1821  0.0073 -0.1896
10563W        W26697  10.655  12.770  12.271  0.0812  0.0877  0.3392
10564W        W26698   4.837  12.173   2.536  0.1627  0.2323 -0.0194
10565W        W26699  13.008  12.425   3.680 -0.2601  0.0959  0.0320
10566W        W26700   2.337   2.671   0.655  0.3385 -0.0335  0.1918
10567W        W26701  10.382   5.220  13.672 -0.0118 -0.1246  0.1066
10568W        W26702   1.003   5.641  12.666  0.0245 -0.0402  0.1445
10569W        W26703   7.496  15.967   1.508 -0.0424  0.1214  0.2153
10570W        W26704   0.854  14.612  15.082 -0.2486 -0.0229  0.0502
10571W        W26705   7.762  16.312  14.464 -0.0133  0.0368  0.3176
10572W        W26706   5.176  14.526  15.173 -0.0392 -0.0777  0.0362
10573W        W26707  15.166   1.378  11.446 -0.0416  0.0821 -0.1331
10574W        W26708   8.106  12.131   2.570 -0.3752  0.2475 -0.0115
10575W        W26709   2.857  13.619  11.665 -0.0991 -0.0661  0.1513
10576W        W26710   5.189   0.147   2.919  0.4875 -0.1171 -0.2818
10577W        W26711   2.245   7.669   4.156 -0.0829 -0.2320 -0.0012
10578W        W26712   0.745  16.045  14.378  0.0611 -0.2408 -0.0801
10579W        W26713  10.151   3.561  14.360 -0.0285 -0.0439  0.3189
10580W        W26714  10.920   6.781   4.701  0.0546  0.1434  0.2254
10581W        W26715   5.721   6.355  13.210  0.0822  0.0576  0.2427
10582W        W26716  11.877  12.278   3.632 -0.1008  0.0577  0.0095
10583W        W26717   7.997  11.654   4.713 -0.1575 -0.0516  0.2709
10584W        W26718  16.326  14.692  12.902 -0.0803 -0.1033 -0.0076
10585W        W26719   0.782   7.966   5.380  0.0389 -0.1066  0.4154
10586W        W26720  12.788   0.720  14.964 -0.0603  0.1105  0.2074
10587W        W26721   1.610  14.631  13.969  0.0862  0.0910 -0.1490
10588W        W26722   3.934   4.406   1.039 -0.0574  0.1133  0.1535
10589W        W26723  16.408   0.266   5.038 -0.1184  0.1073  0.0452
10590W        W26724   5.430  10.957   5.172  0.3177 -0.1856  0.1430
10591W        W26725   8.428   7.073   1.869  0.0176 -0.2260 -0.1457
10592W        W26726   2.537  12.157  13.095  0.1087  0.1237  0.2719
10593W        W26727   1.728   2.697  13.365  0.1104  0.2547  0.2280
10594W        W26728  12.097   7.460   1.619 -0.2234  0.0331  0.2434
10595W        W26729   6.195   9.772  14.423 -0.0446 -0.4255  0.0950
10596W        W26730  10.175  15.239   5.378 -0.1498 -0.3214 -0.0602
10597W        W26731   8.713   9.864  11.810  0.1436 -0.2183  0.1669
10598W        W26732   7.003  13.580   2.219 -0.0455  0.1121 -0.0725
10599W        W26733   7.949   6.749   5.482 -0.0212 -0.2405 -0.3934
10600W        W26734  10.778  11.851  15.727 -0.2382  0.1878  0.0166
10601W        W26735   8.401   4.618   3.848 -0.0936  0.1706 -0.2201
10602W        W26736   0.724  10.403   5.889  0.0827  0.3155 -0.0257
10603W        W26737  16.010   5.788   2.856 -0.3352 -0.1299 -0.3064
10604W        W26738  10.171   0.162  11.526 -0.4532 -0.0486  0.2161
10605W        W26739   3.814  13.541  10.392  0.1425  0.2388 -0.3133
10606W        W26740   1.965  12.845   0.791  0.0454 -0.0978 -0.2365
10607W        W26741   2.524  14.777  13.777 -0.1128 -0.2564 -0.2669
10608W        W26742   2.784   8.348   6.503 -0.1011  0.0534 -0.1870
10609W        W26743  12.679   5.494   4.966 -0.0661 -0.0309 -0.1834
10610W        W26744  17.129   0.462  12.757 -0.2592  0.0968 -0.2439
10611W        W26745  11.876   8.252   6.193  0.2618  0.1354  0.1047
10612W        W26746   3.437   4.024  15.201  0.0459 -0.1214  0.0690
10613W        W26747   3.054   4.864   4.883  0.0701 -0.0382 -0.1320
10614W        W26748   8.867   9.958   0.983 -0.0541  0.1174 -0.3332
10615W        W26749   9.503  12.369  13.747 -0.0616 -0.2893  0.0700
10616W        W26750   5.299   2.437   4.760  0.2223  0.2884 -0.1103
10617W        W26751  16.629   1.510   0.731 -0.1656  0.0346  0.1746
10618W        W26752  13.326  12.022   4.384 -0.2090 -0.1266  0.1753
10619W        W26753  12.203   6.148   5.133  0.0185 -0.1491 -0.1550
10620W        W26754   2.841  14.189   1.839  0.0387 -0.2967 -0.0541
10621W        W26755   9.076  11.278  15.004 -0.2868  0.1843  0.0038
10622W        W26756   4.900  10.988   0.198  0.1073 -0.1365 -0.1370
10623W        W26757   5.836  18.005  15.046 -0.1610  0.0232  0.1046
10624W        W26758   0.561  10.810  12.125  0.1606  0.4264  0.0120
10625W        W26759  12.176   7.108   5.056  0.0605  0.1173  0.1667
10626W        W26760  11.137   4.229   4.803  0.0048 -0.2682 -0.0649
10627W        W26761   5.186   4.997   2.669  0.0114 -0.1026 -0.0800
10628W        W26762   7.743   3.237   2.452  0.0002 -0.0829 -0.0365
10629W        W26763  17.019  10.508   1.326 -0.1437 -0.3039 -0.1095
10630W        W26764  14.932  16.050  15.243  0.0903  0.0407  0.1215
10631W        W26765  15.341  11.315   1.685 -0.0178 -0.1378 -0.1270
10632W        W26766   5.569   1.149   3.998 -0.2577  0.1600 -0.2066
10633W        W26767  14.463  11.963   6.126  0.1403 -0.0471  0.1922
10634W        W26768  13.142   9.391  11.123  0.0499  0.1089 -0.0996
10635W        W26769  17.948  10.286   2.615 -0.2418 -0.0268 -0.0269
10636W        W26770  17.734   0.558   5.476 -0.2560  0.2890 -0.0640
10637W        W26771  13.722   5.442  11.718  0.0233  0.1618 -0.2417
10638W        W26772   9.389   2.654   1.543  0.4290  0.0385 -0.4911
10639W        W26773  12.440   1.896  11.856  0.1029 -0.0099  0.0653
10640W        W26774  10.887  14.344   5.789 -0.2196 -0.2040 -0.0539
10641W        W26775  12.838  10.839   3.501  0.3468  0.0045  0.0891
10642W        W26776   8.040   4.213  15.560 -0.2642  0.0047 -0.0335
10643W        W26777   4.339   5.712   1.223 -0.0866 -0.0656 -0.0616
10644W        W26778   9.903   0.384   5.356  0.4943 -0.1856  0.0545
10645W        W26779  10.208  12.663  10.476 -0.0550  0.0858  0.0996
10646W        W26780   0.201   6.317  11.649 -0.1250  0.0376  0.2152
10647W        W26781   1.418   5.320   1.977 -0.1148  0.0170  0.0389
10648W        W26782  16.490  14.845  13.732  0.1326  0.3173  0.1721
10649W        W26783   5.517   0.920  15.390  0.2585  0.0258  0.1313
10650W        W26784   4.667   2.315  13.758 -0.1847  0.3372 -0.0781
10651W        W26785  17.587  17.841   5.700  0.0929  0.0122 -0.2919
10652W        W26786  16.413  17.191  14.532 -0.4162 -0.1350 -0.0349
10653W        W26787   3.986  10.209  14.984 -0.0042 -0.0874  0.1900
10654W        W26788   5.154   1.082   4.354 -0.0060 -0.0107 -0.1449
10655W        W26789   8.245  14.355   2.597  0.0282 -0.0963 -0.2081
10656W        W26790   8.187   2.973   5.242 -0.1569  0.1037  0.5580
10657W        W26791   2.918   2.769  15.680 -0.0588  0.0664  0.0333
10658W        W26792  10.787   9.854   2.965 -0.1565 -0.0563 -0.0095
10659W        W26793   1.166  11.346   3.302 -0.2664 -0.1580 -0.0708
10660W        W26794  14.462   0.845   5.511  0.3488  0.0610 -0.0582
10661W        W26795   5.418   2.155   1.602  0.0881 -0.2218  0.0368
10662W        W26796  15.438  15.259  14.496 -0.0864 -0.3185  0.0776
10663W        W26797  17.090  12.681  13.320  0.1965 -0.0366 -0.0100
10664W        W26798   6.412   6.143   0.286 -0.2078  0.0554  0.3803
10665W        W26799  12.217   8.653  15.209 -0.0694  0.1440 -0.1119
10666W        W26800  11.332   1.482  16.148  0.0553  0.3134  0.0017
10667W        W26801   9.978   2.513   0.972  0.2101  0.0345 -0.1829
10668W        W26802   4.943   8.723  11.450 -0.1282  0.2789  0.1178
10669W        W26803   6.606   1.235   4.128 -0.0222 -0.1943  0.0468
10670W        W26804  10.383   2.420  14.825  0.1465  0.2195 -0.2015
10671W        W26805   7.108   4.343  16.140  0.1362 -0.0570  0.1847
10672W        W26806   7.140   7.769  10.482 -0.3434 -0.1169  0.1079
10673W        W26807  15.480   3.465   0.709 -0.2854 -0.1612  0.1827
10674W        W26808  13.780   7.453  11.338  0.0281 -0.1838  0.2479
10675W        W26809  15.839   8.394   1.079 -0.1567 -0.1930  0.3177
10676W        W26810   1.238   6.905   4.377 -0.1154  0.0112 -0.1160
10677W        W26811   1.145   9.467   4.274 -0.2327  0.1411  0.0696
10678W        W26812   6.337   4.962   1.731 -0.0962 -0.1174 -0.0107
10679W        W26813   9.540   2.242  14.149 -0.0509  0.5729  0.0017
10680W        W26814  14.634   2.951  13.866  0.0363 -0.1049  0.1584
10681W        W26815   2.173   4.123  11.899 -0.0177 -0.2098 -0.0049
10682W        W26816   1.989   2.378  11.920  0.0868 -0.1054 -0.2919
10683W        W26817   4.670  13.413   0.590  0.0940 -0.1739 -0.1031
10684W        W26818   9.738  13.242  14.044 -0.3031 -0.4922  0.0798
10685W        W26819   9.841  10.210   0.201  0.3032  0.0482  0.0795
10686W        W26820   4.835  16.179   2.207  0.1177 -0.0161 -0.0498
10687W        W26821   8.916  10.243   5.184  0.0269 -0.3700 -0.1817
10688W        W26822  17.526  10.530   0.347 -0.2447 -0.1552  0.2875
10689W        W26823   0.536   5.434   5.200 -0.2153 -0.1202  0.2580
10690W        W26824  17.892   5.266  15.162 -0.2496 -0.2869  0.0099
10691W        W26825  17.354  12.786  12.476 -0.1598 -0.4891  0.1946
10692W        W26826  11.858  10.900  11.119  0.3188 -0.2605  0.0546
10693W        W26827   9.430   8.896  14.894 -0.0551 -0.0156  0.2646
10694W        W26828   4.227   2.329   1.650  0.2316 -0.0349  0.0133
10695W        W26829   9.641   8.112  16.289 -0.0501 -0.1210 -0.0994
10696W        W26830   8.819  15.556   3.075 -0.2707 -0.1131 -0.1188
10697W        W26831  10.449  17.517  13.727 -0.2148 -0.1517 -0.2464
10698W        W26832  13.442   5.316   4.488  0.1107 -0.0689 -0.0545
10699W        W26833  15.772   4.349  12.275 -0.0108  0.0407  0.0311
10700W        W26834   4.612   3.941   0.166 -0.1445  0.0833  0.0390
10701W        W26835  15.176   3.007   1.339  0.3922 -0.0201 -0.1576
10702W        W26836   8.876   7.038  15.094 -0.0653  0.2297  0.1419
10703W        W26837  17.999   8.140  12.107  0.1553  0.3499 -0.0311
10704W        W26838   6.928  16.725   1.467 -0.1390 -0.0712  0.2125
10705W        W26839  15.348   8.539  15.728  0.0721  0.1080  0.3380
10706W        W26840   5.484   6.684   2.387 -0.1620  0.0650  0.1458
10707W        W26841   9.353   5.518  12.603  0.3129 -0.0323 -0.0161
10708W        W26842  13.584  13.777  12.125 -0.0965  0.2061 -0.0612
10709W        W26843   8.541   0.796   1.153  0.1652  0.0057  0.2174
10710W        W26844  17.148   9.780  14.718  0.2045  0.0101 -0.2737
10711W        W26845   0.312   8.860  13.675 -0.1878 -0.0869 -0.0086
10712W        W26846   7.575   3.377   0.593 -0.0542  0.4309  0.2164
10713W        W26847  11.606  16.234   0.386  0.2742  0.0652 -0.2258
10714W        W26848   4.878   0.154  12.518 -0.0064 -0.0216 -0.3331
10715W        W26849  13.708   8.318   0.943  0.2201  0.2206  0.1267
10716W        W26850   4.643  18.010  15.907  0.2426 -0.0072  0.0876
10717W        W26851   3.831   6.364   5.656 -0.0391 -0.1474 -0.1356
10718W        W26852   6.575   9.444   1.970 -0.0047 -0.1000 -0.0529
10719W        W26853  17.330   1.226  14.741 -0.1005 -0.1487  0.0908
10720W        W26854   8.640  16.389  13.225 -0.0852 -0.0080 -0.4727
10721W        W26855   6.959  16.729  12.379 -0.0914 -0.0499  0.3643
10722W        W26856   9.372  14.929   1.545  0.0087 -0.3349  0.1213
10723W        W26857   4.221   1.589  12.072 -0.3904 -0.1570 -0.2566
10724W        W26858   2.113   4.349   5.950 -0.2533 -0.1583 -0.1565
10725W        W26859  12.654  10.618   4.336  0.0224 -0.1228  0.0406
10726W        W26860  10.460  16.544   3.226 -0.0467 -0.1398 -0.2687
10727W        W26861  10.539  15.955  12.853 -0.2384  0.0894  0.2113
10728W        W26862  17.482  14.649   4.642 -0.0107 -0.1195  0.1222
10729W        W26863  17.168  16.675   4.761 -0.2238  0.3714  0.1216
10730W        W26864  10.471  15.833  11.898 -0.0629 -0.0204  0.1203
10731W        W26865  17.260   6.193  15.491  0.3029 -0.1760  0.4212
10732W        W26866  17.321  17.509   1.626  0.0244 -0.1059 -0.2029
10733W        W26867   9.984  13.925  15.039 -0.1549  0.0413 -0.3111
10734W        W26868   4.699   1.303   3.686 -0.1145 -0.0777  0.3823
10735W        W26869   4.543   1.936  11.941 -0.0520  0.1843  0.0364
10736W        W26870   6.498   2.684  13.103 -0.1594  0.1027  0.0117
10737W        W26871   0.025   2.824   3.164  0.0203  0.1186  0.1119
10738W        W26872   2.292  14.295   5.550  0.1383 -0.0077  0.1690
10739W        W26873   5.060   7.453  13.046 -0.0286 -0.3840  0.1651
10740W        W26874  13.581   6.630   0.128  0.1244 -0.0976 -0.0204
10741W        W26875  15.838   4.590   4.211  0.0282  0.0711 -0.2156
10742W        W26876  10.369  16.226  16.217  0.0928 -0.0780 -0.1325
10743W        W26877   3.530   4.529  14.812 -0.0954 -0.0377  0.0897
10744W        W26878  16.878   4.144  11.748 -0.0636  0.1776 -0.1877
10745W        W26879   9.892  14.294  15.469 -0.1960 -0.1788  0.1116
10746W        W26880   4.650   3.431   0.474  0.1443 -0.0006 -0.0989
10747W        W26881   6.098  12.782  11.634  0.2376 -0.1646 -0.1977
10748W        W26882   4.708  15.172  16.383 -0.2075  0.2278 -0.1581
10749W        W26883  12.277   0.318   4.011 -0.0066  0.1864 -0.1207
10750W        W26884   5.785   5.609  14.767  0.1712  0.0745  0.0041
10751W        W26885   1.833   7.999   4.251 -0.0842 -0.3803 -0.1096
10752W        W26886  11.370   9.575   4.918  0.1959  0.0192 -0.0951
10753W        W26887  12.138   1.291   5.995  0.0745 -0.3428 -0.1002
10754W        W26888   6.775  17.028   0.405  0.4324 -0.3117  0.1323
10755W        W26889   9.502  14.787  13.463 -0.0841  0.0961 -0.0681
10756W        W26890  15.415  16.737   4.387  0.1005  0.0637  0.1775
10757W        W26891  12.246   7.649   1.135  0.2420 -0.0903  0.1076
10758W        W26892  16.633  16.906  12.866 -0.0110  0.3027 -0.1125
10759W        W26893  15.099   6.562  14.565 -0.1566 -0.0786  0.1819
10760W        W26894   3.069  11.759   5.904  0.1349 -0.0339  0.0904
10761W        W26895  12.998   2.535   1.356  0.2063 -0.2432  0.2878
10762W        W26896  15.381  10.220  11.494  0.0869  0.0277  0.0840
10763W        W26897   7.666   8.980  11.955 -0.2094 -0.0234  0.2274
10764W        W26898   9.819   1.543  10.735  0.1502 -0.0005  0.0321
10765W        W26899  12.622  11.248  14.231 -0.1225  0.1199 -0.0248
10766W        W26900   3.036  13.536   4.847 -0.0994  0.2439  0.0256
10767W        W26901  17.818   2.080   2.629  0.0369 -0.0481  0.1859
10768W        W26902   7.525  17.766  14.346 -0.1866  0.0094  0.1720
10769W        W26903   1.616   2.703   1.482 -0.0887 -0.0884 -0.2217
10770W        W26904  17.735  12.380   2.736 -0.0642  0.1991 -0.1196
10771W        W26905   2.905  17.615   1.718 -0.0686  0.1283 -0.0503
10772W        W26906  16.353   1.297  15.910  0.0711  0.2213  0.1952
10773W        W26907   5.826   0.661   2.443 -0.0391 -0.1214 -0.3328
10774W        W26908   2.907  14.409   5.240  0.0122 -0.1813  0.0422
10775W        W26909  16.187  12.058   3.983 -0.0219 -0.1159 -0.1313
10776W        W26910   7.455   5.623   0.416  0.0293  0.1618  0.0145
10777W        W26911  13.347   2.734   2.868  0.2493  0.1577 -0.2306
10778W        W26912   0.500   3.886  14.598 -0.0882 -0.5566 -0.2061
10779W        W26913   5.188   7.860   2.093  0.0805  0.0710  0.2622
10780W        W26914  13.939  10.817   3.283  0.1992 -0.2764 -0.2206
10781W        W26915   1.191  15.862   5.477  0.0293 -0.2045  0.3606
10782W        W26916   8.204  17.242  14.407  0.1309  0.0812 -0.0217
10783W        W26917   2.514   2.504  15.460  0.3344  0.0405 -0.0174
10784W        W26918   0.342  14.261  15.148  0.1508  0.0738 -0.1717
10785W        W26919  14.704  14.893  15.324 -0.0623 -0.0917  0.1385
10786W        W26920   9.335  15.416   0.063 -0.4807 -0.3818  0.2280
10787W        W26921   4.813  16.221  14.440  0.0462 -0.1261  0.0842
10788W        W26922   0.704   7.477   1.192 -0.0249  0.2426 -0.0592
10789W        W26923   7.059  12.676   2.391 -0.1462  0.0551  0.2098
10790W        W26924   0.455   0.816  13.788 -0.0441  0.1044 -0.1231
10791W        W26925   9.131  14.996   4.404 -0.1722  0.0986  0.2375
10792W        W26926  15.747   8.502   3.787  0.1785  0.1182  0.3414
10793W        W26927  14.568   4.636  15.213 -0.2025  0.0716  0.1083
10794W        W26928  12.719   8.827  15.857 -0.1330 -0.0474 -0.0256
10795W        W26929   7.111   7.494  12.922  0.1657  0.1462 -0.2430
10796W        W26930   0.025  13.241  14.815  0.3530 -0.0860  0.1962
10797W        W26931   3.285  13.029   2.261 -0.1758  0.1912 -0.0807
10798W        W26932   7.796  14.836  14.225 -0.0812  0.0935 -0.0955
10799W        W26933  15.420  14.646  16.328  0.0501  0.0861 -0.0227
10800W        W26934   7.023   4.483  11.260 -0.1154  0.2631  0.1362
10801W        W26935   1.998   7.440  15.566  0.2038  0.3887 -0.1962
10802W        W26936   4.280  13.079  14.598 -0.2980  0.0075 -0.2354
10803W        W26937  15.824   1.893  13.100 -0.2271 -0.1216 -0.2403
10804W        W26938   9.676  13.978   4.235  0.0328 -0.1202 -0.1266
10805W        W26939  12.300   3.497   1.265 -0.1347  0.2056 -0.0156
10806W        W26940  12.812   2.531  14.535  0.0425  0.0321  0.1534
10807W        W26941   4.137  16.797   5.016 -0.1421 -0.4397 -0.2530
10808W        W26942   7.315   7.474  15.852 -0.0025  0.2043  0.2272
10809W        W26943   6.032  17.070  15.542  0.1786  0.0457  0.2047
10810W        W26944   4.972  16.011  15.960 -0.1878 -0.0239 -0.3800
10811W        W26945   2.588  11.259  11.321  0.2696  0.0660 -0.1336
10812W        W26946   7.918  16.938  15.080  0.1432  0.1254  0.0853
10813W        W26947   1.951  16.050   1.523  0.1922 -0.2756 -0.0022
10814W        W26948  16.694   2.826   4.432 -0.1128  0.0564  0.2120
10815W        W26949   5.204  11.545   2.490 -0.1606 -0.1879 -0.2045
10816W        W26950  15.434  14.738   3.480  0.1724  0.1177  0.1290
10817W        W26951  14.220   1.337   3.217  0.0752  0.0437  0.4931
10818W        W26952   6.372   5.029   0.827 -0.0301 -0.3288  0.0657
10819W        W26953   8.866   9.605   4.888 -0.2750  0.0083 -0.0664
10820W        W26954   3.241  12.176  15.085  0.3232  0.1359  0.1798
10821W        W26955  15.475   4.021  13.079 -0.1728 -0.1544  0.0749
10822W        W26956  11.683  17.866  14.418 -0.1964 -0.1293  0.0608
10823W        W26957   4.316   3.225   3.288 -0.3898  0.1219 -0.0824
10824W        W26958   8.311  16.182  12.527  0.1838  0.1850  0.1208
10825W        W26959   6.143   5.958   2.619 -0.0569 -0.3438 -0.1566
10826W        W26960  12.941   3.614  14.363  0.1032  0.0672 -0.3654
10827W        W26961   5.279  17.450   2.594  0.5208 -0.2185  0.3400
10828W        W26962   1.577   2.229  11.118 -0.0473  0.0662 -0.1294
10829W        W26963  10.457   0.254  14.346  0.2096 -0.2552 -0.2093
10830W        W26964   8.879   0.458  14.099  0.0500  0.0708 -0.0292
10831W        W26965  13.411   6.451  14.269 -0.1745  0.0208  0.0530
10832W        W26966   6.799   5.975  15.967  0.2700 -0.0063 -0.0263
10833W        W26967   9.959   8.624  12.432 -0.0021  0.2759 -0.0713
10834W        W26968   1.848  10.356  14.960 -0.0207  0.0552  0.1636
10835W        W26969  10.937  15.985  12.108 -0.2204 -0.0825  0.3138
10836W        W26970  11.318   5.875  13.892  0.0815 -0.0717 -0.1560
10837W        W26971   5.103  15.252  11.366  0.3792 -0.0520 -0.1029
10838W        W26972   3.945  16.686  13.488 -0.0518 -0.3071 -0.2880
10839W        W26973   1.610   8.261  12.749  0.2628  0.2682 -0.0614
10840W        W26974  16.567   1.064   0.483  0.0468  0.0213  0.0690
10841W        W26975  17.600  13.314   2.896 -0.1703 -0.0447 -0.1406
10842W        W26976   7.073   3.134   0.251 -0.2068 -0.0698 -0.0238
10843W        W26977  10.380   5.956   4.738  0.0563 -0.1159  0.1289
10844W        W26978  18.006   9.005   1.850  0.1050  0.0767  0.1660
10845W        W26979  13.917  15.528   5.529  0.0878  0.2246 -0.0731
10846W        W26980   6.586   6.132   2.587  0.0786  0.1646  0.3875
10847W        W26981  17.638  15.500   3.605 -0.4386 -0.2482 -0.1402
10848W        W26982  15.183  14.915   5.641 -0.2460 -0.0354  0.1049
10849W        W26983  14.078  12.468  12.744  0.0756  0.0437  0.1163
10850W        W26984   2.862   2.300   0.240  0.0264  0.0060  0.1376
10851W        W26985   1.680  14.435   0.485  0.0156  0.0089  0.1825
10852W        W26986  12.954  13.133  12.618  0.0463 -0.1512  0.1780
10853W        W26987  12.131   8.430  13.411 -0.0863  0.2162 -0.1043
10854W        W26988  13.126  17.789   0.913  0.1098 -0.1382 -0.0759
10855W        W26989   1.585  11.011   2.529  0.3187  0.1350  0.2592
10856W        W26990   4.035  12.181   3.205  0.0923  0.2064 -0.0228
10857W        W26991   6.832  10.982   3.274 -0.1406 -0.0107 -0.0545
10858W        W26992   9.915  17.880   0.859  0.1755  0.1617 -0.0527
10859W        W26993   3.010  14.552   4.102 -0.0206 -0.1956  0.0265
10860W        W26994  16.134   7.539  13.894  0.0028 -0.1121  0.0384
10861W        W26995   9.526   7.960  13.628  0.0354  0.3670 -0.1912
10862W        W26996   9.313   0.119  14.074  0.1962 -0.1398  0.0909
10863W        W26997  12.657  10.515   3.830  0.0679  0.0343 -0.0133
10864W        W26998  13.517   2.617  12.058 -0.2090  0.0625 -0.2180
10865W        W26999  13.139   7.420  16.027 -0.2758 -0.2337  0.2015
10866W        W27000   2.733  12.406  16.314 -0.2520 -0.3418  0.0147
10867W        W27001  17.773   0.105   4.562 -0.3737 -0.1244 -0.1727
10868W        W27002   9.093   7.510  13.947 -0.1500  0.2215 -0.1942
10869W        W27003  16.147   0.773  15.296 -0.2999 -0.1494  0.1701
10870W        W27004   8.489  10.755  15.343  0.0672  0.2387  0.1219
10871W        W27005  11.976   9.382   1.262 -0.4074 -0.0360  0.1513
10872W        W27006   7.718  15.237  14.525  0.1773 -0.0783 -0.0737
10873W        W27007  15.986  12.365   3.655  0.2131  0.2614  0.0239
10874W        W27008   1.417  14.956   0.446  0.4530  0.0126 -0.1681
10875W        W27009   5.278  13.941   4.673 -0.0001  0.3859 -0.0015
10876W        W27010  11.699   1.867  11.206 -0.3262  0.0762  0.3642
10877W        W27011   0.935  17.466   2.381 -0.0459  0.1860 -0.0171
10878W        W27012  10.881   6.622  12.287  0.1109 -0.2811 -0.0637
10879W        W27013  18.024  10.388  11.005  0.0944 -0.1105 -0.1860
10880W        W27014   5.892  14.128   0.047  0.5363  0.2881 -0.2424
10881W        W27015   9.030   5.440  12.102  0.1211  0.1816 -0.1041
10882W        W27016  18.064  17.861   2.824  0.0135  0.0627 -0.2648
10883W        W27017   9.605  15.480   2.058  0.3536 -0.0091  0.1728
10884W        W27018   9.639   6.308   2.552 -0.2506  0.0881  0.2421
10885W        W27019   4.993  11.709  13.513 -0.3687  0.0357 -0.0009
10886W        W27020  15.575  13.354   0.517 -0.0007  0.3952  0.0935
10887W        W27021   7.411   7.145  14.926  0.1640  0.1130 -0.0048
10888W        W27022  16.056  12.770   2.185  0.0613  0.2141 -0.1553
10889W        W27023   6.848   3.691   3.053 -0.0816 -0.1844  0.1982
10890W        W27024  13.118   0.418   4.389 -0.0015 -0.0424 -0.2397
10891W        W27025  15.804  11.587  15.877 -0.2474  0.1318  0.1142
10892W        W27026  12.029   1.467  16.238  0.2826  0.0838 -0.1805
10893W        W27027   0.959   6.924  10.813 -0.1270 -0.1570 -0.1954
10894W        W27028   5.448   7.221  14.767 -0.2753 -0.1422 -0.2121
10895W        W27029   8.718   1.940   1.977 -0.1617  0.3689 -0.0269
10896W        W27030  17.975   5.322  12.054  0.0519  0.1228  0.2218
10897W        W27031   5.911   9.865  14.824  0.2441 -0.0478  0.2682
10898W        W27032  17.734  12.988   5.294 -0.0477 -0.1779 -0.0194
10899W        W27033  13.438  17.224  11.688  0.0180  0.0443  0.1367
10900W        W27034  15.371  17.194  12.693  0.1307 -0.0728 -0.1027
10901W        W27035   3.359  11.038  14.660 -0.0711 -0.0233  0.2301
10902W        W27036  17.040  15.953   4.225  0.0812  0.3684  0.2167
10903W        W27037   0.708  10.254  15.030 -0.2251 -0.2677  0.1876
10904W        W27038  15.069  17.153   0.948  0.0399  0.4401  0.0563
10905W        W27039  10.381   4.217  14.225 -0.1040  0.0522 -0.3918
10906W        W27040   1.730  10.475  12.151  0.0794 -0.1304 -0.0487
10907W        W27041   2.815  10.640  15.322  0.0374 -0.2451 -0.1045
10908W        W27042  12.904   9.151   0.853  0.1968  0.0144 -0.2756
10909W        W27043  16.282  14.731  15.855  0.3273  0.1654 -0.1969
10910W        W27044  18.053   5.970   4.754  0.0493  0.1245  0.0505
10911W        W27045   4.211  17.089   2.009 -0.1482 -0.2442  0.0279
10912W        W27046   6.918   8.662  13.221  0.3857 -0.0408 -0.1111
10913W        W27047   1.636  16.038  15.440 -0.0794 -0.0803 -0.1042
10914W        W27048   4.390  12.482   0.151  0.0574  0.0293 -0.2054
10915W        W27049  12.422  10.040  12.963  0.1015  0.2386  0.0877
10916W        W27050   7.946  17.907  11.993  0.0003 -0.1323 -0.2304
10917W        W27051   5.588   7.768  15.783  0.1152 -0.2576 -0.0794
10918W        W27052   6.054   0.444  13.261 -0.2523  0.0388 -0.1673
10919W        W27053   0.774  16.660   4.898 -0.1688  0.1372  0.0478
10920W        W27054   1.231   8.823   5.563 -0.2616 -0.1717  0.2686
10921W        W27055  16.951   3.675  15.926 -0.2549 -0.0950 -0.1538
10922W        W27056   3.896  12.158   1.954 -0.0892  0.1457  0.1717
10923W        W27057  16.549   2.350   4.158  0.0460 -0.2492  0.0059
10924W        W27058  15.540   6.339  14.174 -0.0281 -0.1890 -0.0885
10925W        W27059  11.475   4.816   0.233  0.0579  0.0040 -0.0136
10926W        W27060   7.344   7.939   5.677  0.0025  0.1632 -0.0040
10927W        W27061   9.071   8.014   5.073 -0.2370  0.1774 -0.1244
10928W        W27062   4.161  13.728  11.295  0.0121 -0.0362 -0.1366
10929W        W27063   5.666  13.262  12.571 -0.0385 -0.1350  0.0320
10930W        W27064   6.246   7.253   0.724  0.2282 -0.2933  0.2849
10931W        W27065   3.646   1.214   3.994  0.1516 -0.2275  0.0136
10932W        W27066   8.513   0.280   4.058  0.1178 -0.0085  0.1753
10933W        W27067  18.089   8.235   5.947 -0.2157  0.3044 -0.1158
10934W        W27068  10.457  13.570   3.715 -0.1510  0.0176  0.1758
10935W        W27069   5.382   6.246   2.104  0.1300  0.1342 -0.0209
10936W        W27070   5.392   9.834  11.502  0.0938 -0.0408 -0.1504
10937W        W27071   9.052   5.937  13.679  0.4677  0.1953 -0.1541
10938W        W27072  15.987  15.631   5.649 -0.1220 -0.0968 -0.3109
10939W        W27073  12.346   8.001   2.060 -0.1521 -0.2750 -0.1102
10940W        W27074  15.673   3.151  14.074  0.1119  0.3046 -0.4173
10941W        W27075   2.821   2.575  11.524  0.2255  0.1541 -0.0181
10942W        W27076   0.783  12.203  13.830  0.1545 -0.0994 -0.3022
10943W        W27077   0.146  16.956   5.338 -0.0235 -0.1803 -0.2212
10944W        W27078   0.809  16.467  11.718  0.0035  0.1100  0.2901
10945W        W27079   4.541  11.035  15.333  0.0027  0.0396  0.1106
10946W        W27080   1.026  11.688   4.600  0.2827  0.0723 -0.5195
10947W        W27081   9.669   7.026   3.057 -0.2485  0.0750 -0.0746
10948W        W27082  16.602   2.813  15.448 -0.0321  0.0146 -0.0755
10949W        W27083   8.566   9.566  16.146  0.0374 -0.1506  0.1863
10950W        W27084  14.820   3.235   2.441 -0.0493  0.3321  0.0764
10951W        W27085   3.961  17.955   2.096 -0.0254  0.0828 -0.2646
10952W        W27086  12.742   1.952  14.381 -0.3829  0.2097 -0.2614
10953W        W27087   1.735   9.816  13.445 -0.0448 -0.2080 -0.0572
10954W        W27088  10.883   4.347  16.167  0.0218 -0.0122  0.2547
10955W        W27089  11.969  14.015  15.607  0.0640 -0.1411 -0.2049
10956W        W27090   8.644  13.859   3.878  0.1747 -0.0063  0.1410
10957W        W27091  15.068  17.829   4.294 -0.1938  0.0253  0.1479
10958W        W27092  12.731   4.015   4.610  0.2064  0.2125 -0.0406
10959W        W27093   9.357   4.068  16.064  0.0425  0.0165 -0.1044
10960W        W27094   9.315  11.607   0.371  0.3059  0.1647 -0.0696
10961W        W27095   8.304  10.013  15.399  0.1851 -0.1655 -0.0430
10962W        W27096  11.699  13.229   3.167 -0.0095  0.1010  0.1507
10963W        W27097   7.415   0.492  11.568 -0.2773  0.1831 -0.1893
10964W        W27098  16.913   4.379  13.123  0.0636  0.1659 -0.4033
10965W        W27099   9.731   0.968  13.966 -0.2043  0.1334  0.0953
10966W        W27100  10.956  11.822   1.239  0.2585  0.1218  0.3107
10967W        W27101   0.787   8.484   5.374 -0.0206  0.0979 -0.1957
10968W        W27102   8.611  16.960   0.917 -0.0317 -0.1939  0.0821
10969W        W27103  13.162  16.997   2.199  0.2089  0.2882  0.1315
10970W        W27104  12.982  10.106  13.278 -0.0472 -0.0550  0.2012
10971W        W27105   8.041   2.272  14.372 -0.0361 -0.0539 -0.1724
10972W        W27106  15.113  16.110  13.394  0.1098  0.0177  0.1819
10973W        W27107   8.499   3.285  15.225 -0.1298  0.3323  0.2710
10974W        W27108   5.060   9.848  12.023  0.2565 -0.0956 -0.1555
10975W        W27109  11.326  11.845   1.576 -0.3322 -0.0075  0.0478
10976W        W27110  13.401   7.229  14.408 -0.2129 -0.2392 -0.1857
10977W        W27111  17.495   2.822   5.595 -0.1108  0.0751 -0.0824
10978W        W27112  13.914  14.564  11.427  0.1192 -0.0020  0.0045
10979W        W27113  12.629   8.599  14.839  0.3393  0.0295 -0.0454
10980W        W27114   9.849  10.424   5.495  0.0252  0.2204 -0.1385
10981W        W27115  12.474   4.297   2.159  0.0849 -0.2309  0.0403
10982W        W27116  11.407   4.077   5.295 -0.0478  0.3622  0.0728
10983W        W27117   2.968   4.350  13.679 -0.0845  0.0723 -0.2361
10984W        W27118   1.308   8.222  13.224  0.0586 -0.0885 -0.0357
10985W        W27119   3.575  14.825  14.828  0.0103 -0.0618  0.2204
10986W        W27120  12.598  14.658   0.300  0.2023  0.2562 -0.0693
10987W        W27121   6.871   0.801   5.307 -0.0677  0.0269  0.2497
10988W        W27122   2.010   3.789   2.935  0.0043 -0.1596  0.2923
10989W        W27123   8.887   9.797   5.382 -0.0293  0.1008 -0.1291
10990W        W27124  16.446  12.394   4.346  0.0253 -0.0090  0.1932
10991W        W27125   1.303   8.908   3.229  0.0303  0.0497  0.0306
10992W        W27126   6.479   8.974   1.850  0.0359  0.2351  0.5468
10993W        W27127  17.273   8.800  12.250  0.0345  0.1041 -0.1360
10994W        W27128  13.318  13.952  11.084 -0.2882  0.0507 -0.2514
10995W        W27129  11.265   4.359  13.710  0.0696  0.2235 -0.3284
10996W        W27130  16.407   7.286  12.066  0.0153 -0.0349  0.1532
10997W        W27131   9.875   3.895   3.333  0.2448  0.2895  0.2421
10998W        W27132  17.261  15.271  13.813 -0.0685 -0.0334 -0.0288
10999W        W27133   4.392   1.325   4.539  0.4739  0.0184  0.1032
11000W        W27134  11.886   2.975   3.382 -0.1824  0.0295  0.0732
11001W        W27135   5.294   0.774  11.764 -0.1532 -0.2415 -0.0188
11002W        W27136   1.142  13.096  12.687  0.0510 -0.2212 -0.0437
11003W        W27137   1.750   1.576  13.149  0.0989 -0.0500  0.3190
11004W        W27138   7.655   3.551   2.021 -0.2492  0.0834  0.0843
11005W        W27139   3.098   1.199  13.579 -0.1124 -0.2248  0.2416
11006W        W27140  12.051  13.616   5.648 -0.0626 -0.5229 -0.0289
11007W        W27141   3.077   7.018   4.192  0.0713  0.0528  0.2230
11008W        W27142  15.311  16.016  14.876 -0.0065 -0.2299 -0.1391
11009W        W27143  16.894   6.834  13.442 -0.0863 -0.0681  0.1050
11010W        W27144   9.317   0.564   4.679  0.0044  0.1842 -0.3415
11011W        W27145  12.867  16.603   5.376  0.0955  0.1026 -0.1091
11012W        W27146   4.171  11.503   0.272 -0.0109 -0.0493  0.1990
11013W        W27147   5.093   1.653   4.806  0.3239 -0.1236  0.0691
11014W        W27148   2.099   2.029  16.190 -0.1443  0.2150  0.1184
11015W        W27149  13.280  17.234  14.431 -0.1212  0.3872 -0.1333
11016W        W27150   8.502  11.489  13.297 -0.0609 -0.1895  0.1978
11017W        W27151  15.152  11.556  15.998 -0.2543 -0.1482  0.2280
11018W        W27152  13.798   2.454  16.240  0.0887 -0.0717 -0.1457
11019W        W27153   2.439   5.343  14.178  0.1726  0.2077  0.0385
11020W        W27154   7.932   2.470  13.226 -0.3601 -0.2377 -0.0922
11021W        W27155  16.529  13.007  13.865 -0.0391 -0.0189 -0.0161
11022W        W27156   3.349   6.773   2.089  0.0140 -0.0719  0.0016
11023W        W27157   6.842   0.029  15.371 -0.1774  0.0230 -0.2114
11024W        W27158  17.497  12.003  14.255 -0.1269  0.1452  0.2713
11025W        W27159  16.336  17.921  12.319 -0.0536 -0.0141  0.0211
11026W        W27160  17.520   1.159  12.799  0.2637 -0.1348 -0.1879
11027W        W27161   2.948  11.089  16.172  0.1509  0.0547 -0.0446
11028W        W27162  17.636   4.664   5.026 -0.0561 -0.3716 -0.0293
11029W        W27163   1.720   0.452   2.090  0.3396 -0.1831  0.0125
11030W        W27164  13.269  14.788   2.676 -0.2381 -0.0317 -0.0231
11031W        W27165  17.780  12.839   3.041 -0.0626 -0.1294 -0.2343
11032W        W27166  16.184  15.521   2.414 -0.1864  0.1160  0.2421
11033W        W27167  13.221   7.867   0.043  0.4888 -0.3132 -0.1891
11034W        W27168  11.024  15.580   3.909  0.0302  0.2622  0.2227
11035W        W27169   0.194  15.029  12.523  0.0586  0.0143  0.1849
11036W        W27170   2.857  13.418  14.644 -0.0067  0.0755 -0.1147
11037W        W27171  15.133   8.788   4.265 -0.0837  0.0518  0.0190
11038W        W27172   6.083  17.750  14.653  0.0864  0.0439 -0.3158
11039W        W27173   1.381   5.743  14.806 -0.1227 -0.0948  0.1197
11040W        W27174  14.357   1.291  14.945 -0.1420 -0.2347  0.0498
11041W        W27175  16.859   3.249  16.216 -0.2666  0.1085  0.0596
11042W        W27176  12.599  11.696  12.992 -0.0841  0.0487 -0.3441
11043W        W27177   9.611  17.845   2.141 -0.3116 -0.0488 -0.2120
11044W        W27178  11.458  17.064  14.496  0.1997  0.1099 -0.1235
11045W        W27179   2.420   1.326  11.869  0.0184  0.1405 -0.1286
11046W        W27180  13.632   7.978  16.166  0.2848  0.2557  0.1495
11047W        W27181   1.232   6.679  12.181 -0.1954 -0.0996 -0.0151
11048W        W27182   2.550   4.162  11.552 -0.3238  0.0224  0.2047
11049W        W27183   9.864   1.207   1.509  0.0056 -0.0232  0.1840
11050W        W27184  15.511  16.246   4.341 -0.1606 -0.1726 -0.1558
11051W        W27185   9.916   3.710   1.818 -0.2710  0.0926  0.1237
11052W        W27186  12.746  13.184   2.770  0.0622  0.2032 -0.2303
11053W        W27187   2.205   5.146  11.150  0.0120  0.0377  0.2247
11054W        W27188   8.569   7.629   5.966 -0.3271 -0.1627 -0.0224
11055W        W27189   0.735  18.002   3.837  0.1722  0.0871  0.2336
11056W        W27190   4.074  11.538  14.115  0.1128  0.1309 -0.3332
11057W        W27191  11.726  14.728  14.198 -0.0590 -0.0390 -0.0260
11058W        W27192  13.349   3.493  10.251  0.0498  0.1079 -0.2446
11059W        W27193  10.639   6.260   1.847  0.1641  0.0896 -0.0496
11060W        W27194  12.516   3.570   5.111 -0.5292  0.0391  0.2537
11061W        W27195   9.409   7.477  15.486  0.2066  0.2198  0.1430
11062W        W27196   5.235  12.476   2.719  0.2477 -0.0305 -0.0114
11063W        W27197   5.954  17.434   5.025 -0.0370  0.1434 -0.0162
11064W        W27198  11.087   8.205  11.777 -0.1881 -0.3454 -0.0842
11065W        W27199  16.377  13.772  15.825 -0.2788  0.0696  0.5913
11066W        W27200   2.988  12.843   2.677  0.1543 -0.2138  0.0116
11067W        W27201   5.806   6.640   4.571  0.0560 -0.0373 -0.1428
11068W        W27202   6.125   8.303   3.070 -0.0621  0.0053  0.2000
11069W        W27203   1.258  10.776   5.786 -0.0013  0.1475 -0.3176
11070W        W27204  16.072   1.491  14.413 -0.2656 -0.3053 -0.1426
11071W        W27205  17.291  11.240   1.038 -0.3263  0.0598 -0.0285
11072W        W27206   2.541   0.948   2.692  0.2688  0.1485 -0.1953
11073W        W27207  15.255  11.820   1.706  0.2367  0.2634  0.0208
11074W        W27208   6.843  10.827  14.686 -0.0057  0.0466 -0.0266
11075W        W27209  14.707   0.339   3.582 -0.4350  0.2485 -0.0163
11076W        W27210   3.782   5.220   5.023 -0.0034  0.1978 -0.1393
11077W        W27211   9.196   4.228  12.802  0.1065  0.1864 -0.0543
11078W        W27212  16.846  10.506  11.396 -0.2847 -0.3618 -0.1032
11079W        W27213   1.753  14.205   4.236  0.0982 -0.2227 -0.0839
11080W        W27214  13.673   7.320  13.873  0.4558  0.2714  0.0358
11081W        W27215  13.346  16.511  14.069 -0.4349  0.0741 -0.0085
11082W        W27216   3.692   8.045   1.559  0.2689 -0.0804  0.0722
11083W        W27217  15.268   5.870   2.114 -0.1676 -0.1124 -0.1686
11084W        W27218  11.949   3.004   2.700 -0.3621  0.1527  0.0303
11085W        W27219   6.936   1.193  13.269  0.0250 -0.0403 -0.1427
11086W        W27220  11.248  12.343  13.455 -0.0658  0.0352 -0.0786
11087W        W27221   6.322   8.303  16.065 -0.0273  0.1086 -0.0691
11088W        W27222   8.486   9.273   5.201 -0.1766  0.3353  0.2115
11089W        W27223  17.978  12.758   4.887  0.2850  0.0253 -0.1775
11090W        W27224   5.087  13.332  15.781 -0.0204 -0.3296 -0.0465
11091W        W27225   2.004  16.526   3.365  0.2697  0.0923 -0.1901
11092W        W27226   8.984  11.847   4.587 -0.0529 -0.0938 -0.2624
11093W        W27227   0.480  12.488  14.543  0.0138 -0.1771  0.1714
11094W        W27228  13.162   7.256  13.942  0.0494 -0.1793  0.2404
11095W        W27229   2.996  16.752   0.058 -0.1979 -0.1663  0.0827
11096W        W27230  17.146  17.564   4.400 -0.0215  0.0221 -0.1638
11097W        W27231  16.767   1.917   4.280  0.0904  0.2124  0.2806
11098W        W27232  10.218   5.581  14.821  0.0841 -0.1518  0.0404
11099W        W27233   8.454  12.662   1.875 -0.0621  0.2496  0.0891
11100W        W27234   9.699   1.952   4.238 -0.1747  0.1757  0.1807
11101W        W27235   3.956  15.679   4.721  0.1668  0.0999  0.0546
11102W        W27236  10.991   7.654  12.339 -0.1913 -0.1069  0.0181
11103W        W27237  16.039   7.105   5.880  0.0167  0.0774  0.0985
11104W        W27238   7.116  14.112   2.042 -0.0043  0.2012  0.0126
11105W        W27239  11.105   5.170   4.422  0.2591  0.1500  0.1665
11106W        W27240   6.418   5.815  11.453  0.1388  0.3215 -0.0090
11107W        W27241   7.242  13.395   0.494 -0.0144 -0.0987  0.1606
11108W        W27242   3.606  17.143  13.596 -0.0423 -0.1129 -0.0369
11109W        W27243   3.117  15.503   0.200  0.1170  0.1172 -0.0077
11110W        W27244   5.550  16.676  11.841 -0.1990  0.1158 -0.0323
11111W        W27245   4.445  13.310   0.110 -0.0832  0.2952  0.0930
11112W        W27246  12.032  16.685   4.002  0.0005 -0.2281  0.0817
11113W        W27247   6.689  16.407  13.751 -0.1718 -0.3865  0.1281
11114W        W27248   9.593   7.958  13.146  0.0017 -0.1501  0.1875
11115W        W27249   0.593   5.249  11.410 -0.2038 -0.2722 -0.0741
11116W        W27250  17.477   4.070   0.696 -0.0953  0.4023 -0.1188
11117W        W27251   9.817  17.585  15.681 -0.3362  0.0037 -0.4158
11118W        W27252  12.194  13.154  16.047 -0.1120  0.5690  0.0231
11119W        W27253  12.825  16.388   3.648  0.1797  0.3016 -0.1121
11120W        W27254   2.717  11.561  15.340  0.1349 -0.3885  0.0728
11121W        W27255   3.563  12.172  12.534  0.0357  0.0668 -0.5914
11122W        W27256   7.277  13.407   2.593  0.3073  0.0914  0.2577
11123W        W27257   6.033   7.053  13.573 -0.3109  0.0984 -0.4187
11124W        W27258  14.209   2.609  13.469 -0.2868  0.3167 -0.1366
11125W        W27259   4.702  14.998  11.554  0.2027  0.0249 -0.2942
11126W        W27260  17.454  12.991   4.209 -0.0579  0.0384  0.1983
11127W        W27261   8.607   9.525  13.831 -0.2042 -0.0085 -0.4049
11128W        W27262   8.052   1.214  11.307  0.3234 -0.0945 -0.2401
11129W        W27263   5.213  10.256   0.153 -0.3753  0.2086 -0.2029
11130W        W27264  14.451   3.689   4.455 -0.2256 -0.3006  0.1845
11131W        W27265  13.248   0.613   2.041 -0.1460 -0.0265 -0.1521
11132W        W27266  12.170  13.994  14.847  0.0930  0.0185  0.2263
11133W        W27267  14.418  13.107  16.227 -0.0995  0.0303  0.0843
11134W        W27268  15.792  17.746   0.852 -0.0189  0.0319  0.2331
11135W        W27269  14.784  17.239  13.649 -0.1163 -0.0254 -0.0000
11136W        W27270  13.677   4.243   1.405 -0.0020 -0.2760 -0.0089
11137W        W27271  17.003   1.347   5.089 -0.2228  0.0941  0.1278
11138W        W27272   3.617   6.052   2.818 -0.0475  0.1583 -0.0683
11139W        W27273  11.877  10.371   5.081 -0.2272 -0.2139 -0.0892
11140W        W27274  11.943  16.502   0.781  0.1327  0.1999 -0.1623
11141W        W27275   1.388  14.302   0.842 -0.1075  0.0382  0.0321
11142W        W27276   0.965   6.829   5.851  0.1659  0.3122  0.2667
11143W        W27277   8.841  14.681   4.825 -0.0369  0.0389 -0.3051
11144W        W27278   6.588  15.311   5.806  0.2091 -0.1668  0.0384
11145W        W27279   9.130   1.068  14.925 -0.0140  0.0477  0.2515
11146W        W27280   4.946   4.587  15.906 -0.0917 -0.1118  0.2613
11147W        W27281   0.373   3.895  13.459  0.0479 -0.0037  0.1034
11148W        W27282   5.589   5.010  10.254 -0.0308 -0.0531  0.1460
11149W        W27283  16.193   0.156   3.183  0.0181 -0.0586  0.0058
11150W        W27284  13.433  12.711  11.340 -0.2880  0.3139  0.1044
11151W        W27285  14.869  12.232   0.034 -0.0153  0.1421 -0.1294
11152W        W27286   9.178   9.169   2.138 -0.0245 -0.2197 -0.0821
11153W        W27287   5.140  16.270   4.935 -0.0549  0.0906  0.3573
11154W        W27288   2.984  15.431  16.145 -0.2561  0.2204 -0.0535
11155W        W27289  15.526   9.792   4.205  0.1877  0.1795  0.2631
11156W        W27290  10.845   2.067   5.305  0.1436 -0.0117  0.1667
11157W        W27291   8.227   7.817  14.097 -0.0732 -0.0488 -0.1309
11158W        W27292   4.186  17.109   2.660 -0.0285 -0.0005  0.0755
11159W        W27293  10.590  15.881   0.647  0.0210  0.2049 -0.2243
11160W        W27294   3.694   8.781   1.570 -0.1365  0.0254  0.1524
11161W        W27295  12.908  16.471   2.834 -0.3340  0.0324 -0.0928
11162W        W27296   4.441  15.486  13.947  0.0876  0.1142 -0.0238
11163W        W27297  13.877   0.191   0.965 -0.1965  0.0856  0.1847
11164W        W27298  15.345   9.120   0.064 -0.1350  0.1049 -0.1142
11165W        W27299   7.552  11.946  10.916  0.0449  0.1256  0.1738
11166W        W27300   6.327   7.123  16.011  0.1060  0.1929  0.0742
11167W        W27301   3.141   5.990  11.535  0.0955  0.1093  0.0860
11168W        W27302  17.738   9.287   1.277  0.1556 -0.3458 -0.1402
11169W        W27303   8.968   4.429  15.322 -0.1822  0.0653  0.0669
11170W        W27304  13.088  13.143  10.513  0.0542  0.2958 -0.3252
11171W        W27305  13.567  14.887   1.510  0.1318 -0.0398  0.3329
11172W        W27306   2.949   9.168  11.522  0.1230 -0.1022  0.3388
11173W        W27307   0.071   6.915  14.780 -0.1587  0.1323  0.2561
11174W        W27308  12.779  13.993  15.864  0.2140 -0.4233  0.2824
11175W        W27309   5.651   7.076  11.141  0.1775  0.0464 -0.1266
11176W        W27310  10.176   2.946   2.946  0.0809 -0.1808 -0.0609
11177W        W27311  14.033  11.601  14.024  0.0133 -0.1700 -0.3444
11178W        W27312  15.404   7.115  16.277 -0.0585 -0.2525 -0.1579
11179W        W27313   1.494  15.272   2.029 -0.0149  0.1341 -0.1160
11180W        W27314   3.165  17.327   4.873  0.0370  0.2731 -0.1642
11181W        W27315   9.437  11.330   5.655 -0.2740 -0.2621 -0.1219
11182W        W27316   8.960   3.425  15.126 -0.0380  0.0496  0.2506
11183W        W27317  12.146  16.029   0.007  0.1112 -0.1098 -0.2594
11184W        W27318   1.034  15.932   1.528 -0.2143  0.1681 -0.3656
11185W        W27319  15.849  13.138   5.386  0.0144 -0.0484 -0.0740
11186W        W27320  10.694  14.472   3.179 -0.1685 -0.0176 -0.0982
11187W        W27321  11.322  11.059   0.066  0.1819 -0.1013 -0.1513
11188W        W27322   5.865   4.718   0.146 -0.2655 -0.2024 -0.0629
11189W        W27323   3.522   5.300   1.233  0.0584 -0.0872  0.1616
11190W        W27324   7.121  10.926   4.162  0.0396 -0.0204 -0.1521
11191W        W27325   6.340  12.775   3.065  0.1435  0.0195  0.2383
11192W        W27326   9.566  13.679   5.308 -0.2251  0.0973  0.0621
11193W        W27327   3.013  13.628   1.233  0.0766 -0.3149 -0.0009
11194W        W27328   3.927  16.842   3.815 -0.1716  0.4063  0.3028
11195W        W27329   6.383  13.933   2.613  0.3113  0.3920  0.1694
11196W        W27330  12.893   9.242   4.389  0.1862  0.1213  0.1291
11197W        W27331   0.790   2.752   0.923  0.1797 -0.1285  0.1136
11198W        W27332   4.501  14.964   5.516 -0.0864 -0.0339 -0.0493
11199W        W27333  13.967  18.066  13.948 -0.0995 -0.2397 -0.2337
11200W        W27334  14.718  10.435  15.128 -0.0221  0.1001 -0.2249
11201W        W27335  15.166  10.499   1.301 -0.0699  0.1653 -0.1917
11202W        W27336  15.015  10.743  13.073 -0.1417  0.1730  0.0319
11203W        W27337  17.412  11.171  11.804  0.0993 -0.2392  0.1487
11204W        W27338   4.771  14.357  13.129  0.0785 -0.0478  0.2013
11205W        W27339   2.247  13.396   4.612 -0.1243  0.4389  0.0130
11206W        W27340   8.576  17.090   0.231 -0.1695  0.0930 -0.1420
11207W        W27341   7.625   1.036  15.201 -0.2863  0.0064 -0.1211
11208W        W27342   7.740   9.769   0.547  0.1035 -0.2701 -0.1515
11209W        W27343  13.808  14.870   6.202  0.0055  0.0106 -0.0706
11210W        W27344  11.962   8.949   3.635  0.2827  0.0920  0.0055
11211W        W27345  10.389   9.824   0.985 -0.1623  0.0935  0.0127
11212W        W27346   5.484   5.800   3.133  0.1393  0.1698 -0.0637
11213W        W27347  16.690  16.116   0.627 -0.0180  0.1074 -0.0897
11214W        W27348  12.101   8.309   1.703  0.1784  0.0983  0.1486
11215W        W27349   2.774   7.123  15.664  0.0250 -0.0054  0.0793
11216W        W27350  13.100   9.516  14.732  0.1838  0.0563  0.1169
11217W        W27351   3.000  15.952  12.870  0.2890 -0.0271 -0.1306
11218W        W27352   2.606   9.898   0.607 -0.1333 -0.0901 -0.2493
11219W        W27353   4.539  14.224   1.706  0.1421 -0.2437 -0.0064
11220W        W27354   7.822  16.832  14.302  0.0355 -0.0801 -0.1560
11221W        W27355   9.893  10.024   4.536 -0.1642 -0.0405  0.1657
11222W        W27356   9.423   3.414  12.740 -0.1918 -0.1441 -0.2094
11223W        W27357  12.926   0.743  10.688  0.0095 -0.0478  0.2268
11224W        W27358  12.437   0.047  16.371 -0.1040 -0.0674  0.1236
11225W        W27359  11.226  15.478  15.695 -0.1835  0.0315 -0.2627
11226W        W27360   0.895   7.669  16.202  0.1027  0.0558  0.0563
11227W        W27361   7.328   7.741  12.500  0.1151 -0.0263  0.0749
11228W        W27362   3.150   6.499  10.968 -0.1299  0.0252 -0.1939
11229W        W27363   0.021  16.012  15.608 -0.0422 -0.0273  0.0110
11230W        W27364  11.726  10.319   0.402  0.2232  0.1638  0.0347
11231W        W27365  14.263  17.316  15.395  0.1950 -0.2802 -0.0306
11232W        W27366  11.471  14.659   6.406 -0.1822 -0.0293  0.1898
11233W        W27367  11.409   1.269  15.032  0.0312 -0.2457  0.3932
11234W        W27368  16.023  12.905   1.473 -0.1953 -0.1045  0.1400
11235W        W27369  10.386  10.310  15.956 -0.1262  0.1087  0.0165
11236W        W27370   2.712   6.743   1.762 -0.0731 -0.2249  0.2148
11237W        W27371   7.074  14.116   3.044 -0.2759 -0.0197  0.0005
11238W        W27372   9.166  13.732  12.557  0.1250 -0.4248 -0.4606
11239W        W27373   9.182   6.602  13.590  0.1381  0.1505  0.1148
11240W        W27374   6.797  14.623   4.423 -0.1069 -0.1606 -0.2779
11241W        W27375  13.785  15.910   4.696 -0.3365 -0.3329  0.0615
11242W        W27376   9.350  11.352   0.825  0.1557 -0.0125  0.0706
11243W        W27377   7.570   8.590   4.681  0.3757  0.0900  0.1585
11244W        W27378   6.899   2.212   2.487 -0.1125 -0.3127 -0.1189
11245W        W27379   9.979   6.110  11.374 -0.1090  0.2763  0.1110
11246W        W27380   6.194  11.389   5.556 -0.0493  0.0536 -0.1218
11247W        W27381   7.895   9.764   5.259 -0.0301  0.2988  0.0111
11248W        W27382   5.987   7.634   0.494  0.4144  0.0404 -0.0771
11249W        W27383   1.045   7.880  14.092  0.0397  0.0735 -0.2652
11250W        W27384   2.769   1.646  11.516 -0.0660  0.3672 -0.1960
11251W        W27385  15.979  11.513   2.130  0.0001  0.0254 -0.1407
11252W        W27386   8.987  10.668  15.146  0.3158 -0.0449 -0.0184
11253W        W27387  15.204   2.281  11.407 -0.2377 -0.0597  0.0122
11254W        W27388   0.906   7.886  15.775  0.0034  0.0868  0.2967
11255W        W27389   7.781  17.138  12.275  0.1576  0.1940  0.1576
11256W        W27390  10.294  12.420   2.451  0.2372 -0.2309  0.0019
11257W        W27391  11.885   7.792   2.692  0.0658  0.2414  0.0312
11258W        W27392   2.139   3.356   4.636  0.1762  0.3725 -0.2667
11259W        W27393  15.488  15.849  11.620 -0.1606  0.2152 -0.0417
11260W        W27394  14.699  17.300  11.439  0.0713 -0.3435 -0.3950
11261W        W27395   6.878   3.287  13.896  0.2099  0.0056  0.0549
11262W        W27396   5.873   2.794  14.408  0.1561 -0.0467  0.2795
11263W        W27397  15.336  10.875   3.924  0.1961 -0.0223  0.1162
11264W        W27398   3.942   7.618  12.280 -0.2636 -0.0786  0.0249
11265W        W27399   8.769   1.872   3.319 -0.0779  0.0306  0.0396
11266W        W27400   6.348   7.451  11.756  0.1185 -0.1163 -0.0235
11267W        W27401   7.728   1.586  12.605 -0.0076  0.0763 -0.1850
11268W        W27402  17.270  12.764  14.302  0.0470  0.2494 -0.1018
11269W        W27403  11.626   3.128   1.907  0.0566  0.1151 -0.1405
11270W        W27404   0.266   9.389  16.060  0.0230 -0.1084  0.3815
11271W        W27405   1.448  14.860   4.442 -0.1621 -0.0093  0.0962
11272W        W27406   1.622   8.280  16.161 -0.0439 -0.1696 -0.0390
11273W        W27407   1.800   5.471   4.827 -0.0032  0.0501 -0.0526
11274W        W27408  11.299  13.468  14.723  0.1496 -0.0683  0.2824
11275W        W27409   6.416   9.002  15.621  0.0429  0.0207  0.4393
11276W        W27410   6.687  12.382  13.991 -0.0695  0.1152 -0.1255
11277W        W27411  11.496   0.673  14.133 -0.2987 -0.2007  0.0371
11278W        W27412  10.245   6.833   2.939 -0.0189  0.2477  0.0385
11279W        W27413   8.966  10.392  14.727  0.0142  0.0278 -0.0372
11280W        W27414  10.748  10.549   1.634 -0.2205 -0.0365 -0.0117
11281W        W27415  13.903  14.517   3.407 -0.1454 -0.0954 -0.0228
11282W        W27416  12.814   3.726  12.771  0.0700  0.1118 -0.0193
11283W        W27417   2.700  17.781  14.197 -0.2129  0.0464  0.0335
11284W        W27418  11.514  14.711  15.207 -0.2034 -0.0610 -0.1558
11285W        W27419   1.711  17.977   3.491  0.0918 -0.0253  0.1137
11286W        W27420   5.451  12.246   5.483  0.0998  0.1119 -0.2184
11287W        W27421  17.392   1.710   4.888  0.0782  0.0301  0.1453
11288W        W27422  16.186  15.391   0.527 -0.0763  0.1554 -0.0258
11289W        W27423   4.717   9.666   0.219 -0.1537  0.0356  0.2455
11290W        W27424  16.395   4.548   3.564 -0.0754 -0.3629 -0.0368
11291W        W27425  17.908   5.356   3.511  0.2246  0.0938 -0.1705
11292W        W27426   9.735   4.210  15.014  0.0427  0.2622 -0.0243
11293W        W27427  11.380   4.310   1.699  0.1084 -0.0063 -0.1070
11294W        W27428  10.539   3.761   4.528 -0.2465  0.1107 -0.0706
11295W        W27429   9.920   3.671  15.147 -0.1291 -0.2200  0.3891
11296W        W27430  15.977  13.438   3.383 -0.1134 -0.0162 -0.0902
11297W        W27431  17.496  13.314  12.269 -0.1153  0.0783 -0.0582
11298W        W27432   7.561  13.257  13.628  0.2177 -0.1921 -0.3030
11299W        W27433  16.704   3.194  14.266  0.1025  0.3572 -0.1723
11300W        W27434   7.032  14.921  14.992  0.0849  0.2395 -0.1761
11301W        W27435   2.286   9.822   4.186 -0.3617 -0.0269 -0.1881
11302W        W27436  12.612  13.074   4.598  0.2011 -0.1432  0.1798
11303W        W27437   6.011  15.204  12.272 -0.0732 -0.0177 -0.0100
11304W        W27438   7.098   0.469  12.075 -0.1106  0.1320 -0.1833
11305W        W27439   3.229   9.721   3.874  0.0830  0.0408 -0.0819
11306W        W27440   4.835   6.233  13.808  0.0193  0.1176 -0.0030
11307W        W27441   2.194  12.789  12.214 -0.0206 -0.0707 -0.0678
11308W        W27442  17.397  14.233   5.420 -0.2879 -0.2554 -0.0582
11309W        W27443   8.375   4.563   4.434  0.0766 -0.0801  0.1844
11310W        W27444   0.067   6.868  11.930  0.0349 -0.0391  0.1389
11311W        W27445   4.436  13.473  12.197 -0.0398 -0.0666  0.0142
11312W        W27446  15.466   9.174  12.363  0.0733  0.2240  0.0552
11313W        W27447  17.580  15.688   4.116  0.0469 -0.2155 -0.0107
11314W        W27448  17.276  15.453  13.334 -0.2151 -0.2307  0.3182
11315W        W27449   7.522  16.353   5.300 -0.0432  0.3141 -0.2938
11316W        W27450  17.098  13.203   5.699 -0.2724 -0.0238  0.2601
11317W        W27451   0.827  17.693  12.686 -0.4118 -0.3004  0.0598
11318W        W27452   4.353   2.037   2.497  0.0257 -0.2005 -0.2319
11319W        W27453   4.251   2.971  14.189  0.0005 -0.0810 -0.0963
11320W        W27454  15.922   6.218  13.248  0.0365 -0.4195  0.1505
11321W        W27455   7.143   7.263   1.563 -0.2833  0.0082 -0.1781
11322W        W27456  10.224   6.344   3.220 -0.0837  0.1111 -0.1296
11323W        W27457   1.480  14.363   1.317 -0.1658 -0.0649 -0.1390
11324W        W27458   6.356   1.058   0.659  0.0173  0.0747  0.1499
11325W        W27459   7.691  16.085  16.242  0.2419  0.2053 -0.0311
11326W        W27460  17.354   8.229   0.757  0.1550  0.4254 -0.0135
11327W        W27461  16.321   8.210   3.533 -0.1226 -0.1078 -0.1295
11328W        W27462  14.257   7.202  15.757 -0.0827 -0.0048 -0.1198
11329W        W27463   8.162   4.440  13.829  0.0183  0.0998 -0.0088
11330W        W27464   9.425   1.293   5.216  0.0835  0.2985 -0.0050
11331W        W27465   0.382   6.416   0.321 -0.0357  0.0481 -0.3631
11332W        W27466   9.677   7.434   1.468  0.3426 -0.0706 -0.4492
11333W        W27467  15.237   1.424   5.982 -0.0188 -0.1287 -0.0081
11334W        W27468   8.546   6.676   5.262 -0.0209 -0.1238  0.0291
11335W        W27469   8.867  15.054   2.183 -0.1197 -0.1475  0.1891
11336W        W27470   7.794   2.468   0.946 -0.1772 -0.2361  0.1577
11337W        W27471   6.065   3.260   2.857  0.2791  0.0193 -0.1482
11338W        W27472  14.663   0.340  12.471  0.1149  0.0595 -0.2646
11339W        W27473  10.659  16.832   2.826  0.0491 -0.0789  0.2071
11340W        W27474  17.560  10.012  12.396 -0.0017 -0.0398  0.0625
11341W        W27475   6.695   1.831  12.306  0.0359  0.0352  0.0772
11342W        W27476   6.108   3.198   1.942 -0.0466 -0.1361 -0.2166
11343W        W27477  14.126   9.309  11.907  0.4057  0.0206 -0.2451
11344W        W27478   3.323  12.979  15.629  0.3779 -0.1349  0.3937
11345W        W27479   8.960   3.972   2.780  0.3201 -0.4087  0.0889
11346W        W27480   6.332   7.916   3.455 -0.1014  0.0324 -0.2788
11347W        W27481   8.344  11.800  14.025 -0.2547  0.0743 -0.0626
11348W        W27482   7.536   7.747   0.676  0.1528 -0.1690  0.0991
11349W        W27483   9.702   4.622  14.641  0.1061  0.0305 -0.0676
11350W        W27484  17.226  14.648   1.793 -0.0672 -0.0727 -0.1686
11351W        W27485  17.896   7.733  13.118 -0.0347  0.1570 -0.3576
11352W        W27486  17.904   2.789   5.979 -0.2988  0.0284 -0.0033
11353W        W27487   1.470   5.852  12.582 -0.0929  0.0678 -0.1885
11354W        W27488   2.661   1.855  12.590  0.0553 -0.1285  0.0781
11355W        W27489   3.220   1.744   3.231 -0.2096  0.0181 -0.1473
11356W        W27490  15.064  16.823  10.895  0.2984 -0.1713  0.0989
11357W        W27491   4.810   4.001   5.647 -0.2444  0.2443 -0.0777
11358W        W27492  10.860   8.394  14.214  0.0854  0.0253 -0.1755
11359W        W27493  17.847   0.709   3.143  0.4170  0.0311  0.0694
11360W        W27494   9.280   6.253   2.917 -0.1595 -0.0214  0.3348
11361W        W27495  12.538   8.073   5.234 -0.1443 -0.1431 -0.0125
11362W        W27496  15.460   3.572   3.705  0.1674  0.3518  0.3940
11363W        W27497  16.647  14.488   4.754  0.1027  0.0744 -0.0554
11364W        W27498  15.172  13.670   0.244  0.0274 -0.2089 -0.1830
11365W        W27499  12.775   2.888  11.744  0.0595 -0.1209 -0.2674
11366W        W27500  14.048   3.446  12.690  0.2205  0.0708  0.1374
11367W        W27501   3.500   8.147  15.172  0.1516  0.0235  0.0243
11368W        W27502   8.827   6.938  11.082 -0.1542 -0.0108 -0.1621
11369W        W27503  17.671  17.357   4.399 -0.1980  0.1496 -0.2294
11370W        W27504  16.263  14.804   4.592 -0.0063 -0.0816 -0.2282
11371W        W27505   0.681   4.794  12.619 -0.2764 -0.0281  0.1120
11372W        W27506   8.070  16.268   0.602  0.1423  0.4275 -0.0378
11373W        W27507   3.885  17.561  13.120  0.0422  0.2090  0.0687
11374W        W27508  14.625   2.452   0.416 -0.0217 -0.2903 -0.1316
11375W        W27509  17.246  12.884  16.197 -0.1386 -0.0261  0.0700
11376W        W27510  13.962   7.748   1.713  0.1305  0.2674  0.1434
11377W        W27511   5.286   6.484   1.243  0.0596  0.2920  0.0394
11378W        W27512   5.604  12.964  16.120  0.0857  0.1615 -0.0274
11379W        W27513   6.486   7.200  15.313 -0.0843  0.1394 -0.0237
11380W        W27514   2.568   8.206  15.628  0.1400  0.0108 -0.1706
11381W        W27515  16.292   2.930  13.422 -0.2908 -0.4854 -0.1504
11382W        W27516   5.157   9.066   4.543  0.0800  0.0421  0.0366
11383W        W27517   6.487  16.469  12.239  0.3136 -0.1335 -0.0992
11384W        W27518   5.008  15.421  12.405  0.2894 -0.0496  0.1551
11385W        W27519   1.600  15.232   2.511  0.1343 -0.0786  0.0655
11386W        W27520   3.903   0.170   4.072  0.2424 -0.1746 -0.2582
11387W        W27521   8.966  15.551  14.499  0.2955  0.1496 -0.0664
11388W        W27522  16.385  17.025   2.169  0.1941 -0.1363  0.1276
11389W        W27523  11.970   6.612   3.420 -0.0865 -0.2938  0.0627
11390W        W27524   4.371   9.449  16.315 -0.0633  0.2503  0.1274
11391W        W27525  10.648   3.738  14.248 -0.1552  0.0685 -0.2494
11392W        W27526   5.902  14.944   1.919 -0.0372 -0.0506  0.2215
11393W        W27527  17.659   5.183   4.734 -0.2192  0.2814 -0.1953
11394W        W27528   1.840   6.544   1.408  0.2239 -0.0170  0.0210
11395W        W27529   1.233   7.233   5.813 -0.1809 -0.1183 -0.1113
11396W        W27530   4.303   8.344  13.626  0.2900 -0.0206  0.0496
11397W        W27531   0.007  16.741   2.615 -0.2988  0.1397 -0.0559
11398W        W27532   4.817  17.395  12.750  0.0619  0.0540  0.2037
11399W        W27533  11.430  16.503   2.402  0.0519  0.2692 -0.0083
11400W        W27534  17.401  15.709   2.646  0.1803  0.2152  0.0108
11401W        W27535  15.548   9.190   2.003  0.1930  0.2019  0.1537
11402W        W27536  15.500   1.334   1.793  0.2377 -0.0170  0.1472
11403W        W27537   7.023   0.041   4.228  0.1994  0.1039 -0.1009
11404W        W27538  14.883   5.665  16.081 -0.3407  0.2792 -0.2551
11405W        W27539   4.962   5.860  12.376  0.1406  0.0817 -0.2216
11406W        W27540   6.194  17.687  11.589  0.0912 -0.5505  0.0820
11407W        W27541   0.418  10.799   1.833  0.0130 -0.1798  0.0092
11408W        W27542   0.999  10.290   4.001  0.2297 -0.1329  0.1135
11409W        W27543   0.545  15.142  13.451 -0.1530  0.2178 -0.0580
11410W        W27544  13.437   3.770   1.189 -0.1386 -0.0167  0.0287
11411W        W27545   1.642  14.533  14.787 -0.1943 -0.2176 -0.0914
11412W        W27546  16.871  15.752  13.360 -0.0561 -0.0646 -0.1519
11413W        W27547  11.324  10.989   5.781 -0.0815 -0.1869  0.1552
11414W        W27548   9.377   0.452  14.938  0.0241  0.0145 -0.1748
11415W        W27549   9.896   2.236  14.658  0.3042 -0.2132 -0.2733
11416W        W27550   9.619  11.266  11.342 -0.1055 -0.3688  0.1743
11417W        W27551   4.883  15.701   4.759 -0.1229  0.1778 -0.2655
11418W        W27552   7.671  14.033  14.875 -0.4335  0.0382 -0.2779
11419W        W27553  17.438   5.621  12.100  0.0481 -0.0383  0.0830
11420W        W27554  15.709   7.978   2.185 -0.1902  0.2001 -0.0341
11421W        W27555   8.567  12.317  13.794  0.3865 -0.0099 -0.0778
11422W        W27556   1.837   3.707  14.251 -0.3244 -0.1658  0.2167
11423W        W27557   0.863   2.458   2.214  0.1325  0.0316 -0.0898
11424W        W27558   0.042  14.920   4.430  0.0190 -0.2025 -0.0610
11425W        W27559   3.619  14.604  16.279  0.0453 -0.2307  0.0336
11426W        W27560  10.329   8.151  13.799 -0.0467  0.4416  0.1515
11427W        W27561   6.473  13.703  15.632  0.0411  0.1853  0.2567
11428W        W27562  14.957   6.294  13.066 -0.1718  0.3190  0.0509
11429W        W27563   7.546  13.837   1.425  0.0623 -0.3464  0.0397
11430W        W27564   5.694   6.324  15.880 -0.1311  0.3056  0.3438
11431W        W27565   9.720   1.218   3.781  0.1544  0.0800  0.0055
11432W        W27566   5.735  14.255  12.101  0.1235  0.1834 -0.1529
11433W        W27567   5.396   3.973  15.323 -0.2577 -0.2521  0.1142
11434W        W27568  15.213   1.018   0.108 -0.0196 -0.2487 -0.0923
11435W        W27569  17.165  14.310   3.385  0.1861  0.0420  0.1828
11436W        W27570   7.876  14.406   0.701 -0.1569  0.0933 -0.2131
11437W        W27571  17.952   0.449  14.937  0.4050  0.0634  0.0007
11438W        W27572   6.245  13.089   3.460  0.1732  0.0430 -0.1492
11439W        W27573   7.413   0.020  11.473  0.0107  0.0164 -0.1726
11440W        W27574  16.916  15.865  11.747 -0.2060 -0.2292  0.0381
11441W        W27575   3.982   8.421  11.834  0.1943  0.1161  0.2536
11442W        W27576   4.013   7.800   2.836  0.1147 -0.0962 -0.2028
11443W        W27577  13.068   0.474  14.118 -0.0598  0.1654  0.0751
11444W        W27578   0.790   7.885  14.582 -0.0133 -0.0221 -0.1682
11445W        W27579  14.571  12.804  14.864  0.1385 -0.1144 -0.0396
11446W        W27580   5.033  12.780  13.900  0.0227  0.1001 -0.0749
11447W        W27581   1.716  14.691   0.922  0.1527 -0.1854  0.2309
11448W        W27582  12.339  16.141   5.233 -0.1126 -0.1201  0.1476
11449W        W27583   2.724  13.243   4.625  0.3573 -0.1995  0.0712
11450W        W27584  17.681  11.568   1.927 -0.2091 -0.3921  0.0302
11451W        W27585  11.497  12.821   0.198  0.0676  0.0649 -0.2267
11452W        W27586  12.028   2.365  15.487  0.0866  0.3315 -0.0339
11453W        W27587   8.955  14.119   3.609  0.0451 -0.1002  0.3451
11454W        W27588   5.934   8.382   1.907  0.0607 -0.1931 -0.2741
11455W        W27589   2.053   3.222  15.536 -0.0785  0.0536  0.1964
11456W        W27590  16.696   5.099  11.308  0.2282  0.0311 -0.0621
11457W        W27591   1.364   1.005   2.546  0.0390  0.3261 -0.1672
11458W        W27592  17.206   5.349  13.608 -0.1453 -0.0018  0.3004
11459W        W27593   0.015  17.580  11.605  0.0991 -0.2400 -0.0464
11460W        W27594   5.548  10.229  14.699 -0.0018 -0.1840  0.2545
11461W        W27595  11.069   1.452   3.649  0.1989 -0.0611  0.3407
11462W        W27596   8.711   2.731   4.969  0.2185 -0.1285  0.1453
11463W        W27597  15.899  14.935   5.023  0.0253 -0.0654 -0.1197
11464W        W27598  16.600   7.772  13.697 -0.1753  0.3343 -0.0191
11465W        W27599   7.362   8.552   0.379  0.1339 -0.0127 -0.0446
11466W        W27600   6.778   4.856  11.397  0.2067 -0.0022  0.1370
11467W        W27601   0.216  10.219  15.519  0.0273  0.2713  0.1539
11468W        W27602   7.748  17.256  13.614 -0.0872 -0.1907  0.0694
11469W        W27603   8.453   8.860   2.527  0.0436 -0.1828  0.2064
11470W        W27604   6.152   6.713  15.376 -0.0276  0.2603  0.1695
11471W        W27605   3.954   9.227  10.983  0.0326 -0.2142  0.2942
11472W        W27606   6.827  10.070   3.397  0.0073  0.0071 -0.1163
11473W        W27607   7.468  10.501  12.063  0.1682  0.2125  0.4617
11474W        W27608   9.959   5.444  15.212  0.1761  0.0391 -0.2043
11475W        W27609   4.250  11.442   2.529  0.1566  0.1015 -0.0312
11476W        W27610  15.052   3.833  15.092  0.3191 -0.0613 -0.2062
11477W        W27611   1.824  17.391   2.223  0.0481 -0.2346 -0.0884
11478W        W27612   4.865  14.794  15.498  0.1792 -0.0797 -0.1519
11479W        W27613  16.963   1.838  15.828 -0.1498  0.1925 -0.1661
11480W        W27614  13.883   1.804  14.220  0.3044  0.0654  0.0578
11481W        W27615   6.036  17.090  12.262 -0.0531  0.0716  0.0872
11482W        W27616  14.578  14.632  15.706 -0.2653  0.1629 -0.0627
11483W        W27617   8.459  16.471  13.746  0.2756  0.0677 -0.0450
11484W        W27618   5.970   6.018   1.927 -0.1433 -0.1719 -0.4170
11485W        W27619  17.769  11.259   5.348  0.3973 -0.0054 -0.1651
11486W        W27620  11.093   9.174  14.531  0.3534  0.0118 -0.3951
11487W        W27621   7.348   6.301  12.136  0.0311  0.2905  0.1440
11488W        W27622  12.280  14.346   2.199 -0.0316 -0.0169  0.1970
11489W        W27623   0.045   6.159  12.489 -0.0875 -0.0791  0.0973
11490W        W27624   8.701  17.702   4.595 -0.0666 -0.1999  0.3423
11491W        W27625   3.743   8.808  15.515  0.1873  0.1593  0.2887
11492W        W27626   5.981  11.991  15.900  0.1023 -0.0197  0.0416
11493W        W27627   2.794  14.455   0.498 -0.1595  0.2039  0.0010
11494W        W27628  16.181  12.370   2.489  0.4113  0.0237 -0.0584
11495W        W27629   4.370   5.433   2.312  0.3887  0.0360 -0.2519
11496W        W27630  10.609  10.810  14.122 -0.2449  0.1319  0.1934
11497W        W27631  16.141   1.021  10.952 -0.2195  0.2067 -0.2304
11498W        W27632   9.071   2.210  14.159 -0.0369 -0.2984 -0.2427
11499W        W27633  11.262  17.867   2.597 -0.0919  0.0795 -0.0084
11500W        W27634   4.473  13.131   2.409  0.0419 -0.1371 -0.0722
11501W        W27635  10.920   1.046   3.917  0.0268 -0.0539 -0.0871
11502W        W27636   6.489  10.732   0.964 -0.0879  0.2220  0.1696
11503W        W27637   4.885   5.199   1.878  0.1915 -0.3049  0.3515
11504W        W27638  14.524  17.803  16.127 -0.0830 -0.2078 -0.0474
11505W        W27639  10.814   9.094   1.655 -0.0773  0.0562 -0.1424
11506W        W27640   1.410   7.431  15.546  0.0219  0.4449 -0.0909
11507W        W27641   3.257   9.302   3.517 -0.2336 -0.0834 -0.3136
11508W        W27642   1.201   1.907   3.524  0.2919 -0.1115 -0.4218
11509W        W27643   8.895  16.183  13.694 -0.2070  0.1887  0.2837
11510W        W27644   9.895  16.803  14.436  0.0247 -0.1311  0.2815
11511W        W27645   8.487   0.340   3.567 -0.0970 -0.5603 -0.0862
11512W        W27646  12.416   3.076   3.420  0.2902 -0.0692  0.2177
11513W        W27647   9.224  12.470   5.824  0.1310  0.2780  0.0508
11514W        W27648   5.906  10.425   2.935 -0.4445  0.0577  0.0902
11515W        W27649  17.762  11.122  14.830 -0.2848  0.0251  0.1736
11516W        W27650  16.307   1.813  12.638 -0.1169  0.0860  0.1904
11517W        W27651   9.329  16.127   4.038  0.1455 -0.0684 -0.1356
11518W        W27652   5.537   3.077   0.164  0.2206  0.0381  0.0183
11519W        W27653  18.084  15.520  13.891  0.3456  0.0475 -0.3358
11520W        W27654   4.304  10.134   5.063  0.1225  0.1635  0.2201
11521W        W27655  12.185  17.177   5.425 -0.0743 -0.0352  0.2336
11522W        W27656  10.028   1.739   2.784  0.1533 -0.3280 -0.5412
11523W        W27657   3.126   4.676  14.134  0.2838  0.1251  0.0046
11524W        W27658  14.676  10.118  11.780  0.0706 -0.0766  0.0872
11525W        W27659  13.642   4.900  12.418  0.1927  0.3071 -0.0367
11526W        W27660  14.028   3.658  10.630 -0.1286  0.1857  0.1503
11527W        W27661   3.365   6.577  12.189  0.2530 -0.2026 -0.2978
11528W        W27662   0.019  17.220   4.570 -0.0484  0.0543 -0.1650
11529W        W27663   4.091   9.587   3.971  0.1894  0.2935 -0.1730
11530W        W27664  10.477   7.671  13.871  0.1989  0.0902 -0.1148
11531W        W27665   3.672   2.014  11.476  0.1295  0.3306 -0.1567
11532W        W27666   8.886   2.384   4.323  0.1524  0.0688 -0.1865
11533W        W27667  15.938   9.951  15.403  0.2769  0.0071  0.0068
11534W        W27668  17.163  17.061   3.529  0.0962 -0.0186  0.0832
11535W        W27669   3.197   6.200   1.511  0.2069  0.0993 -0.0231
11536W        W27670   3.166  16.646   0.584 -0.3519 -0.0913  0.0132
11537W        W27671  15.666  16.948   1.596  0.1258 -0.0577 -0.2164
11538W        W27672  13.118  17.482  13.978 -0.0976  0.3005  0.2569
11539W        W27673  16.814  11.809   3.698  0.0464  0.2114  0.1286
11540W        W27674  16.786   8.671   0.896 -0.0259 -0.1838 -0.1139
11541W        W27675   5.991   2.729   1.983  0.0562 -0.0644  0.0234
11542W        W27676   8.178   9.740  11.596  0.2436  0.0644 -0.1462
11543W        W27677   3.503   0.884  12.934 -0.0680  0.2108 -0.1626
11544W        W27678  15.297   5.246  15.134 -0.1484 -0.0776 -0.1088
11545W        W27679   6.861  15.377  14.134 -0.1002  0.0922  0.0828
11546W        W27680   9.007   9.054  12.379  0.0476 -0.0601  0.2110
11547W        W27681  17.387   4.155  13.357  0.0530 -0.0153  0.2866
11548W        W27682   9.001   0.419   1.441 -0.0497 -0.1453  0.2440
11549W        W27683   0.049  15.526   6.056 -0.0291 -0.0106  0.1775
11550W        W27684  16.771   4.486   1.971  0.5549 -0.0812 -0.0252
11551W        W27685   6.480  14.638   4.106 -0.2131  0.0871  0.0581
11552W        W27686   4.540  13.686   1.815 -0.0804 -0.0004  0.0027
11553W        W27687   9.365   4.995  14.519 -0.1761  0.0010  0.4628
11554W        W27688   4.334  14.588  12.875 -0.0267  0.1673  0.1022
11555W        W27689  16.685  17.706  14.896  0.2283  0.1077  0.2255
11556W        W27690  14.780  10.223   0.032  0.1571 -0.0332 -0.0556
11557W        W27691  11.879   2.118   3.878  0.0658 -0.0425  0.0597
11558W        W27692   6.688   7.712  13.528 -0.0394 -0.3723  0.0521
11559W        W27693   0.629   8.657   0.547 -0.0229 -0.2279 -0.0031
11560W        W27694  12.782   9.445  15.195 -0.0140  0.3263 -0.0976
11561W        W27695   8.067   1.181  16.053 -0.1134 -0.0314  0.0952
11562W        W27696   1.848  12.210  13.524  0.2652 -0.1668  0.2178
11563W        W27697   7.358   8.669   1.694  0.1986 -0.1747  0.0968
11564W        W27698  12.642   0.201  14.122 -0.0629  0.0744  0.2065
11565W        W27699  11.821   0.650  14.516 -0.0123  0.0718 -0.2675
11566W        W27700  16.542   2.525  13.291 -0.2989  0.4714 -0.2148
11567W        W27701  16.415  11.598   4.989  0.1280 -0.0709 -0.1255
11568W        W27702  11.408   1.681  12.083 -0.3329 -0.0913 -0.1004
11569W        W27703   4.927   6.811  11.732  0.1245  0.0078 -0.1042
11570W        W27704  15.345  10.704  13.486  0.2609 -0.0176  0.1595
11571W        W27705  12.491   7.064   2.264 -0.0460 -0.4237  0.0284
11572W        W27706  11.454  17.679   4.758 -0.0408 -0.1918 -0.1410
11573W        W27707   7.317   7.295  15.406  0.0965  0.1048  0.4671
11574W        W27708   7.040  15.097   3.165  0.2039  0.1732  0.2091
11575W        W27709   8.926   8.637  12.665 -0.4515 -0.0419 -0.3978
11576W        W27710  13.481   3.350  11.896 -0.2368 -0.3465  0.1382
11577W        W27711  16.781  16.539  13.886 -0.2555  0.0281  0.2207
11578W        W27712  11.041   2.185  11.571 -0.0936 -0.1052 -0.0727
11579W        W27713   1.200  15.121   0.021 -0.1231 -0.0030 -0.2191
11580W        W27714  16.475   0.818  15.698  0.1919 -0.0149  0.1149
11581W        W27715  13.052   1.675  16.161  0.1322  0.0867  0.2336
11582W        W27716   8.912  11.831   1.734 -0.0862 -0.0867 -0.1225
11583W        W27717   7.120  13.300  16.203  0.2042  0.1305 -0.2709
11584W        W27718  12.902   8.397   0.288 -0.0831 -0.0941 -0.0773
11585W        W27719  13.361   5.108  11.453  0.2295 -0.0800 -0.2489
11586W        W27720  11.495   1.203   0.577  0.0810 -0.1431 -0.3043
11587W        W27721   8.277  11.504  12.574 -0.2371 -0.2600  0.2042
11588W        W27722   5.759  16.497  14.927 -0.3342  0.1099 -0.0698
11589W        W27723   6.744   9.349  14.740 -0.1811 -0.1949 -0.2103
11590W        W27724   5.441   7.572   1.255 -0.0129 -0.3694 -0.0762
11591W        W27725  10.889   4.986  14.439  0.0188  0.4341  0.0409
11592W        W27726   5.632   4.781   1.327 -0.0783 -0.1160 -0.0319
11593W        W27727  14.120  10.033   0.686  0.0568 -0.1206  0.2431
11594W        W27728  17.952   2.893  12.641  0.1844  0.0365 -0.0497
11595W        W27729  14.976  10.360  15.603  0.3471 -0.1639  0.1315
11596W        W27730   9.748  14.175   2.260 -0.1706  0.2235  0.0763
11597W        W27731   4.768   6.732  13.335  0.0032  0.1167  0.0143
11598W        W27732  15.404   8.985   1.509  0.1478  0.1954  0.0725
11599W        W27733   0.466   3.513   4.099  0.3142  0.0357 -0.1787
11600W        W27734   7.261   1.169  16.113  0.2086  0.2503 -0.0725
11601W        W27735   8.308  15.316  11.546 -0.3237  0.1081  0.1023
11602W        W27736  16.100   1.345  16.347  0.0799 -0.0652  0.0366
11603W        W27737  11.633   4.423  11.537  0.1980  0.2352  0.0956
11604W        W27738  13.340   2.684   4.140 -0.1046  0.0260 -0.1288
11605W        W27739  11.124   4.095  12.877  0.1777 -0.1700  0.2136
11606W        W27740   3.779   1.339  14.306 -0.0619 -0.1887 -0.0396
11607W        W27741   9.571   2.677   3.817  0.2407 -0.0110  0.0676
11608W        W27742  17.924   7.464   0.338  0.1211  0.0870 -0.0981
11609W        W27743   1.128   0.307  14.994 -0.1945 -0.3553 -0.1537
11610W        W27744  14.843  10.478   4.494  0.0054 -0.1149 -0.4281
11611W        W27745   3.576   4.982   3.744 -0.2906 -0.0393 -0.0577
11612W        W27746   7.529   3.127   3.478  0.0788  0.2232  0.1546
11613W        W27747   4.347  17.234   4.119  0.0734  0.0971  0.2190
11614W        W27748   5.692   2.838   6.082  0.0912 -0.1958  0.4345
11615W        W27749   3.408   9.197  14.264 -0.0981  0.3178 -0.1667
11616W        W27750   9.943   7.941   5.460 -0.4316 -0.4353  0.0701
11617W        W27751  10.677   3.958  13.089  0.3685  0.0096 -0.0596
11618W        W27752  12.153   8.362  13.947 -0.3252  0.1779 -0.0315
11619W        W27753   1.272   6.852   3.853  0.2034 -0.1235 -0.1350
11620W        W27754  10.424   3.273   1.119  0.0697 -0.1000 -0.0330
11621W        W27755   5.833  13.215  11.902  0.3443 -0.0170 -0.0243
11622W        W27756  11.963   7.378  14.860 -0.0533 -0.1151  0.0248
11623W        W27757   2.467   0.563   1.362  0.0763  0.2462  0.0965
11624W        W27758   0.751  17.173  12.823  0.3983  0.0018 -0.1063
11625W        W27759   5.586  16.746   1.615  0.4167  0.1050 -0.1800
11626W        W27760  10.558   5.665   0.581  0.0241  0.1592  0.2860
11627W        W27761  12.489   9.279  13.640  0.0377  0.0588 -0.1382
11628W        W27762  17.797  14.094  15.466 -0.2715 -0.1810  0.1954
11629W        W27763   9.923   0.249  13.538  0.0340 -0.2126 -0.1156
11630W        W27764   3.033   5.913   5.538 -0.1804 -0.0389  0.2783
11631W        W27765  11.861   3.902  14.904  0.0699 -0.0452  0.2397
11632W        W27766   5.402   1.173  14.962  0.1461 -0.1035 -0.0307
11633W        W27767  13.673  12.796  14.602  0.0392 -0.0040 -0.0572
11634W        W27768   1.403   9.267  12.416  0.2663  0.2666  0.0754
11635W        W27769   8.601  15.350   6.242  0.0957 -0.0305  0.0169
11636W        W27770  15.139  12.852  12.256  0.1780 -0.2411 -0.0578
11637W        W27771  16.991   7.256   1.291 -0.0556  0.1501  0.2897
11638W        W27772  12.512  14.753   2.075 -0.1422 -0.1293  0.1249
11639W        W27773   4.191  12.567  16.110  0.0695 -0.1111  0.1978
11640W        W27774  10.262  17.805  14.857  0.0199 -0.0170  0.2131
11641W        W27775   7.705   9.683  11.552  0.0216  0.1144 -0.0400
11642W        W27776   4.740  15.390   1.941  0.0477  0.0979 -0.2106
11643W        W27777   0.721   6.043   4.239  0.3937 -0.0760 -0.0454
11644W        W27778  10.902  14.466   4.117 -0.1722 -0.0480 -0.2287
11645W        W27779   7.406  17.899  12.817 -0.0100 -0.1118  0.2727
11646W        W27780  13.327  12.923  12.818  0.0175 -0.1139  0.1743
11647W        W27781   6.343   3.151  13.948 -0.1697  0.1918 -0.2580
11648W        W27782  13.519   5.678   0.173 -0.0922  0.0833 -0.0116
11649W        W27783   0.619  11.939   4.705  0.3496 -0.0232 -0.0703
11650W        W27784   6.453  17.268  15.323  0.2834 -0.2078  0.2049
11651W        W27785   9.831  14.687  12.916 -0.0624 -0.0210  0.0220
11652W        W27786  10.938  17.063  13.360  0.3119 -0.2180  0.1024
11653W        W27787   2.400  11.841   4.606  0.2083  0.0143  0.2391
11654W        W27788  14.364   6.964  12.638  0.5692 -0.2015 -0.0594
11655W        W27789  16.282   4.261   1.866 -0.1611 -0.0369 -0.3366
11656W        W27790   2.128  14.620  13.313  0.4794  0.1870 -0.1361
11657W        W27791  14.262  10.971  11.910 -0.1326 -0.0726 -0.3240
11658W        W27792  17.175  16.026  14.410 -0.0433  0.0822 -0.2947
11659W        W27793   2.521   1.490   1.724  0.1296 -0.0761 -0.0122
11660W        W27794   5.202  18.023   0.206 -0.0794 -0.1231  0.1375
11661W        W27795   9.337   7.458  12.848  0.1387 -0.2295 -0.0877
11662W        W27796   2.148   7.389  10.499 -0.0521  0.0170 -0.0741
11663W        W27797   8.437   7.641   2.814  0.4312 -0.0685  0.1221
11664W        W27798   7.810   9.000   2.468  0.0652 -0.0420  0.1774
11665W        W27799   9.079   5.290  14.151 -0.1292  0.0444 -0.1784
11666W        W27800  17.772   6.366   0.230  0.0200 -0.0874 -0.0278
11667W        W27801   0.221   5.201   1.346 -0.0023 -0.0832 -0.2293
11668W        W27802   8.223  13.078   1.614  0.0584 -0.3246  0.1332
11669W        W27803  13.526  15.810   1.173  0.0964  0.0905  0.0015
11670W        W27804   2.255  12.886   4.675 -0.0345 -0.0696  0.0713
11671W        W27805   3.815  14.996   2.960  0.4986 -0.2373 -0.2037
11672W        W27806   0.637  17.746   2.680  0.0736 -0.0198  0.1493
11673W        W27807   0.377  14.747  12.899  0.2208 -0.0545  0.2226
11674W        W27808  11.622   4.029   3.953 -0.0622  0.1192  0.0021
11675W        W27809  11.119  13.277   0.466  0.1208 -0.1341  0.2377
11676W        W27810  14.423   0.463   1.110  0.1802 -0.2822 -0.1575
11677W        W27811   4.188  10.932  16.038  0.0988 -0.0655  0.0820
11678W        W27812  14.914   6.852   2.360  0.0303 -0.1153  0.2264
11679W        W27813  14.123   0.546   4.285 -0.0394 -0.0238  0.2179
11680W        W27814   9.552  17.038   0.858 -0.1135 -0.2014  0.4302
11681W        W27815   2.962  15.613   2.229  0.1493  0.0700  0.0635
11682W        W27816  13.391   6.632  15.639 -0.0255 -0.1709 -0.1885
11683W        W27817  16.758  15.567   3.400 -0.2789 -0.1071  0.0121
11684W        W27818   3.914   6.670  16.046 -0.0301  0.1816  0.0116
11685W        W27819  14.081  10.875  11.443  0.2930  0.1006 -0.1733
11686W        W27820  11.322  15.170   4.052  0.1523 -0.3240 -0.1036
11687W        W27821  12.228  10.263   0.274 -0.1653 -0.3818  0.0662
11688W        W27822   6.492   2.218   2.118 -0.0096  0.0605  0.0326
11689W        W27823   4.563  15.521  14.809  0.3270  0.0411 -0.0504
11690W        W27824   7.209  12.241  14.641  0.0027 -0.0462 -0.0847
11691W        W27825   0.098   0.233   3.553 -0.1354  0.1354  0.3633
11692W        W27826   5.671  14.930  11.930  0.2596 -0.1843 -0.0100
11693W        W27827  16.494   5.680   4.871 -0.1522  0.4297 -0.0594
11694W        W27828   6.390   2.741   2.356  0.2582 -0.2688 -0.0116
11695W        W27829  13.974   5.873  12.539 -0.6429  0.1525 -0.2652
11696W        W27830  12.962   5.382  12.923  0.0220 -0.1621 -0.0377
11697W        W27831  18.028  11.631   4.116  0.2049 -0.4087  0.0555
11698W        W27832   8.270  12.759  15.045 -0.2346  0.0362  0.0127
11699W        W27833  16.617  15.631  12.647  0.0468 -0.4745 -0.1489
11700W        W27834  13.868   2.268   0.607  0.0939  0.0073  0.1594
11701W        W27835   3.332  17.723  12.011  0.0347 -0.2841 -0.0598
11702W        W27836  16.243   8.222  11.647 -0.1278  0.1373  0.1571
11703W        W27837   3.556   1.206   5.696 -0.1638  0.0044 -0.0398
11704W        W27838   7.989   9.740  11.120 -0.1179  0.3832  0.4383
11705W        W27839   3.438  12.310   1.765 -0.1663  0.0551  0.0319
11706W        W27840   5.801  17.944   5.116  0.1058  0.0939 -0.0395
11707W        W27841   7.109   5.463   1.904  0.0527 -0.1051 -0.0353
11708W        W27842   4.077   5.076  11.514  0.2205 -0.1230 -0.1339
11709W        W27843  10.166   2.643  15.284  0.1231  0.1233 -0.1349
11710W        W27844   4.245  11.365  15.706 -0.0414  0.0294  0.0761
11711W        W27845  13.731   5.481   1.572  0.0517  0.1699  0.0292
11712W        W27846   6.732   1.274  11.635  0.1176  0.0312  0.1816
11713W        W27847   9.447   9.782  14.172 -0.0118  0.0286  0.2493
11714W        W27848   9.828  15.999  14.017  0.0533  0.1288 -0.0689
11715W        W27849   2.411  13.123   4.237 -0.1306  0.1403 -0.0994
11716W        W27850  12.278  10.717  14.987  0.0823 -0.0674 -0.2326
11717W        W27851   3.211  12.507   2.163  0.0213 -0.1911 -0.1995
11718W        W27852  10.404   9.213  13.028  0.0948 -0.0526 -0.2361
11719W        W27853   9.748   0.113  15.630 -0.1139  0.0176 -0.0073
11720W        W27854  14.255  17.995   1.215  0.0592  0.2482 -0.2496
11721W        W27855  16.001   2.178  14.051 -0.2491  0.1338 -0.1400
11722W        W27856   3.920  12.228   1.376  0.3342 -0.1297  0.2298
11723W        W27857   4.592  16.694   5.322 -0.1544  0.3736  0.0352
11724W        W27858  10.743   9.195  15.100 -0.0066 -0.2382 -0.0337
11725W        W27859   9.395  15.258   0.732  0.0933  0.0685  0.0610
11726W        W27860  13.318   9.311   4.672  0.0285 -0.0745  0.1539
11727W        W27861  15.894   5.746   0.850  0.0500  0.3465 -0.2044
11728W        W27862  16.050   0.528  15.761  0.2427 -0.1167 -0.0395
11729W        W27863  15.741   8.810   2.405  0.1770 -0.0706 -0.2651
11730W        W27864  12.216   5.448   5.384  0.1412 -0.0583 -0.0062
11731W        W27865  12.342   7.297  15.290 -0.1250  0.2985  0.0531
11732W        W27866   6.416   9.972  12.037  0.3935 -0.0537  0.0466
11733W        W27867  14.813  17.580   3.930 -0.5523 -0.1235  0.0449
11734W        W27868   7.123   9.064  14.976  0.3208 -0.3350 -0.0096
11735W        W27869   8.009  17.254  15.521 -0.0435  0.0069 -0.1353
11736W        W27870   2.187   4.089  16.241  0.3967  0.1236  0.2092
11737W        W27871  14.407  13.800  13.927 -0.0203  0.0024 -0.2794
11738W        W27872  15.695   1.923   3.365  0.1074  0.2615 -0.1968
11739W        W27873   5.759   9.989  16.055  0.1292 -0.0369  0.0610
11740W        W27874   7.277  11.139   0.481 -0.0296  0.0313  0.0502
11741W        W27875  15.846   6.724   2.717 -0.1082 -0.1316  0.0040
11742W        W27876  12.904  11.505  15.306  0.0035  0.0940 -0.1561
11743W        W27877  10.516   4.238   2.242 -0.1642 -0.1951 -0.1201
11744W        W27878   6.824   8.860   3.743  0.1842  0.0356 -0.0103
11745W        W27879  18.029  15.468   4.559  0.0249  0.1305 -0.0144
11746W        W27880   1.457   1.733   4.299 -0.1121 -0.1621  0.0647
11747W        W27881  13.653  12.368  11.678 -0.0041  0.1672  0.1319
11748W        W27882  14.036  13.280   1.150  0.0761  0.1483  0.1187
11749W        W27883   4.346  11.312   1.603 -0.2200 -0.2904 -0.1670
11750W        W27884  16.610   4.274   0.297 -0.1945 -0.3569  0.1108
11751W        W27885  11.300  18.090  13.176  0.0291 -0.0668 -0.0655
11752W        W27886  12.292  10.998   3.262 -0.0701  0.1937 -0.1105
11753W        W27887   2.355   5.493   5.068 -0.1030 -0.0003  0.1652
11754W        W27888   3.291  11.748   2.679  0.0884  0.1846  0.1179
11755W        W27889  16.999  14.416  15.877  0.0156  0.0985 -0.2645
11756W        W27890   7.500   8.538  14.071 -0.1150  0.1662  0.0318
11757W        W27891  11.209  14.695  12.284  0.0209  0.0917  0.0486
11758W        W27892   5.907   2.235   0.090  0.0437 -0.1486 -0.0163
11759W        W27893   1.898   4.164   5.191 -0.2463  0.0128 -0.0170
11760W        W27894  12.416  13.776  15.474  0.0561  0.5172 -0.0335
11761W        W27895  13.828   9.838  13.957 -0.3268  0.1261  0.0713
11762W        W27896  13.216  17.034   1.355 -0.2018 -0.0717  0.0447
11763W        W27897  14.772  11.722  12.249  0.1080  0.2409 -0.1561
11764W        W27898  11.077  15.287   5.333 -0.3102 -0.0823  0.1755
11765W        W27899   6.006  14.702   1.485  0.0249 -0.0274  0.0948
11766W        W27900   0.694   4.168  14.958  0.3815 -0.2246  0.1061
11767W        W27901  10.113   1.436  11.112 -0.3139 -0.0066  0.0921
11768W        W27902   5.812  17.109  11.761 -0.2789 -0.0278  0.0885
11769W        W27903  16.269   6.988   2.065  0.0155  0.1672 -0.2059
11770W        W27904   2.343   0.032   0.005 -0.1020  0.0904  0.2629
11771W        W27905  15.675   9.841  12.671 -0.1038  0.3039 -0.0946
11772W        W27906   3.536   3.940   0.084  0.2726 -0.1318  0.1991
11773W        W27907   9.432  15.696  11.836 -0.1735 -0.5311 -0.0654
11774W        W27908  17.414  11.755  15.988 -0.0312  0.0414  0.1585
11775W        W27909   4.949   5.139  15.424 -0.0954  0.1358  0.1476
11776W        W27910  12.651  16.685  11.404  0.3089 -0.1285 -0.1509
11777W        W27911   6.551   0.904  13.214 -0.0917  0.0915  0.1306
11778W        W27912   6.898  10.003   1.278  0.1938 -0.2186  0.2339
11779W        W27913  13.833   8.304   2.645  0.0681 -0.0897  0.0370
11780W        W27914   1.292   7.656   3.653  0.0771 -0.1637 -0.0828
11781W        W27915  12.689  12.513   2.408 -0.0614 -0.3886  0.1830
11782W        W27916  12.462  17.451  11.756 -0.1202 -0.1074 -0.1034
11783W        W27917   6.992   8.889   3.266 -0.0628 -0.3148  0.0016
11784W        W27918   7.097   3.989  14.653  0.0033  0.1974 -0.0992
11785W        W27919  12.840  16.780  13.930  0.2567 -0.1176  0.0239
11786W        W27920   3.914   2.532  12.043  0.0848  0.1526 -0.1920
11787W        W27921  17.140  16.950  13.020 -0.0341  0.1029  0.2688
11788W        W27922  14.077   9.908   3.284  0.2879  0.0878  0.0907
11789W        W27923   9.090  17.808   4.175 -0.0996  0.1394  0.0352
11790W        W27924  15.086   7.527  12.905  0.2270 -0.0922  0.0821
11791W        W27925  11.967  17.514  11.403 -0.3214  0.2582 -0.2709
11792W        W27926   3.906   8.748   0.346 -0.0804 -0.0956 -0.1092
11793W        W27927   0.040   7.963   0.375 -0.1567 -0.0684  0.1478
11794W        W27928   1.500   7.807  12.518 -0.0134  0.1255  0.0265
11795W        W27929  15.082   7.662   4.190 -0.2681 -0.0155  0.0670
11796W        W27930  15.658  10.008   2.956 -0.0398 -0.1160 -0.1228
11797W        W27931   2.455  15.175   2.499  0.1186 -0.2335 -0.2942
11798W        W27932   1.632   9.124  15.717  0.0417  0.0420  0.3291
11799W        W27933   1.065   0.997   0.854  0.1924  0.2462  0.1591
11800W        W27934   1.302   5.356  14.467  0.1950  0.1884 -0.0278
11801W        W27935   7.083   7.672  11.942 -0.1725  0.1970 -0.2713
11802W        W27936  12.677  13.030   3.711 -0.4254 -0.0649 -0.0979
11803W        W27937   0.095   4.227  13.742 -0.1745 -0.0079  0.1325
11804W        W27938   4.672   8.655   2.036 -0.0864 -0.0150  0.1324
11805W        W27939   7.727  12.845  13.294  0.0718  0.0717  0.0855
11806W        W27940  17.051  12.214   0.366 -0.2632 -0.0257 -0.0702
11807W        W27941   9.817   3.796  14.713 -0.1710 -0.0981  0.1207
11808W        W27942  16.536  18.032   1.246  0.0265 -0.0933 -0.3351
11809W        W27943   4.696  14.948   0.972 -0.3746  0.1469 -0.0943
11810W        W27944  12.758  14.559   4.663  0.0706 -0.2062 -0.1856
11811W        W27945   8.083   3.082  15.584  0.0757  0.0648 -0.1735
11812W        W27946  12.868   3.367   3.032 -0.2046  0.3611 -0.0656
11813W        W27947   6.725   5.280  13.174 -0.1244  0.1025  0.1667
11814W        W27948   6.623   4.558   0.899  0.1953 -0.0802  0.2386
11815W        W27949   9.262   9.742  11.963 -0.1262 -0.0421 -0.0678
11816W        W27950  11.346   8.499  12.737  0.4513 -0.1561  0.3902
11817W        W27951   8.226  16.213  14.393  0.0539  0.3212  0.2151
11818W        W27952  10.336   6.361  15.584  0.0078  0.1366 -0.0454
11819W        W27953   9.284   1.840   1.364  0.1701  0.1704  0.2071
11820W        W27954  14.793   2.693   1.181 -0.1343 -0.1107  0.1090
11821W        W27955   8.844   3.888   4.303  0.0977  0.1828  0.1137
11822W        W27956   9.042  16.131   3.576  0.0974  0.0851  0.2146
11823W        W27957   8.320   1.659   3.510  0.0219  0.3036  0.2612
11824W        W27958  10.883  15.805  13.143 -0.1133  0.2514  0.0454
11825W        W27959   0.449   4.192  10.226  0.0703  0.2319  0.0080
11826W        W27960   6.533   6.331  13.800  0.1559  0.0819 -0.0740
11827W        W27961  10.459   5.054  11.803 -0.1037 -0.1128  0.0125
11828W        W27962  10.902   6.071   3.002 -0.1317 -0.2208 -0.1739
11829W        W27963   8.000  10.715  12.430  0.1948 -0.0337 -0.1391
11830W        W27964   8.093   2.238   1.479  0.1654  0.3417 -0.2702
11831W        W27965   8.037   3.500  11.547  0.0824 -0.2547  0.1313
11832W        W27966  14.639  10.577  11.939  0.1151  0.2484 -0.0084
11833W        W27967  11.437   3.533   2.106 -0.0573 -0.2985  0.1761
11834W        W27968   8.278  15.652   4.967  0.1620  0.0252  0.3117
11835W        W27969  16.957   7.542   0.836  0.1316  0.0812  0.3433
11836W        W27970   1.130  14.200   4.395 -0.1815  0.2930  0.0616
11837W        W27971   9.383   2.231   3.969  0.2052 -0.2971  0.2878
11838W        W27972   8.429   1.657  15.945 -0.2471  0.2992 -0.0299
11839W        W27973   2.208  16.613   4.958  0.0161 -0.0162  0.0168
11840W        W27974   7.726  15.910   1.930  0.1412 -0.2444  0.0351
11841W        W27975  12.029   0.271  15.418  0.0905  0.0418  0.1402
11842W        W27976   3.920   2.269  14.828  0.0594 -0.3438  0.1723
11843W        W27977  11.337   3.471  11.309  0.2801  0.2063 -0.0364
11844W        W27978   4.458   4.477   4.338 -0.1410 -0.0313 -0.0319
11845W        W27979  14.867   0.661  13.779  0.1410 -0.0444 -0.0552
11846W        W27980  13.371   1.402  13.642 -0.1993 -0.1808 -0.3359
11847W        W27981  17.325  14.558  13.058  0.2880 -0.1317  0.1278
11848W        W27982  14.881  12.226   5.944  0.3453 -0.0729 -0.0665
11849W        W27983   1.420  12.778   5.300  0.2806 -0.0799 -0.0322
11850W        W27984   4.820  10.225   1.344  0.2885 -0.2048 -0.0440
11851W        W27985   6.200  13.203  13.541  0.1680 -0.3235  0.1691
11852W        W27986  15.017   4.819   5.034 -0.1765 -0.1306  0.2014
11853W        W27987  16.747  11.483   4.636  0.1491  0.0029 -0.0354
11854W        W27988   5.295   1.902  11.861 -0.0895  0.0802 -0.0007
11855W        W27989  13.369   7.199  11.612 -0.3608  0.0938  0.0162
11856W        W27990   8.478  14.824   0.831  0.0751 -0.2184  0.0077
11857W        W27991  15.843  10.051  10.648  0.0462  0.3728 -0.0908
11858W        W27992   8.455   8.751   4.929  0.0066  0.1718  0.3331
11859W        W27993  17.355  14.955  13.420  0.1872  0.2777  0.3762
11860W        W27994   1.527  13.828   3.243  0.1258  0.2300  0.1068
11861W        W27995   0.706   5.745  12.293 -0.0468  0.2140  0.2143
11862W        W27996   2.119  14.672  14.807  0.4976  0.3033  0.0027
11863W        W27997   0.864   4.806   2.266 -0.2590  0.0457 -0.0361
11864W        W27998  13.957  16.277   5.141  0.2030  0.1870  0.1407
11865W        W27999   1.197  16.605  13.973 -0.0968  0.0994 -0.3062
11866W        W28000  17.835  16.267  12.512 -0.2962 -0.1999  0.0173
11867W        W28001  14.824   7.171   1.053  0.5778 -0.0347  0.0480
11868W        W28002  13.771  16.436  11.190 -0.1453  0.0562  0.2569
11869W        W28003   9.897  14.768   0.749  0.0717  0.1349  0.0204
11870W        W28004  17.871  12.432  12.323  0.2034 -0.0227  0.2529
11871W        W28005   4.963  10.000  13.973  0.1107 -0.0825  0.2032
11872W        W28006   1.601   6.771   5.112  0.0842  0.0393  0.0575
11873W        W28007   1.107   8.280  10.850 -0.1287  0.0095  0.5260
11874W        W28008   5.159  14.897   0.751 -0.1578  0.1712 -0.2549
11875W        W28009  11.676   3.445  13.893 -0.3383 -0.0290 -0.0211
11876W        W28010   4.310  13.705   0.910 -0.0374 -0.0764 -0.0089
11877W        W28011   7.599   6.998  12.324 -0.0866  0.1941 -0.1475
11878W        W28012  16.091   3.184  11.579  0.3790 -0.0267  0.0482
11879W        W28013  15.221  10.696  12.189  0.1512 -0.1276 -0.0135
11880W        W28014  11.997   3.611   0.276 -0.1640  0.0048  0.0076
11881W        W28015  16.328   3.394   3.717 -0.0706  0.1633  0.0365
11882W        W28016  14.598  10.556  14.535 -0.1371  0.0268  0.0889
11883W        W28017  13.384   1.021  12.702 -0.3113 -0.0313 -0.0108
11884W        W28018  12.481  10.548   2.262 -0.4312  0.3307  0.0963
11885W        W28019  10.430  17.305   5.312  0.1424  0.2668  0.0851
11886W        W28020  14.315  12.424  12.335 -0.2285  0.3337 -0.1668
11887W        W28021  10.169   6.364  10.410 -0.0427  0.0552  0.2320
11888W        W28022  15.119   4.326   4.697  0.0973 -0.1718  0.2326
11889W        W28023   3.848   6.860  12.986  0.0282 -0.1013 -0.0458
11890W        W28024  16.760  11.879   3.082 -0.4008  0.0898  0.1647
11891W        W28025  13.495   4.683   2.193  0.0765 -0.0342  0.1527
11892W        W28026  14.445   7.347   4.941 -0.0282 -0.1167 -0.0696
11893W        W28027   6.727   3.045  10.329 -0.0753  0.0811  0.3922
11894W        W28028   0.147   0.720   3.932  0.1200 -0.3499 -0.0510
11895W        W28029  10.990  14.583   5.307 -0.1023  0.0904 -0.1250
11896W        W28030  16.226  12.996  13.432 -0.0402 -0.1200 -0.1932
11897W        W28031   5.229  17.227   3.672 -0.0362 -0.1435 -0.1644
11898W        W28032   9.696   6.257   1.971 -0.0547 -0.0747  0.0864
11899W        W28033  12.118  15.098  13.329 -0.0593  0.2586 -0.0094
11900W        W28034  12.104  15.697  12.753 -0.1494  0.2459  0.0816
11901W        W28035  17.586  15.789  13.102  0.3583  0.3302 -0.0759
11902W        W28036   9.758   9.652  13.784  0.0863  0.0900  0.1129
11903W        W28037  13.426   0.348  13.268  0.2034 -0.1126 -0.0916
11904W        W28038  11.524  15.975   5.357 -0.0072 -0.0425 -0.3061
11905W        W28039   4.876   7.046   0.951 -0.3215 -0.2776 -0.1294
11906W        W28040  12.553  16.409   3.203 -0.1140  0.1409 -0.0605
11907W        W28041   5.879   8.377  11.631  0.0480  0.0093 -0.0315
11908W        W28042   1.680   3.522   1.092 -0.2947  0.0751  0.2624
11909W        W28043   5.563  14.188  11.302  0.0061  0.1508  0.0095
11910W        W28044  15.584   4.098   0.609  0.1164 -0.3387 -0.1559
11911W        W28045  15.332   2.569  15.101  0.1138 -0.2474 -0.0216
11912W        W28046  10.992   7.414   3.066  0.0746 -0.2371  0.1157
11913W        W28047   9.914   1.932   0.804 -0.6738  0.3313  0.1994
11914W        W28048  12.220   1.899  16.399  0.3645 -0.0204 -0.2087
11915W        W28049  13.898  11.686  12.113 -0.2523  0.1410 -0.0368
11916W        W28050   0.291  15.851   3.874 -0.1585 -0.2819 -0.1376
11917W        W28051  16.467   0.007  15.680 -0.0659 -0.1722 -0.0406
11918W        W28052   1.155   9.017  14.911 -0.0548 -0.0619  0.0359
11919W        W28053   1.301   8.554   0.057  0.2886  0.0718  0.0158
11920W        W28054   9.539  11.017   1.740  0.1324 -0.1446 -0.5707
11921W        W28055   9.596   9.636   5.794  0.2721 -0.0616 -0.2283
11922W        W28056   4.435   2.560  15.885 -0.1201  0.1222 -0.1537
11923W        W28057   0.984   3.710   3.991 -0.2411  0.1908  0.1199
11924W        W28058  16.648   6.334   2.198  0.1070 -0.0328  0.1486
11925W        W28059  16.851  17.218   4.060 -0.1713 -0.1494 -0.1902
11926W        W28060  13.259  13.577   1.197 -0.0163 -0.1690 -0.0332
11927W        W28061  17.323   0.573  11.628 -0.0187  0.1316 -0.1308
11928W        W28062   8.016   7.391  16.200 -0.0354  0.1777 -0.0274
11929W        W28063  18.046   9.611  11.694 -0.0953  0.1870 -0.0195
11930W        W28064  14.146  11.358  15.311 -0.1124 -0.2508  0.0248
11931W        W28065  12.413  12.282  15.694 -0.1598 -0.0017 -0.0638
11932W        W28066   1.859  16.564   1.591 -0.1133 -0.1332  0.2408
11933W        W28067  14.876  12.342   1.784  0.0166 -0.1565 -0.0469
11934W        W28068  16.648   9.292   2.695  0.1455  0.4653 -0.1326
11935W        W28069  13.538  10.412   0.341  0.0371  0.1687 -0.0344
11936W        W28070   1.680   5.131  11.027  0.0632  0.1959  0.1697
11937W        W28071   4.605  16.727   0.581 -0.1392 -0.1098  0.2669
11938W        W28072  11.390   0.131   1.137  0.0697  0.3651 -0.1895
11939W        W28073   1.629   7.626   2.000 -0.1626  0.1598 -0.0724
11940W        W28074   4.415   8.936   0.962  0.1467  0.0156  0.0297
11941W        W28075   9.358  12.106   1.770 -0.0683 -0.0555 -0.0802
11942W        W28076  16.235  12.574  13.894 -0.0435  0.1241 -0.2755
11943W        W28077  13.014   5.231   2.125  0.0152 -0.1127  0.2582
11944W        W28078   1.268   8.119   4.521  0.2600 -0.3194  0.1276
11945W        W28079   7.242   8.967   4.442 -0.2333  0.0064 -0.1845
11946W        W28080  11.947  10.249  13.701 -0.1404 -0.3695 -0.0402
11947W        W28081   8.308  14.309   1.504 -0.0639  0.1797  0.1359
11948W        W28082   2.760   2.065  13.960  0.1712  0.1404 -0.3980
11949W        W28083   0.206   7.490   1.104  0.0858  0.1289  0.3904
11950W        W28084   6.925   0.035  12.703 -0.0368 -0.0095 -0.0625
11951W        W28085  10.126   7.622   4.546  0.1024 -0.1732  0.0558
11952W        W28086  17.340   2.041   3.904 -0.0569 -0.3426  0.0792
11953W        W28087  13.888  13.374   5.893 -0.1336  0.1897 -0.1547
11954W        W28088  17.367  17.293   4.818 -0.0295 -0.2057  0.1636
11955W        W28089   5.154   1.692  11.445 -0.1216  0.1531 -0.2735
11956W        W28090  16.687   2.135   1.789 -0.1875 -0.0687 -0.0726
11957W        W28091   1.923  12.797   1.661  0.1367 -0.3710 -0.4021
11958W        W28092   7.612   0.206  12.047 -0.0827 -0.1315 -0.3008
11959W        W28093   4.239  13.951  14.130  0.0941  0.0416  0.1986
11960W        W28094  15.006  13.081   3.086  0.2590  0.0628  0.1345
11961W        W28095   0.394   6.537  15.005  0.0009  0.0212 -0.1927
11962W        W28096   9.250   5.621  13.206  0.0510 -0.0158 -0.1447
11963W        W28097   9.865   7.042  14.595  0.0555 -0.0919  0.2311
11964W        W28098   1.741   3.312   0.057 -0.0749 -0.1815 -0.0788
11965W        W28099   8.138  16.842   2.969 -0.1358  0.0472  0.0474
11966W        W28100  10.450  11.372   0.091  0.1763 -0.0743 -0.1179
11967W        W28101   8.064   3.791   4.797  0.1285  0.0737  0.2248
11968W        W28102   1.753  14.704  15.947 -0.1637 -0.1369  0.0735
11969W        W28103   4.645  10.979   0.647  0.2382 -0.0095  0.0726
11970W        W28104  17.995   5.142   0.886 -0.0374 -0.2697  0.0634
11971W        W28105   0.258   8.441   1.306 -0.3074  0.0674  0.1039
11972W        W28106  17.980  14.899   0.579 -0.1938 -0.3361 -0.1918
11973W        W28107   0.931  10.751  14.317 -0.0402 -0.0202  0.0801
11974W        W28108  14.189   7.409  16.272  0.0395  0.2989 -0.2859
11975W        W28109  12.166  14.112   5.356  0.0176  0.0288 -0.0742
11976W        W28110   9.309  11.860   0.776  0.0861  0.2571 -0.1968
11977W        W28111  13.347   6.895  11.220  0.1848  0.1062  0.1265
11978W        W28112  13.388   5.645   0.903  0.0492 -0.1017  0.1122
11979W        W28113  16.873   1.715   1.117  0.2005 -0.0036 -0.4403
11980W        W28114   9.958   2.854   4.718 -0.4016 -0.2369  0.0640
11981W        W28115  12.967  11.156   0.201 -0.1639  0.2015 -0.3357
11982W        W28116  14.005  16.993  13.391 -0.1772 -0.1318  0.2132
11983W        W28117  14.919  17.626  14.261 -0.0028  0.2268  0.0984
11984W        W28118   5.239   9.392  11.826  0.0138 -0.2654  0.1877
11985W        W28119  16.303  16.556  11.512  0.1144  0.1049  0.0179
11986W        W28120   9.025   4.016  14.282  0.2008  0.0549  0.0664
11987W        W28121  12.385  10.191   4.399  0.0610  0.0576  0.0810
11988W        W28122   0.160  17.303   0.929  0.2053  0.0265 -0.1481
11989W        W28123   3.911  15.792   2.097 -0.2190  0.0540 -0.2746
11990W        W28124   7.237   8.167   0.854  0.0235  0.2119 -0.1073
11991W        W28125   8.701  14.586   2.287  0.0053  0.0509 -0.3239
11992W        W28126   1.002   4.834  15.236 -0.1700  0.0047 -0.3883
11993W        W28127  11.786   0.260  14.050 -0.1525 -0.1077 -0.1366
11994W        W28128  15.647   6.185  16.000 -0.1636 -0.0197 -0.0098
11995W        W28129   6.087   7.198  15.596  0.1393 -0.3079  0.1435
11996W        W28130  17.940  15.565   2.566  0.0459 -0.1595 -0.0050
11997W        W28131   6.332  12.465   4.402 -0.1085  0.1151 -0.1605
11998W        W28132   6.771   3.069  15.889 -0.1075 -0.2940  0.3160
11999W        W28133   9.269  17.936   3.648  0.1032  0.0116  0.4161
12000W        W28134   2.258   6.515   5.476 -0.0552  0.1226 -0.1169
12001W        W28135  12.244  14.223  15.265 -0.0929 -0.2428  0.0864
12002W        W28136   7.645   1.653   0.024  0.3363 -0.1248  0.2223
12003W        W28137   0.341  16.342  15.814 -0.2873 -0.1483  0.0492
12004W        W28138  10.857   4.125  14.000  0.0301  0.2432 -0.0035
12005W        W28139   8.774   7.684   4.777 -0.3244  0.0097 -0.1970
12006W        W28140   0.492   3.927  11.012 -0.1180  0.2506  0.1181
12007W        W28141   4.910   8.672   4.773  0.1197 -0.2579  0.0299
12008W        W28142   2.415   4.931   4.838  0.2763 -0.1559  0.3548
12009W        W28143   6.547   8.792   5.269 -0.0802 -0.1743  0.1330
12010W        W28144  15.627   6.747  15.364  0.5077  0.0781  0.1228
12011W        W28145  12.106   6.770   4.652  0.0979 -0.2028  0.1706
12012W        W28146  15.230  17.060   3.676 -0.1290 -0.0580 -0.1383
12013W        W28147  13.608  14.863  12.294  0.4000 -0.0188 -0.0302
12014W        W28148  15.169  13.520   4.455  0.1260  0.0608 -0.0664
12015W        W28149   9.266   3.255   2.983  0.0593 -0.0394 -0.0758
12016W        W28150   6.855   1.922   1.993  0.1267  0.3278 -0.0015
12017W        W28151  11.207   6.390  13.149 -0.0962 -0.1341 -0.2647
12018W        W28152  10.261   1.941  14.695 -0.0542 -0.1266  0.0214
12019W        W28153  14.591   3.384   0.938  0.1384  0.0664  0.2039
12020W        W28154  12.172   8.476   4.342 -0.0132  0.1732 -0.1591
12021W        W28155   2.129   7.862   5.914 -0.1616  0.1709  0.0981
12022W        W28156   9.796   2.388  13.789 -0.1494 -0.0792  0.1609
12023W        W28157   9.387  12.106  13.242  0.1256 -0.0803  0.0252
12024W        W28158  12.863  18.039   5.590 -0.0200 -0.0047 -0.2220
12025W        W28159  16.370  13.415  16.204  0.3035  0.1707 -0.0290
12026W        W28160   3.539   1.352  12.609  0.0785  0.0420 -0.1346
12027W        W28161   5.402   9.368   1.777 -0.1508  0.0563  0.2491
12028W        W28162  16.381  12.488   3.401 -0.4873 -0.1600 -0.0517
12029W        W28163  11.378  17.718  15.252  0.0189 -0.0647 -0.0102
12030W        W28164   2.530   4.283   1.199  0.3901  0.1857 -0.1141
12031W        W28165   3.184  10.980   1.369  0.1971  0.3523  0.1315
12032W        W28166   6.389  10.647  13.092 -0.1733 -0.0211 -0.0252
12033W        W28167   5.565  14.712  14.268  0.4876  0.0515  0.1342
12034W        W28168  14.349  13.369   5.703 -0.0844 -0.1604 -0.0160
12035W        W28169   5.930   9.083   0.118 -0.0551 -0.2322  0.0088
12036W        W28170   2.467  14.388  15.097 -0.0060 -0.0628 -0.1063
12037W        W28171  10.841   0.562   4.136 -0.1481  0.1300 -0.1443
12038W        W28172   2.938  12.787   1.822 -0.1720 -0.0990 -0.3257
12039W        W28173   7.127  10.526  15.980  0.0265 -0.2506 -0.1883
12040W        W28174   8.831   3.306  13.915 -0.1344 -0.0586 -0.1182
12041W        W28175  12.474   1.281   3.870 -0.0211  0.0162 -0.1141
12042W        W28176  11.699  17.489  15.940  0.1015 -0.1791 -0.0521
12043W        W28177   6.887  16.664  14.406  0.0536  0.1611 -0.1745
12044W        W28178  12.431   7.744   2.536 -0.0515 -0.0463 -0.1071
12045W        W28179   7.160  13.807  10.955 -0.0609  0.1652  0.0125
12046W        W28180  13.685  14.073   3.268 -0.0081  0.0272 -0.0353
12047W        W28181   8.500   2.974   0.576 -0.1534 -0.0750  0.3734
12048W        W28182  17.251   9.143   3.260 -0.0624  0.3102  0.0286
12049W        W28183   0.772   8.203   4.616  0.1304  0.2036  0.0516
12050W        W28184   6.691  15.639  12.964 -0.3985 -0.0190  0.0111
12051W        W28185   2.138  13.102   3.407 -0.1979 -0.0071 -0.0200
12052W        W28186  10.773  12.543  12.759  0.3059 -0.1761  0.1117
12053W        W28187  13.918  13.770  11.680 -0.1785  0.1278 -0.0963
12054W        W28188   0.794  15.047  16.154 -0.2417  0.0744  0.2272
12055W        W28189  14.955  14.164   1.479  0.0350 -0.0079 -0.1543
12056W        W28190   4.777   8.206   5.026  0.1957 -0.0684  0.0236
12057W        W28191  12.834   7.610  13.601 -0.1413  0.0127 -0.2509
12058W        W28192  16.486  15.683  14.118 -0.0961 -0.1616 -0.0018
12059W        W28193   8.271   5.756  13.111 -0.0702  0.1360  0.1559
12060W        W28194   3.989  14.572  15.044 -0.0210  0.1592  0.2347
12061W        W28195  15.456  15.720  15.916 -0.1218 -0.3087  0.1112
12062W        W28196  11.541  13.372   0.231  0.3326 -0.0367  0.0076
12063W        W28197  13.004  15.341  14.484 -0.1632 -0.1149 -0.0438
12064W        W28198  11.406   3.946   1.036  0.2157  0.1265 -0.2239
12065W        W28199  17.534  14.386  12.653  0.0827  0.1716 -0.0713
12066W        W28200   5.729  14.324  12.668  0.3004 -0.2593  0.1441
12067W        W28201  16.498  14.016  15.262 -0.0670 -0.0172 -0.0419
12068W        W28202   2.979  16.343  14.583  0.1096  0.0740  0.0327
12069W        W28203  12.248   0.708   1.050  0.0204  0.2394 -0.0481
12070W        W28204  11.407  14.488  13.306 -0.2928 -0.1084  0.4360
12071W        W28205   1.428   7.781  11.078 -0.0162 -0.0323  0.0900
12072W        W28206  14.290   8.171  13.766  0.0340  0.0963 -0.0822
12073W        W28207  16.154   0.414  16.364 -0.1202  0.0062 -0.0107
12074W        W28208  15.250  12.832  16.307  0.1122  0.1870 -0.1845
12075W        W28209   3.361   5.685   3.214  0.0945  0.0434 -0.0013
12076W        W28210  16.239   0.990  13.049 -0.1206 -0.0953 -0.0581
12077W        W28211   5.984   2.370  11.537  0.0025  0.2834 -0.0950
12078W        W28212   2.569   1.224  11.264 -0.3471 -0.0557 -0.0051
12079W        W28213   1.224   4.373   3.979  0.3100  0.0119  0.1821
12080W        W28214   2.806  17.571   5.462  0.4368  0.0033 -0.0231
12081W        W28215   6.585  16.857  14.743 -0.0712  0.0059 -0.3912
12082W        W28216  10.786   3.332  15.542  0.1677  0.0877 -0.3712
12083W        W28217  12.775  15.827  13.805  0.0564  0.0673  0.2364
12084W        W28218   4.037  16.535  15.049 -0.2060  0.1312 -0.2296
12085W        W28219   9.159   5.530   2.069  0.3422  0.0951  0.0990
12086W        W28220  16.012   1.781   0.113 -0.0475 -0.0317  0.1797
12087W        W28221  14.497  16.554   4.864 -0.0035 -0.0559  0.0920
12088W        W28222   0.259   1.272  11.613  0.0083  0.2487 -0.3239
12089W        W28223   2.725  12.869  15.484 -0.0051  0.1975 -0.1070
12090W        W28224   0.599   6.238  11.384  0.0521 -0.0356  0.3096
12091W        W28225  16.644  11.061   2.029 -0.2086 -0.1671  0.0509
12092W        W28226  15.182   7.329  10.884  0.1302 -0.3226 -0.2433
12093W        W28227   0.777  12.580   1.929  0.1324 -0.3328 -0.1292
12094W        W28228   1.244   8.758  15.678 -0.1757 -0.0526  0.0145
12095W        W28229  13.734   7.054   1.319  0.2361 -0.1819  0.1428
12096W        W28230   7.011   3.250   4.734  0.3892  0.0262 -0.1990
12097W        W28231   6.159   5.937  15.016 -0.1610 -0.0573  0.2445
12098W        W28232   0.559  11.788  13.705 -0.1047 -0.2069 -0.0332
12099W        W28233  12.348  11.385   2.952 -0.2464  0.1818  0.3193
12100W        W28234  15.684  12.566   0.728  0.0408  0.0295  0.4379
12101W        W28235   5.642   7.720  11.774 -0.0753 -0.0511 -0.2158
12102W        W28236  11.142   1.397   4.819  0.1511 -0.0186  0.1595
12103W        W28237  15.939   6.611   1.889  0.0013  0.1079  0.0799
12104W        W28238   3.954  14.490  15.834 -0.2992 -0.0358  0.2680
12105W        W28239  15.759  13.930   0.966 -0.0851 -0.3433  0.1769
12106W        W28240   1.867   3.711   2.467  0.0766 -0.1806  0.3837
12107W        W28241   1.641  16.670  12.458 -0.0887 -0.0632 -0.0481
12108W        W28242   8.611   3.006   1.191  0.2140 -0.3739 -0.0675
12109W        W28243   3.423   2.680  12.408 -0.1811  0.1615  0.1874
12110W        W28244   7.969   0.423   3.753  0.1052 -0.1303 -0.2054
12111W        W28245  10.660   9.757   5.830  0.0095 -0.1726  0.2320
12112W        W28246   4.790   9.165   2.101 -0.2424 -0.1785  0.2224
12113W        W28247   0.440  17.942   0.540  0.0408  0.1303  0.2051
12114W        W28248   7.806  11.710  14.351  0.0900 -0.0986 -0.2515
12115W        W28249  14.500  16.474   2.593 -0.3061  0.0837  0.0637
12116W        W28250  13.721  13.003  13.631  0.0089 -0.0421 -0.2654
12117W        W28251   7.464   5.767   4.505  0.0174  0.0015  0.0161
12118W        W28252   1.920   7.518   0.206 -0.0869 -0.1712  0.2552
12119W        W28253   5.237   9.713  15.366  0.3208  0.2923  0.0690
12120W        W28254  15.433  11.651  15.528 -0.1032  0.0463  0.0586
12121W        W28255   7.880   0.213   1.170  0.3130  0.1181 -0.0413
12122W        W28256  10.975   7.074  14.648 -0.0084  0.2280 -0.0456
12123W        W28257   7.932   6.594   1.438  0.2103  0.1532 -0.0249
12124W        W28258  14.999   4.603   1.223 -0.3429  0.1240  0.3079
12125W        W28259  10.144  11.110  12.147 -0.0418 -0.3235 -0.2263
12126W        W28260  12.745  18.088   1.076  0.1329 -0.0929  0.4031
12127W        W28261   3.091  17.139  13.555 -0.0459  0.0515 -0.1710
12128W        W28262   4.268  16.574   0.111  0.1477 -0.3205  0.2306
12129W        W28263  16.980   9.080  11.319  0.0943  0.0017  0.0017
12130W        W28264   9.644  11.896  12.796 -0.0648 -0.0893 -0.0210
12131W        W28265   7.278   9.621  15.022 -0.3075  0.1036  0.0382
12132W        W28266   6.035   5.668   4.028  0.0310  0.1309  0.1815
12133W        W28267  12.636  15.739   3.272 -0.0134  0.1586  0.1844
12134W        W28268   2.219   4.745  13.280 -0.1393  0.0622  0.0858
12135W        W28269   9.859   0.956   0.838  0.2221  0.2829  0.2731
12136W        W28270  10.170  12.275  15.002 -0.1849 -0.2683  0.1742
12137W        W28271  12.969  11.789   0.997 -0.1089  0.0036 -0.0756
12138W        W28272   3.541  16.147  13.140 -0.1253  0.1273  0.3514
12139W        W28273   2.623  17.423   0.670 -0.2189  0.1527 -0.3000
12140W        W28274   6.454   8.469  15.622 -0.1478  0.0175 -0.2339
12141W        W28275   2.993   1.545   5.423  0.0768  0.0127  0.0309
12142W        W28276  16.261   2.300  11.669 -0.0547  0.1853 -0.1455
12143W        W28277  12.967   6.424   0.692  0.1627  0.2139  0.1938
12144W        W28278  16.519  14.073  16.164 -0.0793 -0.0107 -0.1414
12145W        W28279  15.391   4.559   0.553  0.0897 -0.2902 -0.0707
12146W        W28280  17.893   6.223   2.168 -0.1023  0.2742  0.0376
12147W        W28281   7.270   9.815   0.358  0.1079 -0.0749  0.0954
12148W        W28282  16.169  17.932   0.023 -0.0042  0.0042  0.0008
12149W        W28283   9.163   7.693  14.512 -0.1540  0.1192  0.0970
12150W        W28284  17.836  13.027  15.420 -0.1172  0.0896 -0.3494
12151W        W28285   3.190  13.027   0.488 -0.1495  0.0915 -0.0515
12152W        W28286  12.045   2.778   5.245  0.0169 -0.0238 -0.1089
12153W        W28287  13.805  12.742  15.089  0.1458  0.2715  0.2262
12154W        W28288   5.096   4.969   4.548 -0.0536  0.1368 -0.0291
12155W        W28289  10.167  17.453  16.078 -0.2016  0.0098 -0.2227
12156W        W28290   7.254   0.726  15.143 -0.1414 -0.1343 -0.0358
12157W        W28291  10.447   7.805  13.412  0.1091  0.1076 -0.1199
12158W        W28292   5.383  15.293   5.600 -0.0478  0.1006 -0.1972
12159W        W28293   9.181  12.063  12.107 -0.1086 -0.3594 -0.0516
12160W        W28294   2.207   4.723   3.792  0.0303  0.1979  0.0234
12161W        W28295   9.383  15.351  15.226 -0.2363 -0.0400 -0.0702
12162W        W28296   5.210   5.294   0.517 -0.0344  0.1264  0.0514
12163W        W28297   4.108  12.394   4.645  0.1944 -0.2726 -0.3159
12164W        W28298  14.572  13.937  12.846  0.0139  0.0496  0.0879
12165W        W28299  10.109  15.176   4.513 -0.0391  0.0753 -0.2426
12166W        W28300  17.360   2.842   1.616 -0.0896 -0.2309  0.0995
12167W        W28301   4.350  11.914   4.618  0.2200 -0.1041  0.0866
12168W        W28302  16.438  15.061   4.993 -0.3468 -0.1962 -0.1480
12169W        W28303  15.040  15.242  13.527 -0.0206 -0.2097 -0.1919
12170W        W28304  17.461   6.034  14.045 -0.1937  0.4463 -0.0028
12171W        W28305  17.524   6.053  10.884  0.0688 -0.3127 -0.0685
12172W        W28306   7.733   8.417  14.543  0.1573  0.1501  0.0097
12173W        W28307  15.563  12.352   2.966 -0.2662 -0.1443 -0.1857
12174W        W28308   6.946  15.214  13.281  0.1292 -0.0269 -0.0975
12175W        W28309   4.242  14.922  16.063 -0.0737  0.0500  0.2445
12176W        W28310   7.126  11.218  14.159 -0.2580 -0.2189 -0.0222
12177W        W28311  17.413  10.794   6.143 -0.1633  0.0478  0.3593
12178W        W28312   9.771   0.647   2.579 -0.1001 -0.1916 -0.1707
12179W        W28313   0.664   0.402  14.106  0.0454  0.0716  0.0223
12180W        W28314  12.978   7.116   3.091 -0.1235 -0.1542  0.1419
12181W        W28315   4.919   1.057  12.117  0.0310 -0.0246 -0.0957
12182W        W28316   4.303  13.863   4.230 -0.1162 -0.0888 -0.3420
12183W        W28317   9.003  11.688   5.476 -0.0763  0.2068  0.3233
12184W        W28318   9.883   1.499   4.358 -0.3907 -0.0496  0.0847
12185W        W28319  11.905  15.575  13.231  0.0613 -0.3522  0.2711
12186W        W28320  12.954   9.961   2.045  0.3304  0.1730  0.1273
12187W        W28321   7.057   3.741   4.628  0.0670 -0.0340  0.0034
12188W        W28322  15.177   0.053   2.298 -0.2648  0.2591 -0.2211
12189W        W28323   5.420  13.594  14.426  0.1560  0.1531  0.6756
12190W        W28324   3.571  16.748  13.887  0.1431  0.0217  0.0250
12191W        W28325   2.988  13.841  12.518 -0.3585 -0.0167 -0.2137
12192W        W28326  10.996  12.769  14.115 -0.1008  0.3659 -0.4569
12193W        W28327   9.600  15.706   2.770  0.0506 -0.0659  0.4211
12194W        W28328   0.987  12.137  11.530  0.1905 -0.0311  0.0722
12195W        W28329   2.613  16.505   0.938  0.2251  0.1015  0.2083
12196W        W28330   4.097  18.053   4.509 -0.0008 -0.1106  0.0013
12197W        W28331   5.902  13.329  16.298  0.2218  0.0483 -0.0032
12198W        W28332   9.251  17.860  16.406  0.0275  0.1620 -0.0627
12199W        W28333  15.530  11.166  16.022 -0.1529  0.1726  0.0018
12200W        W28334   4.424   0.716  14.116  0.0711  0.1043  0.0395
12201W        W28335  10.150   4.453   2.550 -0.1410 -0.0679  0.0487
12202W        W28336   9.190  17.624  15.032 -0.2834 -0.0651  0.0579
12203W        W28337   1.511   6.554  14.217  0.3973  0.1481  0.1793
12204W        W28338  11.520   4.003  11.772  0.3425 -0.1161  0.0719
12205W        W28339   5.710  13.939   0.954 -0.0322  0.2472  0.0117
12206W        W28340   9.731   6.234  15.341  0.2213 -0.0197 -0.2162
12207W        W28341  11.573   5.497  13.766 -0.2426  0.2441 -0.0498
12208W        W28342   8.492  16.580   0.379  0.0976 -0.3313  0.1356
12209W        W28343   9.658   4.869   3.713 -0.0646  0.0071  0.0174
12210W        W28344   2.190  16.173   4.485 -0.0636 -0.0456 -0.1865
12211W        W28345   3.892   8.618  16.086 -0.2616  0.2909  0.2975
12212W        W28346   5.314   9.333   3.764  0.0901 -0.0860  0.1834
12213W        W28347   0.684  13.037   4.999 -0.3203  0.1119  0.1293
12214W        W28348   4.732  15.806   5.910 -0.2898  0.3168  0.0669
12215W        W28349   3.472   4.189   3.293 -0.4462  0.0113 -0.2641
12216W        W28350   0.077   3.902   1.823 -0.0000 -0.2483 -0.2932
12217W        W28351  16.783   9.524  11.129  0.0375  0.0722 -0.2906
12218W        W28352   5.188   9.938   1.044  0.0086 -0.1213 -0.1125
12219W        W28353   2.274  11.485   5.616  0.5580 -0.2202  0.2147
12220W        W28354   3.793  11.101  12.186 -0.0332  0.1869 -0.0219
12221W        W28355  15.420   3.961  11.084  0.1476 -0.2245  0.1254
12222W        W28356  14.006   0.096  10.886 -0.0924  0.2844  0.1131
12223W        W28357  16.360   2.449  13.775  0.0425  0.0742  0.0072
12224W        W28358   2.584  13.739   0.868  0.2650  0.2975  0.1135
12225W        W28359  16.831   3.437   0.986 -0.2274  0.0227  0.2752
12226W        W28360   4.197  16.205  11.584  0.0094 -0.0862  0.1186
12227W        W28361   3.792  12.825  15.961 -0.2066 -0.3214  0.2358
12228W        W28362  16.141   3.154  12.511 -0.4630 -0.0155 -0.0408
12229W        W28363   2.196   9.876  16.140  0.2715  0.0506  0.0141
12230W        W28364  16.722  10.160   5.675 -0.0140 -0.0157 -0.0293
12231W        W28365  15.508   1.058   2.734  0.0402  0.2288  0.0476
12232W        W28366  15.002   9.119  15.100  0.2140 -0.0530 -0.0652
12233W        W28367  17.305  10.813  12.231  0.2713 -0.2216  0.2634
12234W        W28368   7.745   8.775  15.922 -0.2048 -0.1251 -0.1129
12235W        W28369  17.487   3.189   0.319  0.0085  0.0019 -0.4781
12236W        W28370  13.135  17.189   0.874  0.0063 -0.3681 -0.4135
12237W        W28371  17.998   7.844  15.676 -0.2373 -0.0483 -0.0789
12238W        W28372   6.987   6.764   0.733 -0.2604 -0.2809  0.0125
12239W        W28373   8.922  11.016   2.537  0.5078 -0.1003 -0.1248
12240W        W28374  13.212   8.223   1.656  0.1897 -0.0481  0.1972
12241W        W28375   6.027  17.610  13.563  0.1739 -0.0849 -0.0282
12242W        W28376  11.403   2.137   1.648 -0.1793 -0.3233  0.0726
12243W        W28377  14.249   4.870  12.602  0.1766  0.2753  0.2588
12244W        W28378   4.359   6.933   3.757  0.3284  0.0575 -0.2795
12245W        W28379   9.971   1.924  14.249  0.4024 -0.0112  0.0232
12246W        W28380  16.047  10.403  12.096  0.1103  0.3121 -0.0431
12247W        W28381   6.641   8.899  12.619  0.0099  0.1326 -0.0375
12248W        W28382   7.526   8.741   5.362  0.1064 -0.0515 -0.2495
12249W        W28383  14.081   7.909   0.089 -0.0894 -0.3858  0.2574
12250W        W28384   3.291   8.932  14.649  0.1219  0.0789  0.0963
12251W        W28385   1.798  12.423  12.753 -0.0969  0.1372 -0.4077
12252W        W28386  12.866   2.049  11.127 -0.1031 -0.1762  0.0116
12253W        W28387  11.094   3.868  12.005 -0.2414 -0.2391  0.0191
12254W        W28388  10.901   8.671  12.440  0.0479 -0.2885  0.4447
12255W        W28389  11.874   0.273   1.718  0.0033 -0.0838  0.4171
12256W        W28390   1.705  17.906   0.366 -0.1326  0.0735  0.1717
12257W        W28391  13.599   8.416  12.884 -0.0233 -0.1111  0.1775
12258W        W28392  11.087  13.900   4.837 -0.0305  0.2212 -0.0585
12259W        W28393  11.106   2.919   4.061 -0.2569  0.1013 -0.0182
12260W        W28394   5.795  10.146   0.161  0.0419  0.0344  0.1424
12261W        W28395   8.321  13.603   1.563 -0.1923  0.1550 -0.1267
12262W        W28396   4.650   3.232  12.941  0.1364  0.0588  0.0820
12263W        W28397   0.909   3.907  13.509 -0.0095 -0.1399 -0.1161
12264W        W28398   2.568   8.370  16.082  0.0132 -0.0633 -0.1954
12265W        W28399  16.912   2.979  11.837  0.1777  0.0790  0.2855
12266W        W28400  14.673  12.451  15.792  0.1990 -0.1926 -0.2774
12267W        W28401   1.630   9.405   2.563 -0.1597 -0.0755 -0.0909
12268W        W28402  11.455  13.575   0.786 -0.0956 -0.0414 -0.1124
12269W        W28403   2.443  13.500   5.397 -0.0897 -0.2369 -0.1597
12270W        W28404   2.000  12.782   5.432  0.1878  0.0570 -0.2092
12271W        W28405   0.901  10.177   4.500  0.0410 -0.0302  0.0658
12272W        W28406  15.737  15.051   0.683 -0.3544  0.0791  0.0524
12273W        W28407   6.285   1.389  13.427 -0.0848  0.0264  0.1699
12274W        W28408  10.837  13.523   5.071 -0.1980 -0.1636  0.2976
12275W        W28409   3.916  12.854   2.547  0.4479 -0.1404  0.0323
12276W        W28410   1.241   2.818   0.731 -0.1751 -0.3225  0.3170
12277W        W28411  11.121  14.434   4.634  0.1082 -0.0245  0.2718
12278W        W28412  13.444   1.786  11.642 -0.2775  0.1291  0.2729
12279W        W28413  12.179  11.908   3.609 -0.1534 -0.0699 -0.0183
12280W        W28414   4.105   1.259   0.887 -0.0146 -0.2607  0.1650
12281W        W28415   4.903   9.179   2.671 -0.0915 -0.0905  0.0275
12282W        W28416   0.647   3.937  12.943  0.1496 -0.0641 -0.2882
12283W        W28417   9.865  10.507   6.470  0.1093  0.1747 -0.2868
12284W        W28418   1.347   4.656  16.163 -0.2115 -0.1292  0.0543
12285W        W28419   3.211  13.356  15.356  0.2611 -0.0585 -0.1638
12286W        W28420  14.311  10.843   1.219 -0.1245 -0.0711 -0.1557
12287W        W28421   1.933   9.412  11.638  0.0854  0.1779 -0.1973
12288W        W28422   4.308   2.506   3.758  0.0443  0.1246 -0.0146
12289W        W28423  12.767  15.933   0.800  0.2155 -0.1862  0.0744
12290W        W28424   4.965   4.154  14.562  0.4588  0.0569  0.1761
12291W        W28425  14.203  12.979  11.018  0.1093  0.0609  0.1254
12292W        W28426   7.378  15.382  15.716 -0.3193  0.4040  0.2404
12293W        W28427  17.706  17.976   0.430 -0.1714 -0.1908  0.1786
12294W        W28428  13.846   4.174   2.858  0.0438  0.0097  0.1383
12295W        W28429  15.128   4.738   2.813  0.0145  0.0583 -0.0122
12296W        W28430  18.056  12.236  15.664 -0.0471  0.1087  0.1595
12297W        W28431  14.067   8.793  12.061  0.2360 -0.1936  0.1436
12298W        W28432  12.252  17.285  14.080 -0.1959  0.2593  0.1946
12299W        W28433  17.708   6.394  15.453 -0.3316  0.3027 -0.1537
12300W        W28434   2.279   9.545  12.001 -0.0195 -0.0555  0.1284
12301W        W28435   2.262   0.553   0.324  0.0545  0.0180  0.0555
12302W        W28436   3.619  10.577  14.792 -0.1027  0.1525 -0.2178
12303W        W28437  10.611  13.323   4.246  0.1007 -0.1344 -0.0627
12304W        W28438   1.103   9.997   5.092 -0.0702  0.0266  0.1046
12305W        W28439   3.948   3.553  13.596 -0.1427  0.2293  0.0058
12306W        W28440  14.794   5.580   2.222 -0.1626  0.2381  0.1483
12307W        W28441   9.994  15.501  14.113  0.2106  0.1549 -0.1261
12308W        W28442   5.305  13.119   0.741  0.2641  0.0818 -0.1029
12309W        W28443   1.922   0.537  13.147  0.0783  0.1289  0.1341
12310W        W28444   4.888   6.688   2.143 -0.1628 -0.0949  0.1042
12311W        W28445   0.696   1.741   4.017  0.0783 -0.3067 -0.5392
12312W        W28446   6.403   2.721  12.624  0.2061 -0.0981  0.1270
12313W        W28447   6.502  16.413  16.001 -0.0537 -0.0925  0.4419
12314W        W28448  17.635   2.158   4.331 -0.1850  0.0894  0.1649
12315W        W28449  17.779   4.513   1.953  0.0396  0.2006 -0.0054
12316W        W28450   0.808  17.925  13.456 -0.0404  0.1035 -0.0325
12317W        W28451  16.664   9.076   5.023 -0.0457  0.1628 -0.1599
12318W        W28452  10.322   3.301   3.838  0.3848 -0.1161 -0.3960
12319W        W28453   2.552   9.607  13.014  0.3385 -0.0953 -0.0547
12320W        W28454   0.786   9.086   4.605  0.1199 -0.0659 -0.2593
12321W        W28455  15.999  10.425   0.103  0.0894  0.1182  0.1431
12322W        W28456  16.105   3.871   2.808 -0.0733  0.2276  0.0559
12323W        W28457   5.655  14.638  13.166 -0.0864  0.0375  0.1782
12324W        W28458  13.507   0.524   0.812  0.1764 -0.3065 -0.1525
12325W        W28459  14.772  13.855  11.385  0.1680 -0.2612  0.0400
12326W        W28460   8.943  11.351   4.623 -0.1490  0.0715  0.1265
12327W        W28461   4.073   7.587  14.722  0.2475 -0.1295  0.0318
12328W        W28462   3.074  18.080  11.543 -0.0525  0.0587 -0.3705
12329W        W28463  11.362   7.104  16.025 -0.1594 -0.1528 -0.2567
12330W        W28464  14.074   4.999   0.088  0.0560  0.0717 -0.0278
12331W        W28465   5.158   5.803  10.740 -0.1566  0.0617  0.1129
12332W        W28466  11.638   7.266   4.199  0.0058 -0.1058 -0.0519
12333W        W28467   0.246  12.305   4.047 -0.1672 -0.0520  0.0300
12334W        W28468  11.406   7.996  15.075 -0.0071  0.1552  0.0492
12335W        W28469   1.894  17.069  12.280 -0.2263 -0.0439 -0.1656
12336W        W28470  15.261  16.762   5.444 -0.0911  0.0630 -0.1085
12337W        W28471   5.161   8.098  15.827  0.0337 -0.0542  0.0022
12338W        W28472  16.376  12.393  14.311 -0.1639 -0.1795 -0.0806
12339W        W28473   9.516   2.703   4.907  0.0340 -0.2344 -0.0048
12340W        W28474  12.260   5.961   4.242  0.2965 -0.0393 -0.0717
12341W        W28475  15.107   1.542   4.277  0.0206  0.1395  0.1626
12342W        W28476   2.534  15.110   6.006  0.0706 -0.0391  0.0620
12343W        W28477  13.023  17.245  16.194  0.1021  0.0543  0.0396
12344W        W28478   5.462   1.217   2.598 -0.0766 -0.2263 -0.0455
12345W        W28479   2.774  11.572   5.447 -0.1120 -0.1604  0.2695
12346W        W28480   1.139   2.040   2.151  0.2017  0.0946 -0.0028
12347W        W28481   6.462  16.732  15.593  0.3501 -0.0522  0.4337
12348W        W28482  11.050   7.728  12.806  0.0294  0.0573  0.0538
12349W        W28483  13.044   2.109   1.053  0.1113  0.0616 -0.3507
12350W        W28484   9.894  13.376   5.004 -0.0153  0.1608  0.1089
12351W        W28485   3.136   0.002  13.359 -0.0496 -0.1128 -0.0926
12352W        W28486  12.379   5.668  15.519  0.0830  0.0494 -0.0252
12353W        W28487  12.824  14.695   1.644  0.0307  0.0342 -0.0075
12354W        W28488  12.907  17.277  12.119  0.0014  0.1616  0.0298
12355W        W28489  11.095   6.187   1.597 -0.2217  0.0107  0.0192
12356W        W28490  14.005   2.271   2.909 -0.0646  0.0228  0.3936
12357W        W28491   4.644   4.373   1.985 -0.2546  0.1037 -0.1102
12358W        W28492   7.657   1.905   5.874 -0.1277  0.0628 -0.0401
12359W        W28493  15.768   9.550  13.095 -0.0665 -0.2497  0.1416
12360W        W28494  16.396   5.592   1.544 -0.2500 -0.3632 -0.0770
12361W        W28495   4.031   2.063  12.201  0.1154 -0.2035  0.0118
12362W        W28496  10.707   8.050  11.480 -0.1463 -0.0071 -0.0090
12363W        W28497   7.808  13.916   4.021 -0.2740 -0.1544  0.2699
12364W        W28498  15.157  15.594  14.694  0.2615 -0.2591 -0.1082
12365W        W28499   6.538  10.500   0.096  0.2238  0.2565 -0.4328
12366W        W28500  12.708  11.520   2.561 -0.0971 -0.0739 -0.1773
12367W        W28501  11.725   0.922   3.402 -0.3511 -0.3175 -0.0256
12368W        W28502   1.796  16.564  15.759 -0.0426  0.0406  0.0828
12369W        W28503   1.961  14.427   2.119  0.0398 -0.0068 -0.2393
12370W        W28504   4.475  16.714   3.752 -0.0030 -0.0899  0.1463
12371W        W28505  15.618   1.967   2.873 -0.1253  0.0792 -0.1047
12372W        W28506  14.770   6.990   3.200  0.0704 -0.0354  0.0146
12373W        W28507   2.854   2.629   1.127 -0.0817  0.2060  0.1047
12374W        W28508  14.530  12.052  11.255 -0.0950  0.1075  0.0237
12375W        W28509  16.355   3.363  13.188  0.0277 -0.1310  0.0826
12376W        W28510  17.815  12.520   2.264  0.1339 -0.1045  0.3357
12377W        W28511  15.894  14.564   3.323  0.0656  0.2349  0.1840
12378W        W28512   6.947  17.277  16.257 -0.6793 -0.4620 -0.1092
12379W        W28513   5.394   6.283   5.250  0.0021  0.3397  0.2462
12380W        W28514  10.743   7.148   0.273  0.0877 -0.0159  0.2660
12381W        W28515  13.759   6.864   1.936  0.1874  0.1600 -0.1054
12382W        W28516   1.704   6.453  15.654 -0.1173  0.2082 -0.2668
12383W        W28517   0.689   5.965   3.374 -0.0234 -0.1080 -0.3746
12384W        W28518   9.144   8.502   6.006  0.1860 -0.1743  0.0591
12385W        W28519   1.875  13.699   6.044 -0.0098 -0.0971  0.1196
12386W        W28520  15.434  17.106  14.769  0.0128 -0.1491  0.1150
12387W        W28521  10.953   2.094  12.707 -0.0965  0.1688  0.0011
12388W        W28522   0.045   2.372   2.848  0.0728  0.1202  0.0167
12389W        W28523  16.362   9.647   2.567  0.3243  0.1087  0.1180
12390W        W28524  10.687   2.429  13.946 -0.1546  0.0210 -0.1718
12391W        W28525   8.433  17.183   2.558 -0.1429  0.0753 -0.1257
12392W        W28526  14.695   5.759   3.249  0.0176 -0.0483 -0.2144
12393W        W28527   9.648  13.237  12.911 -0.3476 -0.3143  0.2236
12394W        W28528  17.505  15.718  16.407  0.0890 -0.0467 -0.1706
12395W        W28529   4.925   3.513   1.908  0.1558 -0.0647 -0.0442
12396W        W28530   7.477   9.514   2.418 -0.2303  0.2766  0.2179
12397W        W28531  12.215   4.554  15.700  0.1162 -0.1555 -0.1481
12398W        W28532   3.007  16.285  13.404  0.0640  0.0198 -0.2661
12399W        W28533   5.422   2.917  15.730 -0.1108  0.1100  0.2027
12400W        W28534  14.386   4.553   4.411  0.2216  0.3271 -0.1202
12401W        W28535   2.820   0.804   4.303  0.1391  0.0807 -0.0148
12402W        W28536   3.302   2.578   2.256 -0.1139 -0.3638 -0.1489
12403W        W28537   5.070  10.207  14.496 -0.0867  0.2118  0.1076
12404W        W28538  14.820   2.267  16.065 -0.1124  0.2754 -0.0518
12405W        W28539   3.895  12.577  12.483 -0.0019 -0.0075 -0.2217
12406W        W28540   5.046  13.235   0.267 -0.1211  0.5036  0.0927
12407W        W28541   2.398   5.623  13.722  0.2097 -0.2205  0.1560
12408W        W28542  15.493   7.969   4.950  0.1881 -0.0876  0.0965
12409W        W28543   4.185  17.893   1.699 -0.1973 -0.1911 -0.1068
12410W        W28544   5.514   0.086  15.845  0.2056 -0.0452 -0.0953
12411W        W28545   1.077   1.754   1.652 -0.0836 -0.0873 -0.0390
12412W        W28546  12.688   7.053  14.034  0.2596 -0.1981  0.1594
12413W        W28547  12.786   0.995  14.313  0.2956 -0.0437 -0.2267
12414W        W28548   6.817  10.300  13.502  0.2004 -0.1760 -0.1602
12415W        W28549   6.012  14.243   1.710  0.1599 -0.1683  0.2133
12416W        W28550   4.502  13.408  14.130  0.1309 -0.1706 -0.1099
12417W        W28551  15.730   7.156  11.613  0.0606  0.3695 -0.2457
12418W        W28552   3.852   9.223   1.165 -0.0041  0.1319 -0.0548
12419W        W28553   2.482  15.253   1.017 -0.2933 -0.2640  0.0583
12420W        W28554   3.120   9.735  15.121 -0.0725  0.1191  0.4144
12421W        W28555   6.177   6.437   5.412 -0.0049  0.0572  0.0135
12422W        W28556   8.646  17.555   1.244  0.3756  0.2860  0.2517
12423W        W28557   4.921  11.331  11.532 -0.1898  0.0647 -0.5054
12424W        W28558  14.032   8.639  13.058  0.0936  0.1729 -0.2271
12425W        W28559  10.610  12.482   0.152 -0.0278 -0.0740  0.3455
12426W        W28560   6.152   1.634   3.172  0.1449  0.1263 -0.3049
12427W        W28561   0.304   1.862   0.593 -0.2808 -0.0802  0.3912
12428W        W28562   0.932   9.537  12.669 -0.2699  0.0675 -0.2769
12429W        W28563   6.637  14.934  12.921  0.2262  0.3540 -0.1991
12430W        W28564   4.796   8.122   1.208 -0.2319 -0.1170 -0.0207
12431W        W28565   7.390  17.807   4.501  0.0773  0.1035 -0.1698
12432W        W28566  17.792  15.707   1.498  0.0433 -0.0054 -0.0187
12433W        W28567   7.732   9.036   3.292 -0.0057  0.3308  0.2214
12434W        W28568   6.097   0.621   2.890  0.0457  0.0736 -0.1549
12435W        W28569   0.452  11.090   5.473  0.1370  0.2050  0.1311
12436W        W28570   3.370   3.996  13.969  0.2043  0.0415 -0.1221
12437W        W28571  12.278  13.423   4.286 -0.3609 -0.0760  0.2040
12438W        W28572  17.473  12.597  13.031 -0.0614 -0.1889  0.0030
12439W        W28573  16.428   9.391   4.717 -0.1132 -0.3119  0.0234
12440W        W28574  11.341  10.978  11.884 -0.0749  0.0573 -0.0610
12441W        W28575  14.470  13.451  13.474  0.0124  0.2500  0.0751
12442W        W28576  11.585  16.621   0.087 -0.1212  0.0476  0.0480
12443W        W28577   1.952  14.595   5.085 -0.2960 -0.2659 -0.4249
12444W        W28578   8.422   7.865   5.124 -0.0623 -0.2850 -0.0416
12445W        W28579   7.013   5.965  13.229  0.0301 -0.0601  0.0296
12446W        W28580  15.163   2.215   5.566  0.0877  0.1258 -0.2118
12447W        W28581  14.019   4.043  15.323 -0.1451 -0.1035 -0.0367
12448W        W28582   9.150  12.980   4.934 -0.0724 -0.0054 -0.1828
12449W        W28583   0.984  13.356  14.828  0.0689  0.0710 -0.1934
12450W        W28584   7.877  13.919   2.278 -0.0640 -0.2897 -0.1336
12451W        W28585   2.483   5.500  12.620 -0.0858 -0.0205 -0.1172
12452W        W28586   9.993   0.093   1.836  0.1817  0.3823 -0.4359
12453W        W28587  11.987   9.867   3.585  0.1904  0.0357  0.0180
12454W        W28588   1.108  17.873  16.075 -0.0767  0.1116  0.1040
12455W        W28589  15.846  11.760  15.300 -0.0306  0.0937  0.0734
12456W        W28590  13.732  17.179   4.291  0.2790  0.2815  0.1577
12457W        W28591   9.878   8.337   1.346 -0.1120  0.0490 -0.1375
12458W        W28592  15.619  13.879  14.879 -0.0780 -0.0010 -0.0547
12459W        W28593   8.129  16.530   4.624  0.3600  0.0460  0.0264
12460W        W28594   3.466   2.986   3.579 -0.1061  0.0248  0.2929
12461W        W28595   0.768  10.619  11.356  0.2299  0.1419  0.0992
12462W        W28596  15.297   1.598   2.723  0.2043 -0.1515  0.0879
12463W        W28597   0.851  16.433   5.510 -0.0406 -0.4186  0.2119
12464W        W28598   2.825  11.750  14.105 -0.2754  0.1282  0.1166
12465W        W28599  14.358   4.135   2.792 -0.0542 -0.1507 -0.1657
12466W        W28600  15.763   0.174  13.305 -0.1418  0.1041 -0.0975
12467W        W28601   2.612   9.999  14.908 -0.0325 -0.1963 -0.1524
12468W        W28602   4.956   1.783  12.774  0.0080  0.0368 -0.1240
12469W        W28603   7.983  15.666  11.390 -0.2528 -0.1321 -0.0980
12470W        W28604  13.585   3.377   1.906 -0.2424 -0.3848 -0.0980
12471W        W28605   3.692   6.086   4.190 -0.2459  0.2222  0.1039
12472W        W28606  17.202   0.454   5.420 -0.0980  0.0650  0.0674
12473W        W28607  12.371   4.674  12.685  0.0024  0.0490  0.2022
12474W        W28608  12.870   5.837  14.382 -0.0682 -0.2612 -0.0191
12475W        W28609   5.998  10.391   1.963  0.2245  0.1109 -0.0374
12476W        W28610   2.354   2.932   2.564 -0.0893 -0.1123 -0.1280
12477W        W28611   5.092   2.563  13.956  0.3131 -0.3565  0.1636
12478W        W28612  15.729  17.932   4.596 -0.1446 -0.2123  0.1431
12479W        W28613   0.277   7.501   1.606 -0.1675 -0.0334 -0.0193
12480W        W28614  15.396   2.607  12.316  0.0026  0.1301  0.3120
12481W        W28615   5.284   7.083  15.206 -0.0376  0.0217 -0.0099
12482W        W28616   9.520   7.453  13.667  0.0991  0.1167  0.0444
12483W        W28617  13.252   5.669   1.745  0.1665 -0.2353  0.0664
12484W        W28618  12.641  12.945  16.109  0.1314 -0.1413 -0.4655
12485W        W28619   4.253   6.457   0.362  0.0413  0.1012  0.3297
12486W        W28620   4.577   5.692  12.591  0.2200 -0.2587 -0.4887
12487W        W28621  17.164  10.696  12.980 -0.2964 -0.0039  0.0705
12488W        W28622   2.151  15.923  13.998 -0.0201 -0.0746  0.3455
12489W        W28623   1.709  17.651  14.602 -0.1263  0.0406  0.0571
12490W        W28624  13.774  11.943   3.067 -0.0444 -0.2002  0.1532
12491W        W28625   4.708  13.376   2.805  0.1760 -0.0816  0.0892
12492W        W28626   6.750  12.036   1.633 -0.2398  0.1783 -0.0245
12493W        W28627   1.297  16.320  11.668  0.0500  0.0675 -0.1676
12494W        W28628   6.895  10.620  12.902 -0.1086 -0.1542  0.1868
12495W        W28629  14.393  11.263   2.026 -0.1215 -0.2218 -0.0719
12496W        W28630  10.794  10.709  12.932  0.2403 -0.0279  0.0207
12497W        W28631   3.309  14.755   5.175 -0.0545 -0.2078 -0.0069
12498W        W28632   8.987  15.916  11.757 -0.1457  0.0750 -0.0916
12499W        W28633  10.679   0.297  14.789 -0.2993  0.0491  0.2901
12500W        W28634  13.689   4.396  15.227  0.3498  0.0574  0.1598
12501W        W28635  15.009  10.363   4.009 -0.0069  0.1497 -0.0387
12502W        W28636  13.049  10.665   0.444  0.2786 -0.0226  0.0544
12503W        W28637   7.755   3.005   0.900 -0.0590 -0.1388 -0.1967
12504W        W28638   8.507  15.574   0.315  0.1135 -0.1837 -0.0953
12505W        W28639  17.651   3.553   0.605  0.0794  0.1936  0.1610
12506W        W28640   8.135  14.338   5.596 -0.1196 -0.1874  0.0786
12507W        W28641   1.374   0.686  13.376 -0.1094  0.1875  0.1528
12508W        W28642  15.543   9.461  14.252 -0.0335 -0.0341 -0.0265
12509W        W28643  13.282   4.810   3.184 -0.0356 -0.1852 -0.4114
12510W        W28644   3.244  16.350   2.898 -0.0084  0.4100  0.3108
12511W        W28645  11.579   7.953   5.006 -0.1463  0.2203  0.1330
12512W        W28646   4.646   2.387  11.745 -0.0758  0.0873 -0.0780
12513W        W28647   6.057   7.235  14.088 -0.0820  0.1885 -0.1446
12514W        W28648  13.724  10.412  14.541 -0.3939 -0.2215 -0.1716
12515W        W28649  16.857   6.836   1.015 -0.1702 -0.1913 -0.1349
12516W        W28650   0.869   8.551  11.603  0.0182  0.1218  0.1635
12517W        W28651   4.005  14.778   4.392  0.0736  0.0396 -0.0905
12518W        W28652   5.764  17.962   3.197 -0.1672 -0.2220  0.0258
12519W        W28653   4.902   8.170   2.884  0.0544 -0.0849  0.1395
12520W        W28654  17.247   3.187   2.113  0.0687 -0.1169  0.2972
12521W        W28655  17.430   9.244  11.985  0.0601  0.0850 -0.0282
12522W        W28656  13.419   1.782   3.804  0.0696 -0.0875  0.1835
12523W        W28657   3.685   7.388  12.861 -0.0167  0.0358  0.3659
12524W        W28658  13.152   3.279  13.750 -0.1373 -0.1546 -0.1628
12525W        W28659   7.247  17.034  13.739  0.0043 -0.2511  0.3528
12526W        W28660  14.158   0.374  13.726  0.1137 -0.0858  0.1549
12527W        W28661  14.522  14.368  11.252  0.0700 -0.1731  0.0099
12528W        W28662  14.736   3.882   0.537  0.2288  0.0834 -0.0739
12529W        W28663   8.818  11.516   4.183  0.2518 -0.0951  0.0147
12530W        W28664   5.034   7.168  14.167 -0.0954 -0.1165 -0.1257
12531W        W28665  10.305  10.436   0.315 -0.0197  0.0363  0.0666
12532W        W28666  11.033   9.643  14.322 -0.3434  0.0349  0.2008
12533W        W28667   0.395   2.361   0.739 -0.4465  0.0787 -0.0230
12534W        W28668  12.250   5.655   4.812  0.2975 -0.0315  0.2162
12535W        W28669  17.448   6.118   2.009 -0.1664  0.0954  0.0412
12536W        W28670   0.296  16.778  16.094 -0.1104  0.0446  0.2994
12537W        W28671  13.256  15.992   5.672 -0.1101  0.0024  0.1466
12538W        W28672  14.757  15.496  15.061  0.1437 -0.0673  0.1099
12539W        W28673  15.889   0.716  12.161 -0.1703  0.0085 -0.1796
12540W        W28674   0.213   1.453   0.315 -0.1743  0.0708 -0.2613
12541W        W28675  15.259   4.951   1.012  0.0979 -0.1905 -0.1911
12542W        W28676   4.510  16.391   4.123 -0.0339 -0.0751 -0.2209
12543W        W28677  11.788  12.753  16.138  0.2022  0.0254  0.1185
12544W        W28678  11.935   2.837   2.214 -0.0009  0.1866  0.2425
12545W        W28679   8.512  12.131   1.587  0.1282  0.0742 -0.0301
12546W        W28680   6.705   6.476   1.100 -0.3713  0.0709  0.0432
12547W        W28681   4.740   4.086  11.343 -0.1266 -0.6078  0.0129
12548W        W28682  16.955  17.598   3.792 -0.3081 -0.0504  0.0697
12549W        W28683   9.283   4.830   4.033 -0.1704 -0.5062  0.1857
12550W        W28684   3.908  11.005  14.959  0.1884  0.1974 -0.0803
12551W        W28685   6.455   5.671  10.912 -0.0755  0.0589  0.2403
12552W        W28686  12.723   1.973   4.065  0.2061 -0.1904 -0.0404
12553W        W28687  17.344   4.432  15.454 -0.0915  0.0446 -0.1011
12554W        W28688   6.515   4.635   2.319 -0.1643  0.1222 -0.0101
12555W        W28689  15.164  12.535  15.111 -0.1673  0.1822 -0.0147
12556W        W28690   3.393  16.944   2.259 -0.0178 -0.0400  0.0696
12557W        W28691   9.409   3.868   2.996  0.4930 -0.1647 -0.0323
12558W        W28692   9.233   8.897  11.535  0.0927 -0.1427  0.1284
12559W        W28693  13.708   5.815   1.920  0.2420  0.3253 -0.0631
12560W        W28694   1.375   0.648   4.125  0.0315  0.1928  0.0446
12561W        W28695  10.662  16.436  13.537 -0.2711 -0.0838  0.0771
12562W        W28696   6.462   4.897   4.655  0.2523 -0.1143 -0.1751
12563W        W28697   2.590  10.370   2.927 -0.1767  0.0854 -0.0122
12564W        W28698   4.790  17.714   4.991 -0.0136 -0.0249 -0.1419
12565W        W28699   3.103  12.345  12.962 -0.0236  0.1668 -0.0486
12566W        W28700   8.209  11.484  15.663  0.0741 -0.4747  0.1081
12567W        W28701   5.552  15.359  15.895 -0.1020 -0.1201 -0.0333
12568W        W28702   3.128   6.943   2.650  0.0256  0.0606  0.1763
12569W        W28703   4.511   5.985   0.096  0.2151 -0.1323 -0.0062
12570W        W28704   2.939  11.620   2.014  0.1600  0.4928 -0.1049
12571W        W28705  11.744  17.401  13.961 -0.3244  0.1045  0.0931
12572W        W28706  15.120   0.006   6.280  0.2487 -0.1069 -0.0028
12573W        W28707   5.695   6.144  11.709 -0.1069  0.0854 -0.2912
12574W        W28708   0.580   8.748  12.511 -0.2155 -0.4903 -0.1191
12575W        W28709  16.207   1.637  11.757  0.2853 -0.2956 -0.0095
12576W        W28710   9.043   7.870  15.553  0.3780 -0.1847  0.2250
12577W        W28711   3.346   3.936  10.650 -0.0959 -0.1085  0.0071
12578W        W28712  13.927  17.347  12.231  0.1544  0.0347 -0.1757
12579W        W28713   6.669   4.106   4.457  0.1196  0.0023  0.1260
12580W        W28714  16.725  16.831   1.848  0.0668  0.0664  0.1273
12581W        W28715   1.537  14.752   2.209  0.1643  0.1166 -0.0791
12582W        W28716   9.127   9.554  16.256  0.2268  0.0951  0.0337
12583W        W28717  11.078   8.776   2.101  0.1861 -0.0300 -0.4314
12584W        W28718  15.636   2.359  14.783 -0.0746 -0.1610  0.0754
12585W        W28719  13.829  13.672   0.456 -0.0160 -0.2046 -0.1936
12586W        W28720   4.007  15.192  12.176  0.2648 -0.2040 -0.3152
12587W        W28721  18.084   8.716   2.805  0.0350  0.0315  0.0312
12588W        W28722   1.436   3.239   2.128 -0.0806  0.1403  0.0324
12589W        W28723  10.442   4.171   3.713  0.0089  0.0869  0.1486
12590W        W28724  16.472  15.710   0.830 -0.0883 -0.2971  0.0127
12591W        W28725  12.342   3.064   2.351 -0.3087  0.2435  0.2766
12592W        W28726  14.527  14.858  13.269  0.0414  0.1827  0.0316
12593W        W28727   9.079  13.669  13.867 -0.2483 -0.2726 -0.0182
12594W        W28728  13.124   7.534  15.443 -0.1113 -0.2993  0.0488
12595W        W28729   4.351   0.799  12.831  0.0317  0.0844  0.0805
12596W        W28730  10.755   7.981  10.915  0.1128 -0.1490  0.1894
12597W        W28731   5.553   5.530  10.489  0.0431 -0.0527  0.0283
12598W        W28732  12.355   4.925  11.673 -0.1983 -0.2731  0.3125
12599W        W28733  11.446  15.135   3.540  0.0735  0.0090  0.1214
12600W        W28734   9.680   6.975  12.348 -0.3535 -0.1501 -0.0649
12601W        W28735   8.433   4.778   2.418  0.1799  0.0292  0.0871
12602W        W28736  13.150   2.455  12.491  0.1794 -0.1825 -0.0602
12603W        W28737  14.050   1.996  13.394 -0.0434 -0.0946  0.0315
12604W        W28738   3.182   0.592   3.432 -0.0742 -0.2089  0.1635
12605W        W28739   0.206   0.326  14.411 -0.0550 -0.2043  0.1972
12606W        W28740   2.791   9.338  16.308 -0.3107  0.0517  0.2037
12607W        W28741  16.871   0.402   2.585  0.2147 -0.0747 -0.2549
12608W        W28742   4.771  12.924  13.500  0.2189 -0.1405 -0.0095
12609W        W28743   8.334   7.743  15.150  0.1424  0.1809  0.2479
12610W        W28744   8.534  15.935   2.210  0.2670  0.1911 -0.0394
12611W        W28745  17.281   3.998   1.383  0.1732  0.0548 -0.1953
12612W        W28746   4.917  15.628  13.726  0.0781  0.2016  0.3503
12613W        W28747  15.144  10.379  14.712  0.1013 -0.2080  0.2253
12614W        W28748  13.265  13.406  14.650  0.0623 -0.2243  0.0214
12615W        W28749   1.937   2.171   1.376 -0.0876 -0.0965  0.0882
12616W        W28750  13.522  17.640   4.094  0.0148  0.0742 -0.0783
12617W        W28751  11.797   3.345   3.013 -0.1076  0.0541  0.2723
12618W        W28752  15.420   4.473   0.003  0.0180  0.0020 -0.0593
12619W        W28753  15.577  10.245  16.394  0.2968 -0.0868 -0.5485
12620W        W28754   2.208   1.579  11.446  0.0607 -0.3782 -0.2429
12621W        W28755   2.221   2.797  12.086 -0.0915  0.1465  0.0946
12622W        W28756  12.210   9.453  15.148  0.2008  0.2084 -0.2417
12623W        W28757   7.631   0.881   3.159  0.0597  0.1384 -0.0351
12624W        W28758  15.980  10.977   3.364  0.1316  0.0730  0.0082
12625W        W28759  12.823   8.199   1.329  0.0038 -0.0849  0.1861
12626W        W28760  13.883  12.099   1.384 -0.1540 -0.0265 -0.2521
12627W        W28761   3.016   3.054   4.861  0.0415  0.1788  0.1421
12628W        W28762  13.412   0.026   0.763  0.2371 -0.1045 -0.1589
12629W        W28763  15.162   4.237  11.666 -0.1428 -0.1498 -0.0219
12630W        W28764  12.336   4.859  14.308  0.1431  0.1744 -0.1719
12631W        W28765  17.114   1.569  15.420 -0.2541  0.1160 -0.2533
12632W        W28766   4.483   8.330  11.679  0.2453 -0.0569  0.2532
12633W        W28767  13.381  12.517  15.827  0.1553  0.1414 -0.1073
12634W        W28768  12.186  14.571   4.723 -0.0394  0.1048  0.0172
12635W        W28769  12.688  14.006   2.349  0.0561  0.1488 -0.0512
12636W        W28770  12.922  12.185  15.803 -0.2349  0.0380  0.1944
12637W        W28771   6.748  11.720  14.374  0.1282  0.2111  0.0105
12638W        W28772   7.316   6.991   3.428  0.2235 -0.1764 -0.0824
12639W        W28773   0.338  17.727   1.877 -0.0009  0.0298 -0.1274
12640W        W28774   3.121  14.746  12.132  0.1178 -0.1590 -0.0027
12641W        W28775   6.128   3.315   5.357 -0.0705  0.3218  0.1103
12642W        W28776  13.192   8.961  13.582 -0.2293  0.0715 -0.0070
12643W        W28777  12.508   2.069  14.822  0.1887  0.2250  0.2414
12644W        W28778  14.994   6.044   0.599  0.0033 -0.2082 -0.2323
12645W        W28779  12.657  15.992   0.293  0.0367 -0.0822 -0.1315
12646W        W28780  11.222  15.771   0.091  0.2097 -0.0441 -0.1940
12647W        W28781   0.206  17.397   5.073 -0.0631  0.1056  0.0462
12648W        W28782  14.902  11.418  14.197 -0.0845  0.1180  0.0404
12649W        W28783   8.212  13.493   2.910  0.0297  0.1922 -0.1691
12650W        W28784   9.155  16.842   1.032  0.0592 -0.0463  0.2813
12651W        W28785  14.242   3.448   3.539 -0.0801  0.0252  0.2540
12652W        W28786  12.806   3.092   0.665  0.1033 -0.2879 -0.0463
12653W        W28787   7.076   7.567   3.690  0.1752  0.2709 -0.0602
12654W        W28788  17.433   3.260   1.336  0.1172 -0.0019  0.3309
12655W        W28789  15.781  11.455   3.358 -0.0032 -0.0340  0.2766
12656W        W28790   8.575   4.196   3.575  0.1446 -0.1539  0.1460
12657W        W28791   7.975   3.310  15.138 -0.0636 -0.1450 -0.0481
12658W        W28792  16.442   7.310  12.661  0.2456  0.0660 -0.4545
12659W        W28793   2.546   7.535  14.818  0.0405  0.0029 -0.0163
12660W        W28794   2.667   0.523   5.440 -0.1688 -0.1759 -0.1870
12661W        W28795  13.432   3.992  15.474 -0.1688 -0.4941 -0.0584
12662W        W28796   6.745  10.604   5.425  0.0412  0.3336  0.1685
12663W        W28797   2.333  11.955  11.373  0.1232  0.0085  0.1200
12664W        W28798   3.270  10.201   5.490 -0.0998 -0.2295 -0.2473
12665W        W28799  16.325   5.238   2.895 -0.3691 -0.2157 -0.0839
12666W        W28800   4.935  16.131  10.790  0.2398  0.0461  0.3618
12667W        W28801   1.073  15.769  12.445  0.2911  0.1147 -0.0684
12668W        W28802   3.315  12.060   2.280 -0.1909 -0.0609 -0.4194
12669W        W28803   3.348   6.107  16.232 -0.0669  0.2020  0.0704
12670W        W28804   9.029  14.446   2.655 -0.1834  0.1514  0.0682
12671W        W28805  16.862  10.224   4.166 -0.0812  0.0220 -0.2752
12672W        W28806   2.795  12.330   4.038  0.0742  0.1911  0.1138
12673W        W28807   4.137  12.472  12.928  0.0017  0.0086 -0.1203
12674W        W28808   4.076  16.366   3.825 -0.3879  0.2004  0.2060
12675W        W28809  17.600  10.751   2.364 -0.0560  0.2622  0.0976
12676W        W28810  16.166  16.196  15.818 -0.1200  0.3100 -0.0203
12677W        W28811   5.391   7.305   3.925 -0.2266 -0.1489  0.0801
12678W        W28812   2.775  11.845   2.928  0.1918  0.0094  0.1717
12679W        W28813   0.149  16.465  14.548  0.0471 -0.0660  0.2774
12680W        W28814   6.552   7.142   5.630 -0.1441 -0.2803  0.1647
12681W        W28815   4.788   4.830  13.126  0.0564  0.2127 -0.1130
12682W        W28816   9.800   5.134   2.818 -0.1520  0.2538 -0.1794
12683W        W28817  11.051  10.802   2.989  0.0722 -0.3382  0.0507
12684W        W28818   4.110  15.582  13.612  0.1652 -0.2368  0.1151
12685W        W28819   9.809  12.193   0.708 -0.1204 -0.0084  0.2839
12686W        W28820  12.981   0.115  13.151 -0.1440 -0.2854 -0.0882
12687W        W28821   1.984  16.926   2.992  0.0709 -0.2083 -0.0091
12688W        W28822  17.507  14.421   0.347 -0.1323 -0.0972  0.0121
12689W        W28823   0.022   9.625   1.101 -0.0347 -0.0266 -0.0527
12690W        W28824   2.649  11.043   3.409 -0.1050 -0.1056 -0.1021
12691W        W28825   8.650   4.251  14.039 -0.2072 -0.0209  0.0251
12692W        W28826   5.002  10.161  15.064 -0.1040 -0.2349  0.2437
12693W        W28827   1.687  11.480   2.595  0.0347 -0.1296  0.1186
12694W        W28828  13.552   0.100  10.701  0.0170 -0.1487  0.1029
12695W        W28829   6.866   2.898  11.371  0.0996 -0.2179  0.1352
12696W        W28830  11.007  15.291   2.557  0.0213  0.1246 -0.0299
12697W        W28831  11.699   6.796   4.947 -0.4082  0.2707 -0.1744
12698W        W28832  10.575   2.079  15.156  0.1491  0.0438  0.3664
12699W        W28833  12.936  17.595   1.992 -0.4145  0.1581  0.0061
12700W        W28834  16.067  14.591   0.679 -0.0581 -0.0294  0.2153
12701W        W28835   8.114   0.777   3.396 -0.3685  0.2750  0.0522
12702W        W28836  13.893  10.135   0.090 -0.0087 -0.1842  0.1602
12703W        W28837  16.443  14.747   4.051  0.0951 -0.1057 -0.1302
12704W        W28838  17.763   5.418  11.214 -0.1026 -0.0468  0.1394
12705W        W28839   2.011  14.910   2.269  0.2953 -0.1748  0.0375
12706W        W28840  16.201  10.869   4.512  0.3676 -0.2259 -0.2161
12707W        W28841   0.215   1.344   3.298 -0.2291 -0.0436  0.2922
12708W        W28842   9.572   7.564   4.565 -0.2457 -0.2303  0.0722
12709W        W28843   6.966   2.046  12.700 -0.1461 -0.1243 -0.5571
12710W        W28844  11.550  14.602   4.761  0.1105  0.0025 -0.1610
12711W        W28845  11.050   6.540  11.427 -0.1935 -0.0035  0.2956
12712W        W28846   9.797   5.504   0.176 -0.0904  0.2352 -0.0587
12713W        W28847   7.909   6.066  14.536 -0.1543 -0.0832  0.2936
12714W        W28848   8.692   6.634  14.333 -0.0129  0.1586  0.2554
12715W        W28849  12.644   0.775  16.063  0.1738  0.0039 -0.1587
12716W        W28850   1.154   9.360  15.974  0.0899  0.1505  0.0954
12717W        W28851   9.495   5.316  15.401  0.2498 -0.0071 -0.0441
12718W        W28852   8.378  16.388   3.004  0.3694  0.0109  0.0095
12719W        W28853  10.261  14.570  14.233 -0.0792 -0.0461  0.1611
12720W        W28854   0.902  15.721   4.479  0.0681 -0.0887 -0.1789
12721W        W28855   0.853   7.610  15.370 -0.1140  0.0947 -0.1667
12722W        W28856   1.966   4.320   1.281  0.1582 -0.2226 -0.4084
12723W        W28857  11.113  11.808  15.400 -0.0488  0.1183 -0.1172
12724W        W28858   1.107  12.958   3.121 -0.1753  0.1053 -0.2056
12725W        W28859  10.465   1.866  12.499 -0.0284  0.0765 -0.0800
12726W        W28860  15.823   7.916  16.176  0.1628 -0.0482  0.0210
12727W        W28861  11.617   9.244   4.622  0.1983 -0.0374 -0.0143
12728W        W28862  13.441   1.892  11.121  0.0672  0.1021  0.0082
12729W        W28863   5.772  12.880  13.370  0.1203 -0.0750  0.1772
12730W        W28864  16.093  15.519   2.967 -0.0592 -0.1884  0.3071
12731W        W28865  15.542   5.824  12.243 -0.0442 -0.2081  0.1039
12732W        W28866  13.969   8.994   0.830 -0.3030  0.2771  0.1327
12733W        W28867   7.293   8.572  15.678  0.1492 -0.1415 -0.0727
12734W        W28868  11.929   8.450  15.638  0.1671 -0.0599 -0.2591
12735W        W28869  17.316  14.074  15.644 -0.1359  0.0839  0.2202
12736W        W28870  10.715   8.328   3.194 -0.3018 -0.2939  0.3115
12737W        W28871  10.357   9.545   4.531 -0.0691 -0.0283  0.2484
12738W        W28872   0.302   4.619   5.392  0.0834  0.0898 -0.1484
12739W        W28873   5.279   4.814  12.381 -0.0445 -0.0830 -0.0222
12740W        W28874   6.387   9.610   4.489  0.2821  0.1720 -0.0473
12741W        W28875  15.778  13.781  11.974  0.0910 -0.1477  0.0062
12742W        W28876  14.503  16.149  15.722 -0.2629 -0.0590  0.1021
12743W        W28877   1.889   8.419   1.390  0.2961  0.1182  0.0771
12744W        W28878  11.556   3.209   0.235 -0.2502  0.3696  0.1953
12745W        W28879  11.611  11.809   0.252 -0.0531 -0.2171  0.2537
12746W        W28880  15.057   6.704  16.235  0.1372  0.3120 -0.0516
12747W        W28881  10.199   8.418   0.598  0.1323  0.1410 -0.0832
12748W        W28882   8.916   9.633   3.481  0.2451 -0.3727 -0.0180
12749W        W28883  16.336   2.060  15.793  0.1112 -0.0841  0.2498
12750W        W28884  12.067   7.552   2.239  0.2311 -0.2474  0.0718
12751W        W28885  18.073   5.793  12.903 -0.3055  0.1835  0.0358
12752W        W28886  13.047  15.012   4.921  0.0874  0.0485 -0.1243
12753W        W28887  17.075   2.589  15.404 -0.1462 -0.0089  0.1739
12754W        W28888   8.112   7.417  14.831  0.1872 -0.1699  0.0424
12755W        W28889  11.475   0.447  12.405  0.2256 -0.0001  0.2462
12756W        W28890   3.191  10.850   4.863  0.2486 -0.0400 -0.0404
12757W        W28891   0.812   2.671  13.090 -0.2452  0.0445 -0.0658
12758W        W28892   4.157  16.513   5.817 -0.0312 -0.0832  0.0373
12759W        W28893   2.568   2.354   1.604 -0.2326 -0.0456  0.0419
12760W        W28894  11.899  10.629  15.836 -0.2657 -0.2486  0.1021
12761W        W28895   0.069   3.490  15.301  0.0010 -0.1754  0.1468
12762W        W28896  14.604   1.411   4.256 -0.0545  0.1166  0.2630
12763W        W28897  12.356  12.498  14.621  0.1927  0.0665 -0.3201
12764W        W28898  14.307   6.605  14.265 -0.2652 -0.2280  0.0377
12765W        W28899  10.503   9.439   1.862  0.0193  0.0694  0.1877
12766W        W28900   1.966   0.276  12.073  0.0638  0.2740 -0.2742
12767W        W28901  15.164   5.367  14.265 -0.0475 -0.1254 -0.0722
12768W        W28902   5.363   3.618   3.989 -0.0412 -0.0032  0.2842
12769W        W28903   6.327   4.935   5.634  0.0591 -0.1362 -0.1554
12770W        W28904  17.968   5.769  15.110  0.2807  0.1158  0.0113
12771W        W28905   1.103   9.483   5.054 -0.3486  0.0024  0.3286
12772W        W28906   9.357  14.412  13.775 -0.0413 -0.2696  0.1376
12773W        W28907  11.503   9.057   4.064 -0.1039  0.0509  0.1600
12774W        W28908   2.897   2.515   3.483 -0.2557 -0.1734  0.0204
12775W        W28909   7.496   7.813   2.007  0.0535 -0.0422 -0.0547
12776W        W28910   1.446   0.292  12.463  0.0004 -0.3409 -0.0254
12777W        W28911   3.075   6.652  10.529 -0.0395  0.1775  0.0459
12778W        W28912  16.179  12.010   2.903  0.0396  0.0439 -0.1276
12779W        W28913   2.970   9.873   4.651  0.0012 -0.1796 -0.3943
12780W        W28914  11.302  10.733  14.725  0.0384  0.1707  0.2143
12781W        W28915  15.328   4.525   4.191 -0.0819  0.2499  0.1771
12782W        W28916   0.692   6.326   1.871  0.1132  0.0717  0.0465
12783W        W28917  16.781   5.731   4.475  0.2402 -0.0011  0.1746
12784W        W28918  14.683   1.016   1.710  0.2965  0.1054 -0.2049
12785W        W28919   7.776   3.329  12.149  0.1690 -0.1793  0.1674
12786W        W28920  10.997   1.065   0.948  0.0754 -0.1220  0.1855
12787W        W28921   4.283   1.012  14.983 -0.3316  0.3062 -0.0999
12788W        W28922   2.718  16.194  11.472 -0.0570 -0.0963 -0.0031
12789W        W28923   4.558   0.989   1.760 -0.0870 -0.0970  0.1840
12790W        W28924   4.508   7.848   1.578 -0.0744 -0.0762 -0.0683
12791W        W28925  15.069   0.957   3.478  0.0702  0.0316 -0.0629
12792W        W28926   6.733  16.112   2.202  0.0969 -0.1760 -0.1005
12793W        W28927   2.160  11.675   0.129  0.0124 -0.0096  0.0616
12794W        W28928   9.897  16.384  11.297  0.0654 -0.0211 -0.0320
12795W        W28929   4.718   2.432  15.449 -0.1520 -0.2404 -0.1002
12796W        W28930   2.134  15.468  14.196 -0.1601  0.0960  0.2139
12797W        W28931  15.309  13.246  12.661  0.0040 -0.1246 -0.2748
12798W        W28932   9.598  16.985   4.647 -0.0944  0.0700 -0.1083
12799W        W28933  10.955   6.776  12.915  0.1314  0.0823  0.1523
12800W        W28934   9.665   6.627  15.940 -0.2737  0.1210  0.1407
12801W        W28935   4.693   4.610  14.549  0.0048 -0.2207 -0.1669
12802W        W28936  10.569   2.698  14.331  0.0233 -0.2157  0.0229
12803W        W28937   0.730   9.234  16.238 -0.0599 -0.1608 -0.2448
12804W        W28938  15.549   4.069   2.032  0.2547 -0.1980  0.1396
12805W        W28939  15.014   3.281  11.647 -0.0862 -0.1803 -0.2071
12806W        W28940  11.806  16.794   2.184 -0.0335 -0.1858 -0.3999
12807W        W28941  16.278  12.840   4.941  0.1668  0.0643  0.1247
12808W        W28942  15.105  14.530   4.301 -0.1608 -0.2236 -0.2421
12809W        W28943  16.987  10.213  14.156 -0.2647 -0.1883 -0.0160
12810W        W28944   1.623   4.683   0.185 -0.1439 -0.1475 -0.2070
12811W        W28945   6.573  13.210   5.795 -0.1830 -0.0833  0.1557
12812W        W28946  17.042   5.335   0.933  0.0951 -0.0523  0.1296
12813W        W28947   0.395  10.206  11.236 -0.0641 -0.0225  0.2326
12814W        W28948  16.533  17.712   4.001 -0.1444 -0.0720  0.0501
12815W        W28949   3.838   2.436  11.113 -0.1864 -0.0604 -0.4354
12816W        W28950   0.337   1.611   1.930  0.0157 -0.0930  0.2192
12817W        W28951   9.152  17.163   1.756  0.2890 -0.0895  0.0340
12818W        W28952  12.346   0.560  16.399 -0.0840  0.0957 -0.1106
12819W        W28953   4.818   5.644   2.287  0.0636  0.2857  0.0421
12820W        W28954   0.837  10.191  13.618 -0.2011 -0.2002  0.3127
12821W        W28955  10.139   0.255   3.867  0.1401  0.0023 -0.2738
12822W        W28956   3.114  17.517   0.166 -0.3472 -0.3146 -0.2719
12823W        W28957  15.145  12.483   3.808  0.1781  0.2917  0.0109
12824W        W28958  12.672   4.803   3.145 -0.1377 -0.4077 -0.0310
12825W        W28959   7.473   0.596   1.204  0.0455 -0.0168 -0.1189
12826W        W28960   4.802  14.846   3.243 -0.0428  0.0442 -0.1826
12827W        W28961  12.997  12.383   2.001 -0.1225 -0.1548 -0.0559
12828W        W28962  18.086  12.751  15.042  0.0742 -0.0936  0.0287
12829W        W28963   0.652   8.287   0.901 -0.0643  0.1224  0.1500
12830W        W28964   2.302  16.546   3.975 -0.3096  0.2292 -0.0379
12831W        W28965   5.792   7.875   5.810  0.1983  0.2203  0.2809
12832W        W28966  15.327   0.090   0.225 -0.0996  0.0271  0.0558
12833W        W28967   1.802   5.060  16.106 -0.2025  0.0939 -0.2347
12834W        W28968  13.200  17.241   4.112  0.0589 -0.0700 -0.1354
12835W        W28969  14.874   9.724   3.399  0.0776  0.1219  0.1733
12836W        W28970   4.749  17.431   1.980  0.0215  0.1042  0.2415
12837W        W28971  15.530  11.051  14.104  0.1267  0.0662  0.1460
12838W        W28972  12.034   9.258  11.563  0.1973 -0.3217  0.0786
12839W        W28973   1.650   6.032  14.359 -0.3599 -0.2800  0.3407
12840W        W28974   4.474   1.185  11.784  0.0089 -0.0032  0.0932
12841W        W28975   6.457   0.250  15.165 -0.0702  0.1893  0.3716
12842W        W28976  14.567   2.856   2.960  0.1833  0.1748  0.1840
12843W        W28977   0.040   9.310   4.270  0.2636 -0.2012  0.1331
12844W        W28978   2.854   3.592   3.330  0.1454 -0.1106 -0.1029
12845W        W28979   1.951   0.151  13.979 -0.2071 -0.0969  0.1145
12846W        W28980   9.852   4.787  12.787  0.0259 -0.0008 -0.1175
12847W        W28981   4.348   6.027   3.275  0.0857  0.1684  0.1594
12848W        W28982   7.503  11.657   2.463  0.1793  0.1745  0.0041
12849W        W28983   7.559   4.126   4.608 -0.5842 -0.2035 -0.1462
12850W        W28984   5.404   0.865  10.811  0.3270 -0.1527  0.5378
12851W        W28985   4.387  16.330  14.718 -0.2598 -0.0358 -0.1787
12852W        W28986  14.899  13.270   4.795  0.0370 -0.0452 -0.1085
12853W        W28987  11.030   0.547   4.829  0.1865 -0.0443  0.0930
12854W        W28988  14.549  12.025   4.568 -0.0400 -0.2329  0.0501
12855W        W28989  17.300   5.687   3.605  0.0724  0.1429 -0.1261
12856W        W28990  17.768   2.519  12.995  0.1826 -0.0055 -0.0301
12857W        W28991  15.723   9.157  15.502 -0.1040 -0.1743 -0.1060
12858W        W28992   6.644  16.390   1.715  0.2682  0.2332 -0.0069
12859W        W28993   7.904   1.929  14.035 -0.2126 -0.0381 -0.0851
12860W        W28994  15.063  14.396   3.219  0.0362 -0.1695 -0.4936
12861W        W28995  11.319  10.540   3.356  0.0563  0.1184  0.3824
12862W        W28996  14.252  10.297   4.620 -0.1808  0.2452  0.1987
12863W        W28997   6.998   6.353   3.808 -0.1193  0.2229 -0.2427
12864W        W28998   7.147  12.968   2.905 -0.0178  0.0135  0.0709
12865W        W28999   6.951   6.147  11.426  0.0145  0.2994 -0.1412
12866W        W29000  10.716   7.273   5.294  0.0193 -0.1019 -0.1091
12867W        W29001  11.632   3.656  13.303 -0.4909 -0.1239  0.0871
12868W        W29002   1.382   4.162  13.852 -0.0826  0.0154 -0.3067
12869W        W29003   6.991  16.824   3.793  0.0832  0.0623 -0.0629
12870W        W29004   6.784  12.487  14.907 -0.0780 -0.1505 -0.2428
12871W        W29005  13.960   3.782   1.330 -0.1525 -0.0749  0.1292
12872W        W29006   4.002   6.090   2.420  0.1692  0.4845  0.0236
12873W        W29007   8.131  16.671  12.302 -0.1136  0.1847 -0.0395
12874W        W29008  17.610  15.030   3.487 -0.0884  0.0985  0.0025
12875W        W29009   6.661   5.378  15.590  0.0864  0.2239  0.0635
12876W        W29010  16.653  12.250   3.908 -0.4582  0.2077 -0.1333
12877W        W29011   4.449   6.115  15.967  0.3605  0.1968 -0.0359
12878W        W29012   3.952   4.569   2.363 -0.0834 -0.3366 -0.3134
12879W        W29013   6.739  10.140  16.159  0.3387  0.1181  0.0870
12880W        W29014   8.377   9.061   1.659 -0.2862  0.1027  0.0110
12881W        W29015  17.591  15.266   0.079  0.0642  0.2649  0.0234
12882W        W29016  12.288   7.040   1.807 -0.1908  0.0173  0.1615
12883W        W29017   6.390  11.514  15.740  0.0509  0.1520 -0.1021
12884W        W29018  15.072  14.354   3.775  0.1845  0.0380  0.0156
12885W        W29019  16.704   9.491  14.955  0.2651 -0.1548 -0.0644
12886W        W29020  16.785   6.732   2.964  0.1251 -0.2748 -0.0190
12887W        W29021  16.232  17.101   1.634 -0.1481 -0.0164 -0.3890
12888W        W29022  10.711   0.443  13.049  0.0079  0.0353  0.0005
12889W        W29023   4.496   0.847   6.032 -0.0158  0.1199 -0.2735
12890W        W29024  12.466   8.496  15.599  0.2362 -0.0322 -0.0081
12891W        W29025  10.191  14.434   3.281 -0.0253  0.1074 -0.2455
12892W        W29026   1.668   9.203   2.089 -0.2209  0.2112 -0.4346
12893W        W29027   3.350  13.415  14.857 -0.2238 -0.0980 -0.0528
12894W        W29028  10.397  12.544  15.384 -0.0129  0.4505 -0.1767
12895W        W29029   3.417  17.791   6.224  0.0968 -0.2649 -0.0011
12896W        W29030  13.782   4.942  10.300 -0.0332  0.0102  0.2877
12897W        W29031   7.245  17.713   2.962 -0.0734  0.1948 -0.0370
12898W        W29032  12.329  12.872  15.585 -0.0777 -0.1446 -0.0634
12899W        W29033  12.776  16.367   1.291  0.1002 -0.0317 -0.0556
12900W        W29034  12.059  13.798   4.533  0.1370  0.0598  0.0873
12901W        W29035  17.473  17.771   4.078 -0.2336 -0.2031 -0.3513
12902W        W29036  16.902   9.193  13.094  0.2276  0.2414 -0.1367
12903W        W29037   0.747  16.159  13.188  0.0002  0.0613 -0.0584
12904W        W29038  16.267   5.131  13.271 -0.2241 -0.1262  0.0232
12905W        W29039   2.727  13.261   2.818 -0.1794  0.2603  0.1565
12906W        W29040   9.139   0.372  12.364 -0.0179  0.1131  0.1790
12907W        W29041  13.643   7.630   4.406  0.2843 -0.0013 -0.2017
12908W        W29042   9.425   8.488   2.713 -0.1928 -0.0491  0.0879
12909W        W29043   8.057  16.060   1.536 -0.1488  0.2219  0.0285
12910W        W29044   2.474   9.293  11.614 -0.2959  0.1007  0.0709
12911W        W29045   4.485   1.735   3.779 -0.2190  0.1489  0.0734
12912W        W29046   2.461   5.436   4.206  0.1579  0.0640  0.1029
12913W        W29047   9.296   6.256  13.157  0.2228 -0.0432  0.0157
12914W        W29048  12.666   3.409  11.630  0.0980  0.1817  0.2726
12915W        W29049  10.070  16.201  12.222 -0.3109 -0.1197 -0.2598
12916W        W29050  14.415  10.406  15.516  0.1519  0.1400  0.1055
12917W        W29051  10.710   2.030   1.023  0.0200 -0.0293 -0.0973
12918W        W29052   6.056   9.630  13.017 -0.1103 -0.4057 -0.1688
12919W        W29053   6.625  11.483   1.787 -0.0915 -0.0153 -0.0645
12920W        W29054   3.310   0.878  15.438 -0.2295  0.0334 -0.1255
12921W        W29055   9.584   9.676  13.344 -0.1717  0.3332  0.4560
12922W        W29056   2.581   0.680  13.242 -0.4216 -0.2799  0.3249
12923W        W29057   7.470   1.932  12.014 -0.1297 -0.1292 -0.0671
12924W        W29058   6.802   9.746   5.610 -0.0133  0.3726  0.1416
12925W        W29059  17.372   1.665   3.558  0.1965 -0.1321  0.2521
12926W        W29060  14.420   4.693  11.588  0.0306  0.1615 -0.1149
12927W        W29061   4.417   4.242  14.714 -0.3918 -0.1817 -0.0911
12928W        W29062   7.868   2.961   4.814  0.1577 -0.2955 -0.1235
12929W        W29063   7.243   7.693  13.414  0.0428 -0.0766 -0.0865
12930W        W29064   2.745  14.424   4.495  0.1723  0.0723  0.2097
12931W        W29065   4.066   9.950   4.649 -0.1560  0.2680  0.2100
12932W        W29066  16.984   4.032  15.480 -0.0184 -0.0238 -0.1639
12933W        W29067  15.621   7.283  13.810 -0.0463  0.1369 -0.2776
12934W        W29068   0.371   5.445   1.890  0.2657 -0.1473  0.0007
12935W        W29069   4.392  10.207  10.267 -0.0009 -0.0611 -0.1779
12936W        W29070  17.984   3.687  14.634 -0.1271 -0.0679 -0.0346
12937W        W29071   6.083   0.262   3.915 -0.1526  0.1788 -0.1233
12938W        W29072   5.239   3.258  13.126  0.2195  0.0590  0.0844
12939W        W29073   2.736  16.488   2.170 -0.3059  0.0566  0.0420
12940W        W29074   2.783  15.046  14.694 -0.0791  0.1351 -0.2312
12941W        W29075   2.469   4.855  14.586 -0.0174 -0.0054  0.0780
12942W        W29076  16.730   9.102  13.628 -0.4495  0.1155  0.1389
12943W        W29077   8.677  12.807  14.700  0.0365  0.0640  0.0168
12944W        W29078  17.804   9.863  12.870 -0.0208  0.1699 -0.1275
12945W        W29079   8.352  16.247  15.426  0.0557 -0.2255  0.2263
12946W        W29080  17.896  12.595  12.753 -0.0294 -0.1677 -0.1398
12947W        W29081   1.179  13.734   5.382 -0.0399 -0.0449 -0.1891
12948W        W29082  17.381  10.222   5.069  0.0001  0.0538 -0.0195
12949W        W29083  15.178  15.872   5.462  0.0829  0.0049  0.0437
12950W        W29084  13.311  14.420  15.471 -0.1330 -0.3597  0.0351
12951W        W29085   4.671   6.284   4.695  0.0470 -0.1755 -0.1347
12952W        W29086   4.638   2.989   2.947  0.1920 -0.0666 -0.0732
12953W        W29087   3.760  17.934   1.399 -0.0160 -0.1578  0.1252
12954W        W29088  16.107   8.005   3.152  0.5181  0.0450  0.0604
12955W        W29089   0.631  14.760  10.819  0.0242 -0.0962 -0.2330
12956W        W29090  14.640   6.538  11.778  0.2495 -0.1591 -0.0335
12957W        W29091   7.404   3.781  15.492 -0.1081 -0.0586 -0.0623
12958W        W29092  15.898  14.010   4.004 -0.1111 -0.3559 -0.2745
12959W        W29093  15.524   3.192  13.588  0.1576  0.0245  0.0633
12960W        W29094  16.686   7.182   2.755  0.0730 -0.1980 -0.1101
12961W        W29095   9.345   5.821  15.741  0.0900  0.0266 -0.0647
12962W        W29096  10.916   0.375   1.490  0.0790  0.0824  0.1084
12963W        W29097  14.082   0.228  15.500 -0.0380  0.1671 -0.2419
12964W        W29098  15.387   0.346  12.937 -0.0466 -0.2682 -0.3797
12965W        W29099   7.894  17.056   2.518 -0.0119 -0.1340  0.2368
12966W        W29100   0.958  13.349  12.209 -0.0064  0.2009 -0.2269
12967W        W29101   0.552   2.252  12.071 -0.3637 -0.2346 -0.0926
12968W        W29102  15.667  11.178   4.197  0.1496  0.0439  0.1451
12969W        W29103   4.910   9.423   5.834  0.1250 -0.1628  0.0472
12970W        W29104   6.986   9.831   4.396 -0.1150 -0.0596  0.1143
12971W        W29105   9.245   6.237  13.998  0.0202  0.0907  0.3296
12972W        W29106  14.933  14.130  12.503  0.1786  0.2205  0.1223
12973W        W29107  13.823  11.670  14.929 -0.0299  0.1410 -0.2540
12974W        W29108  17.459   1.694   2.261  0.0343  0.2606  0.0359
12975W        W29109   2.971   7.943  12.933  0.1177  0.0193  0.1328
12976W        W29110   1.119   9.829  15.615  0.1259 -0.0610 -0.4249
12977W        W29111   2.610   9.385  14.953 -0.1331 -0.1560  0.1372
12978W        W29112  16.164   3.729  15.279 -0.0911  0.0719  0.0071
12979W        W29113  15.435  17.153   2.375  0.1946 -0.1866 -0.2039
12980W        W29114   2.058  13.482  14.142 -0.1369  0.0308 -0.1059
12981W        W29115   7.698   0.383  15.042 -0.0618 -0.0111 -0.0650
12982W        W29116   8.533  10.451  16.183  0.1627 -0.0655 -0.3229
12983W        W29117  15.026  17.078  14.099 -0.1796 -0.1138  0.2205
12984W        W29118   2.324   8.103   1.600 -0.1921 -0.1387 -0.0142
12985W        W29119  10.677  10.044  15.543 -0.1224  0.2786 -0.3213
12986W        W29120  11.686  11.715   0.755 -0.1197  0.1501  0.1248
12987W        W29121  11.059  13.116   3.846 -0.0956 -0.1571  0.0633
12988W        W29122   8.924  15.814  14.094  0.2055  0.0806  0.3408
12989W        W29123   4.642   9.273  14.562 -0.1094 -0.2108 -0.0564
12990W        W29124  10.856   6.909   2.288  0.0489  0.1005 -0.1364
12991W        W29125   0.619  16.482  12.264  0.3985 -0.0774 -0.0771
12992W        W29126  12.801   1.997  12.295  0.2709 -0.1176  0.0845
12993W        W29127   4.122  14.723  11.994  0.0194  0.2013  0.2568
12994W        W29128   2.586   2.187   5.121 -0.0388  0.2199  0.0923
12995W        W29129   3.621  15.096   1.391  0.4960 -0.1841  0.0426
12996W        W29130   3.392   1.015  14.888 -0.0449 -0.1473  0.0653
12997W        W29131  10.237  16.396   2.746 -0.0384  0.1295  0.0614
12998W        W29132   4.249  14.231   5.219 -0.0552 -0.0545 -0.1336
12999W        W29133   5.726   4.255   9.901 -0.1340 -0.0975 -0.0127
13000W        W29134  12.218   9.952  11.602  0.0575  0.1212  0.2510
13001W        W29135   3.747  13.084   3.108 -0.0042  0.0469 -0.1796
13002W        W29136   4.035  14.862  15.463  0.0306 -0.0045  0.1904
13003W        W29137   6.780   9.422   4.172  0.0667 -0.0577 -0.1687
13004W        W29138  17.203   6.567  13.792  0.0642  0.0063  0.0998
13005W        W29139   8.274   6.403  14.317  0.2131  0.0506 -0.2015
13006W        W29140   3.709   0.955   2.919 -0.2297 -0.3357  0.0215
13007W        W29141  14.556  13.347  13.967  0.2916  0.3519 -0.0188
13008W        W29142   0.586   8.778   1.134  0.0197  0.1582 -0.1688
13009W        W29143  14.304  16.746   3.133 -0.1242  0.2055  0.3014
13010W        W29144   2.779   6.569   2.901 -0.1914  0.0421 -0.2786
13011W        W29145  18.061  15.113  14.304  0.1821 -0.1373  0.2999
13012W        W29146   6.784   5.903   0.079 -0.1262  0.2353  0.0920
13013W        W29147   1.144  13.748   3.534 -0.0384 -0.0924 -0.1016
13014W        W29148  10.831  12.512  15.868  0.0382  0.2142 -0.0406
13015W        W29149  11.733   2.764  15.356  0.1279 -0.1485 -0.1313
13016W        W29150   5.394   7.953  12.648  0.1856  0.0634 -0.1752
13017W        W29151   7.342   7.504   1.149  0.0423  0.2839  0.4322
13018W        W29152   6.356   1.979   0.544  0.1906 -0.0575  0.3011
13019W        W29153  17.969  18.067   1.983  0.4293  0.2550 -0.1793
13020W        W29154   7.395  14.493  15.830  0.0075 -0.0510 -0.0037
13021W        W29155  12.424  15.609  11.566  0.1630  0.0230  0.0364
13022W        W29156  14.273  17.775  11.898 -0.0502 -0.4920 -0.1137
13023W        W29157  15.182   2.008  13.932  0.5597 -0.0065 -0.0376
13024W        W29158   6.803   4.054  12.905 -0.3093  0.0601  0.1402
13025W        W29159   6.190  13.649  13.813  0.1131  0.2207  0.1174
13026W        W29160   3.372  15.128   1.898  0.0599 -0.1231  0.1964
13027W        W29161  14.794  13.570   2.606  0.1309 -0.0995  0.0776
13028W        W29162   0.349   4.983   0.835  0.0138 -0.1616  0.0432
13029W        W29163  13.309  14.025  12.524  0.1287  0.2309  0.2289
13030W        W29164   1.797   8.279   0.860 -0.1832  0.0324  0.1330
13031W        W29165   2.782   2.725   2.302 -0.0221  0.1139  0.0441
13032W        W29166   9.233  13.819   2.743  0.0111  0.0679  0.0655
13033W        W29167  16.394   2.507   3.056 -0.2345  0.0873 -0.0640
13034W        W29168  10.010   9.567   4.193 -0.0445 -0.0964  0.1580
13035W        W29169   0.322   7.203   0.330 -0.1293  0.2753  0.0844
13036W        W29170  12.468   6.343  16.278  0.1530  0.0848 -0.0501
13037W        W29171  14.725   7.851  15.272 -0.0535  0.0866 -0.2342
13038W        W29172   9.676   2.541  15.045 -0.0153 -0.2663 -0.2488
13039W        W29173  12.627  17.412  13.245  0.1069  0.1953 -0.1402
13040W        W29174   2.951  14.584   2.416 -0.3090  0.2044  0.6058
13041W        W29175   5.578  14.262  16.076 -0.2054 -0.0713 -0.2464
13042W        W29176  15.738   5.205   1.827  0.1321  0.2229  0.1799
13043W        W29177  15.659   1.414   0.864 -0.0733  0.1133  0.3180
13044W        W29178   0.111  11.254   0.635 -0.1363 -0.2088 -0.0791
13045W        W29179   1.807   9.181   3.580  0.0321  0.1880 -0.1806
13046W        W29180   9.786   2.786   2.418 -0.3362  0.1216 -0.1235
13047W        W29181   7.441   3.455  13.051 -0.3227  0.2536 -0.1062
13048W        W29182  11.790   1.277   0.171  0.3447 -0.1272 -0.0349
13049W        W29183  16.544   7.188   4.418  0.4083  0.2693  0.0240
13050W        W29184  14.855   6.479  12.609  0.2433 -0.1927  0.0664
13051W        W29185   2.738  16.259   4.609  0.0086  0.1425  0.0731
13052W        W29186  17.738  10.293   0.816  0.0514 -0.3153 -0.1042
13053W        W29187   1.192  12.213   1.764 -0.1740  0.0454 -0.0809
13054W        W29188   7.775  15.017  11.212  0.1171 -0.3482  0.1497
13055W        W29189   0.141  14.245  13.673 -0.0197 -0.1130  0.0335
13056W        W29190   8.148  14.773   2.180  0.1498  0.1505  0.2420
13057W        W29191  15.588   9.214   3.506  0.2141  0.2724 -0.0851
13058W        W29192  13.554   7.593  14.746  0.2806  0.0888 -0.0652
13059W        W29193   1.273   5.697   2.335  0.1408 -0.0399  0.0824
13060W        W29194   9.838   3.262  10.645 -0.1390 -0.1055 -0.0043
13061W        W29195  12.907   0.671  13.419  0.1115  0.2211 -0.2741
13062W        W29196   2.045   6.605   4.890  0.2310 -0.0218  0.3246
13063W        W29197  10.839   0.596   3.017  0.3096  0.1060  0.1448
13064W        W29198  12.767   8.485   5.493  0.2283 -0.0088 -0.2060
13065W        W29199  16.971   7.727  14.046  0.0417 -0.0438 -0.4269
13066W        W29200  14.901  15.428   5.641  0.1600  0.2540 -0.3417
13067W        W29201   3.193   6.511   0.224 -0.0675 -0.0565  0.0038
13068W        W29202   1.413   3.299   1.508 -0.0091 -0.0994 -0.0095
13069W        W29203   8.424  14.365  15.512 -0.0664  0.1784  0.2156
13070W        W29204   0.884   2.776  11.740  0.2921 -0.0026 -0.1411
13071W        W29205  16.847  11.145  15.396  0.0672  0.2477  0.2736
13072W        W29206  18.051  14.189  12.688  0.0475 -0.0598 -0.2518
13073W        W29207  17.510   5.854  11.367  0.1267  0.0119 -0.0169
13074W        W29208  16.427   7.797   3.936 -0.0858  0.0266  0.1753
13075W        W29209  12.820   6.205   1.175 -0.0451 -0.0151 -0.1962
13076W        W29210   4.480  11.765  14.304  0.2026 -0.1445 -0.0595
13077W        W29211   5.698   7.022   5.397  0.3091 -0.2099  0.0003
13078W        W29212  15.239  13.089   1.876  0.2456 -0.0081  0.2556
13079W        W29213   4.395   4.739  15.936 -0.0152  0.0549 -0.1803
13080W        W29214  13.616  13.952   1.456  0.1728  0.0443  0.1656
13081W        W29215   2.510   8.048   4.497 -0.2501  0.0687 -0.0713
13082W        W29216   1.801   7.979  11.930  0.0465 -0.0043 -0.1340
13083W        W29217  14.716   7.388   4.393 -0.4860 -0.0208 -0.1012
13084W        W29218  12.110   4.938   0.045  0.1684 -0.1238 -0.2109
13085W        W29219   2.460   3.057  13.770  0.1305  0.3306 -0.0351
13086W        W29220   4.545  16.668  15.541  0.0356 -0.1029 -0.0495
13087W        W29221  14.759  17.909   1.366 -0.2428 -0.1071 -0.2993
13088W        W29222  15.151  10.264  11.926 -0.1115 -0.0623 -0.2380
13089W        W29223  17.790   7.424  12.737 -0.0960 -0.5176  0.0756
13090W        W29224   1.358   9.826   0.990 -0.1378  0.0941 -0.0948
13091W        W29225   9.197   3.285  12.342  0.3573 -0.1407 -0.0554
13092W        W29226  16.944   1.432   0.292  0.2242 -0.0022 -0.2523
13093W        W29227  11.794  12.180   0.773  0.0093  0.0592 -0.0031
13094W        W29228  15.261   0.948   1.034 -0.1832  0.1457  0.2670
13095W        W29229  13.864   5.873  12.036  0.0330 -0.0189  0.0059
13096W        W29230   6.739   0.175   5.085  0.2820 -0.1375 -0.1507
13097W        W29231  10.456  13.644  13.751  0.0618  0.0313  0.1381
13098W        W29232   4.435  17.267  14.768 -0.1226 -0.0033 -0.0508
13099W        W29233   4.110   1.365   4.907  0.1929  0.1397 -0.1530
13100W        W29234   7.629  12.101  12.862  0.3067 -0.1678 -0.0861
13101W        W29235   4.863   8.541  13.738 -0.2153 -0.2552  0.0074
13102W        W29236   3.199  13.129  13.715  0.2083 -0.0113  0.2686
13103W        W29237   1.434   1.483  12.758 -0.0641  0.0856  0.0088
13104W        W29238  16.902  15.368   0.614 -0.1068 -0.1567  0.2565
13105W        W29239  11.764   0.505   5.569  0.0974 -0.0358  0.2257
13106W        W29240   2.474  15.005   0.519 -0.1236 -0.1305  0.0306
13107W        W29241  10.000   0.473  14.753 -0.2846 -0.0172  0.0664
13108W        W29242   3.277  15.693  11.740 -0.1016  0.0067  0.1240
13109W        W29243  10.984   5.417   3.984  0.1167  0.1399 -0.1495
13110W        W29244  10.224   6.345   1.278  0.1174  0.1632  0.1470
13111W        W29245   8.130   0.266  15.321 -0.1213  0.2033 -0.1127
13112W        W29246  16.294  16.630  11.988  0.1600  0.0927 -0.1150
13113W        W29247  13.097   2.268   6.034  0.1308 -0.1308  0.3040
13114W        W29248   3.483   8.365  12.757  0.1014  0.0383 -0.3241
13115W        W29249  18.071  15.721   0.070  0.2321 -0.1409  0.1264
13116W        W29250   0.648   1.595   5.911  0.2237 -0.2208 -0.0734
13117W        W29251   3.081   6.345  13.438 -0.0448  0.1973  0.0786
13118W        W29252  10.542   4.270  14.789 -0.0125 -0.2604  0.0076
13119W        W29253   4.396   0.062  14.793 -0.1295 -0.1715  0.0662
13120W        W29254  11.377  16.055  12.462 -0.2234 -0.1430 -0.1387
13121W        W29255  12.504   2.021   3.009  0.2076 -0.3895 -0.1247
13122W        W29256  11.071  14.568   1.342 -0.1614  0.0553  0.1272
13123W        W29257   7.315  15.289  15.158  0.1239 -0.1416 -0.0730
13124W        W29258  17.815  17.564  15.447 -0.0546 -0.1920 -0.0499
13125W        W29259   0.210   1.281   3.782  0.0966  0.1355  0.2525
13126W        W29260   0.875   2.289  11.645 -0.1307  0.0203 -0.0552
13127W        W29261  16.770   7.257  11.647  0.0610 -0.4037  0.3855
13128W        W29262  11.364  11.865  13.574 -0.1616  0.0347 -0.0578
13129W        W29263  11.915   1.670   0.474 -0.3072 -0.2707  0.1418
13130W        W29264   1.741  16.016   4.381  0.1880 -0.0143  0.0862
13131W        W29265   9.560  17.682  11.720  0.2938 -0.3805  0.6270
13132W        W29266   8.725   4.179  12.685  0.3125 -0.2286  0.1050
13133W        W29267   9.680   4.838   1.457 -0.2528 -0.0745  0.0060
13134W        W29268   3.071  17.583   3.002  0.3301 -0.0602 -0.0161
13135W        W29269   2.221   3.562  13.595 -0.1322 -0.2581 -0.0438
13136W        W29270  14.067  13.107  15.831  0.3650  0.5996 -0.1212
13137W        W29271   8.450   2.712  14.591  0.0710  0.0902  0.0786
13138W        W29272  10.062   1.391   0.701  0.3183 -0.0593  0.3612
13139W        W29273   8.185   4.555   5.333  0.0599 -0.3149 -0.1539
13140W        W29274   5.204  16.884  15.751 -0.2306  0.0482 -0.0056
13141W        W29275  17.588  14.580   5.667 -0.1715  0.0709 -0.0589
13142W        W29276   3.402   2.721   4.971 -0.1285 -0.1139 -0.2654
13143W        W29277   3.675   2.657  12.925  0.1178  0.1469 -0.0616
13144W        W29278  14.182   9.831  13.557 -0.0829  0.2430 -0.4142
13145W        W29279   6.137  17.315   0.991  0.0051  0.2836 -0.3170
13146W        W29280  17.407  16.003  12.694  0.0190  0.2490  0.1434
13147W        W29281  16.129  13.971  11.555 -0.0487  0.3903  0.2698
13148W        W29282  14.989   8.056   0.648  0.0432  0.2857  0.0800
13149W        W29283  15.638   6.658  14.632  0.1175 -0.1196  0.1347
13150W        W29284   5.379  16.724  13.246 -0.0331 -0.1766 -0.1244
13151W        W29285   9.095  13.161   2.274  0.4514 -0.0908  0.1838
13152W        W29286   5.835   2.127   5.493  0.2257 -0.0054  0.3113
13153W        W29287  11.782   1.399   2.562  0.1222 -0.0558 -0.3631
13154W        W29288  13.224  10.468  14.474 -0.1747  0.0316  0.0484
13155W        W29289   0.821   4.845  13.373  0.0787  0.2959  0.1711
13156W        W29290   7.457  12.627   2.742 -0.0940  0.0057  0.1768
13157W        W29291   8.234   2.482  11.171 -0.1953 -0.0789 -0.3677
13158W        W29292   5.252   6.774  12.322  0.1254  0.0812 -0.0482
13159W        W29293   1.433   1.027  15.964 -0.0892 -0.0852 -0.2351
13160W        W29294  11.481   5.679   0.433  0.2416 -0.1797  0.2781
13161W        W29295  12.281  11.599  15.107  0.1264  0.1173 -0.2134
13162W        W29296   4.525  16.015   4.534  0.2598 -0.0077 -0.0363
13163W        W29297  16.330  10.500   2.256  0.1072 -0.0812  0.1373
13164W        W29298   6.578  15.849  10.999 -0.0244 -0.1665  0.1707
13165W        W29299  15.451   5.989   3.963  0.0161  0.0465  0.1072
13166W        W29300  10.970   1.265  15.312 -0.3675 -0.0872  0.4459
13167W        W29301  16.521   6.169   4.605 -0.0811 -0.2016 -0.0088
13168W        W29302   8.677   9.565   2.783 -0.0422  0.2549  0.1179
13169W        W29303  13.504  16.377  12.700  0.0263  0.0027  0.1366
13170W        W29304   7.198  16.542   4.270 -0.0372  0.1349 -0.0889
13171W        W29305  11.760   9.712  13.871 -0.0976 -0.1728 -0.2720
13172W        W29306   4.938  10.786  13.590 -0.0481  0.0117  0.2411
13173W        W29307  14.201  14.986   4.444  0.2648  0.1387  0.3844
13174W        W29308   1.692  17.404   1.017 -0.0097  0.1022 -0.2316
13175W        W29309  16.992   3.195   4.328  0.0202  0.2278  0.1481
13176W        W29310  15.520   5.075  15.659 -0.2583 -0.3225  0.0890
13177W        W29311   2.396  14.924  11.863  0.0926  0.1702  0.1086
13178W        W29312  13.538   2.574  10.071 -0.2417  0.0746  0.0464
13179W        W29313  14.737  12.752  15.334 -0.0915  0.2558 -0.2198
13180W        W29314   1.087   8.490   1.090 -0.2282 -0.0828  0.0273
13181W        W29315   1.608  14.028   5.177 -0.0713 -0.1911 -0.0773
13182W        W29316  16.938  13.988  11.971 -0.0622  0.1594  0.2817
13183W        W29317  17.711  13.511   0.271 -0.1880  0.0186 -0.0391
13184W        W29318  17.277  10.225   2.545  0.2022  0.1581 -0.0208
13185W        W29319   6.445  15.251  11.586  0.1915 -0.0126 -0.3544
13186W        W29320   8.167  13.882  11.211 -0.0084 -0.1461 -0.1592
13187W        W29321   5.273   3.858   2.159 -0.0685 -0.4438 -0.2224
13188W        W29322  16.383  17.321  12.871 -0.0036 -0.2081  0.2603
13189W        W29323   8.041   5.188  10.875 -0.0079  0.1287  0.0947
13190W        W29324   1.391   7.240   2.245 -0.3265  0.1494 -0.1712
13191W        W29325   7.639   8.864  14.918 -0.1536  0.1659 -0.0287
13192W        W29326   6.610   6.325  13.249  0.2021 -0.1229  0.1014
13193W        W29327  16.930   7.281   0.293 -0.0009  0.0421  0.0522
13194W        W29328   6.949   4.422  12.588 -0.0218  0.0469  0.2517
13195W        W29329   2.228  12.908  15.345 -0.2338  0.1022  0.0674
13196W        W29330  16.951  13.925   4.090  0.1223 -0.1000 -0.0252
13197W        W29331  10.319   3.211   4.335 -0.2332  0.0569 -0.2209
13198W        W29332  14.258   9.499  15.319  0.2342 -0.1492  0.2063
13199W        W29333  14.852   8.540   2.507 -0.0448 -0.1143  0.4555
13200W        W29334  13.627   1.318   4.505  0.0415  0.0693  0.0947
13201W        W29335   4.003   0.719  16.092  0.0423 -0.2564  0.2274
13202W        W29336  18.037   6.988   4.926 -0.0852 -0.4575  0.1860
13203W        W29337   1.092   0.680  15.458 -0.0210 -0.0085  0.1390
13204W        W29338  17.630  16.122  14.136 -0.2426  0.1454  0.1665
13205W        W29339   5.241  12.662  12.145  0.3116  0.0995  0.2174
13206W        W29340   3.983   7.544   0.871 -0.0009 -0.3801  0.1875
13207W        W29341  12.016   5.732  15.116  0.0094 -0.2322 -0.2523
13208W        W29342  17.399  15.549   1.809  0.2470 -0.2309  0.3279
13209W        W29343   4.812  11.404  15.616 -0.1423  0.2696  0.0146
13210W        W29344  12.180  12.619   0.067 -0.0335 -0.1320  0.0003
13211W        W29345   7.154   0.518   4.258  0.0935 -0.0151 -0.0875
13212W        W29346  15.087  13.723   1.267 -0.0249 -0.1529 -0.4138
13213W        W29347   2.226  13.578   1.972 -0.0842 -0.2445  0.1614
13214W        W29348  10.978  16.901  15.773 -0.2395  0.3665 -0.0368
13215W        W29349  16.952   3.206   1.496 -0.0063 -0.0114  0.2232
13216W        W29350   9.571   7.018  12.848 -0.1047  0.2664  0.3725
13217W        W29351  16.497   3.007   1.738  0.1800  0.3363 -0.2674
13218W        W29352  16.935  12.887   4.996 -0.0124  0.1097  0.0578
13219W        W29353   8.975   8.502  13.216  0.0478  0.4380 -0.0229
13220W        W29354   0.275  13.828  14.922 -0.0363  0.1123  0.0755
13221W        W29355   1.991  13.377   4.052  0.1272  0.0108 -0.0727
13222W        W29356   3.234   0.548  12.666  0.1573 -0.0949 -0.1551
13223W        W29357   8.574   9.900  11.239  0.0249  0.0896 -0.0362
13224W        W29358   0.181   9.055   3.298 -0.1615 -0.0851  0.2807
13225W        W29359  17.856  12.699   4.053  0.1838 -0.1511 -0.2056
13226W        W29360  10.894  12.221   0.495 -0.2703 -0.0613 -0.3943
13227W        W29361  14.930  12.176   3.423  0.0130 -0.0023 -0.1525
13228W        W29362  10.080   3.885  10.107 -0.0179 -0.1016 -0.1494
13229W        W29363  13.241   3.505  16.310  0.0543 -0.0939 -0.2375
13230W        W29364  14.070  11.563   3.195 -0.2351  0.3552 -0.2470
13231W        W29365  15.857  17.681  16.114 -0.0782  0.2771  0.1347
13232W        W29366   1.756   4.712   3.104  0.1664  0.0263  0.2360
13233W        W29367   9.902  16.071  16.330 -0.1074  0.2798 -0.0068
13234W        W29368  17.377  16.238   3.874 -0.2301  0.1121  0.0955
13235W        W29369  11.912   5.800   3.720  0.0270  0.1589 -0.1502
13236W        W29370   5.186   2.694  15.346  0.1624  0.3761 -0.0701
13237W        W29371  12.616   8.387   4.088  0.0469 -0.0231 -0.0619
13238W        W29372  11.032   5.463  13.621 -0.0856  0.0131 -0.0450
13239W        W29373  12.385   1.717  13.473  0.5285 -0.0204 -0.1597
13240W        W29374   5.714   1.195  14.497 -0.1659  0.0184  0.0184
13241W        W29375  15.394   9.840  13.246  0.2185  0.1528  0.2183
13242W        W29376  12.428   0.927   0.399  0.1998  0.1618  0.1991
13243W        W29377   1.717  11.502   4.030  0.0007 -0.1327  0.3477
13244W        W29378   7.620  14.037   3.550  0.0891  0.2151 -0.1018
13245W        W29379   2.277   9.611  13.813  0.1003  0.0231  0.3325
13246W        W29380  14.195  17.029   1.064  0.3229 -0.0845  0.3841
13247W        W29381   2.288   8.459  13.317 -0.4833  0.0026 -0.0542
13248W        W29382  17.003   1.304   3.534 -0.3135  0.2285  0.5127
13249W        W29383  14.716  14.458  13.524  0.3741  0.1601  0.2307
13250W        W29384  11.944  14.101   5.848  0.0766 -0.3768  0.1000
13251W        W29385   4.394   0.821  13.370 -0.3194  0.0299  0.1617
13252W        W29386   0.571  15.676   2.564  0.5129  0.2617  0.0991
13253W        W29387   7.348  14.819  15.359  0.2978 -0.0382 -0.2309
13254W        W29388   2.076   6.741   4.410 -0.0446 -0.2023  0.4100
13255W        W29389   8.445  15.765  12.264  0.0928  0.2765 -0.0446
13256W        W29390  11.508  13.381   1.396 -0.1462 -0.0462 -0.1898
13257W        W29391   3.843  16.263   3.168 -0.2471 -0.4171 -0.1333
13258W        W29392   8.465   0.738   0.627 -0.1900 -0.0564 -0.1095
13259W        W29393  12.949   5.269  16.051 -0.1235 -0.0573  0.1804
13260W        W29394   7.586  11.404  15.479 -0.1381 -0.0974  0.1291
13261W        W29395   4.198   4.179   2.316  0.0057 -0.3084 -0.0887
13262W        W29396  10.779  17.665   1.125 -0.1772 -0.2660  0.0820
13263W        W29397  10.925  17.337  13.785  0.0498 -0.0040  0.2536
13264W        W29398   5.133  16.704   5.556 -0.1864 -0.2568  0.0731
13265W        W29399   4.580   7.269  13.157  0.2441 -0.0034 -0.1102
13266W        W29400  12.666   7.738  15.917 -0.1645  0.1163 -0.1314
13267W        W29401  13.879   9.912  14.486 -0.0643 -0.3073  0.1630
13268W        W29402   5.045   2.650  12.951 -0.0180  0.0856 -0.1230
13269W        W29403  13.789   8.772   4.134 -0.1783  0.0961  0.2036
13270W        W29404   6.974  12.689   5.085  0.1494  0.1425 -0.0712
13271W        W29405  10.993  15.464  16.175 -0.1966  0.0370 -0.1146
13272W        W29406  11.470   8.544  11.567 -0.0195  0.1030  0.2859
13273W        W29407   2.831  13.938  12.056  0.2593 -0.2706 -0.0111
13274W        W29408   1.933   3.150   1.481  0.1794 -0.1467  0.3232
13275W        W29409   5.898  12.580  12.600 -0.0865  0.0157 -0.1795
13276W        W29410  13.154  15.080   0.624 -0.0939  0.1566 -0.0764
13277W        W29411  14.041  11.901   5.522 -0.0350  0.0082  0.3785
13278W        W29412  14.864  12.048  15.983  0.0769  0.1416 -0.3041
13279W        W29413  13.775  14.327  11.865  0.1236  0.1556 -0.0538
13280W        W29414   2.468   4.533  16.153  0.3742  0.2600 -0.0303
13281W        W29415   3.301  12.417   0.417 -0.3107  0.1563 -0.1118
13282W        W29416  11.868  16.948  16.129  0.1154  0.2523  0.4481
13283W        W29417  17.291   7.095  12.478 -0.2467 -0.1375 -0.2304
13284W        W29418   9.602  10.312  14.151  0.2650  0.2103  0.1566
13285W        W29419  15.189   2.851  13.880 -0.2666 -0.4663  0.2712
13286W        W29420   8.862   4.584   2.196  0.1115 -0.0916 -0.2807
13287W        W29421   9.956  10.236  15.003  0.0518 -0.0867  0.2410
13288W        W29422  16.299  17.932   0.837 -0.0422 -0.0969 -0.1954
13289W        W29423  17.631   2.973   0.981 -0.2426 -0.1162 -0.0181
13290W        W29424  12.650  16.674   0.340 -0.0308 -0.0079 -0.2335
13291W        W29425   5.614   7.608  14.973  0.0527 -0.0527  0.3015
13292W        W29426  15.347  14.098  12.912  0.0200  0.0978  0.0720
13293W        W29427   9.122   3.912   4.831 -0.1018  0.0041 -0.0798
13294W        W29428   9.745  11.682  11.566  0.1047 -0.0256 -0.0727
13295W        W29429   5.788   1.194  12.739  0.1823  0.0886 -0.2408
13296W        W29430   4.707   6.138  10.451 -0.0651  0.0165  0.1395
13297W        W29431   3.491  10.989   2.313 -0.4235 -0.2336 -0.2795
13298W        W29432   0.284  15.260   2.709  0.3025 -0.0472  0.0584
13299W        W29433   7.799   4.584   4.542  0.1524 -0.0509 -0.1321
13300W        W29434   2.345   0.589   3.608 -0.0086  0.3200 -0.1908
13301W        W29435   3.427   2.540   3.693  0.0449 -0.0804  0.1092
13302W        W29436   6.277  12.599   5.614 -0.0491 -0.1621 -0.2051
13303W        W29437  16.490   7.988  15.370  0.5923  0.0896 -0.0697
13304W        W29438  10.858   4.147   3.407  0.3075  0.0393  0.0674
13305W        W29439   4.403  10.430   4.240  0.1371 -0.0854 -0.0969
13306W        W29440   2.132   5.940   1.806 -0.1129 -0.1602  0.1603
13307W        W29441  10.073   3.350  14.775  0.0927 -0.0528 -0.0775
13308W        W29442  14.787  13.819   4.807 -0.1587  0.3014  0.0713
13309W        W29443   5.582   1.183  12.256  0.0066  0.2772 -0.1265
13310W        W29444   8.729   0.917  13.803 -0.0942  0.2230  0.0294
13311W        W29445  14.578   0.072   2.585 -0.0517 -0.1735 -0.0527
13312W        W29446   9.683  15.800  12.466  0.1941  0.0551  0.0776
13313W        W29447  11.301  10.603   4.808  0.2218  0.1718 -0.1097
13314W        W29448   2.458   4.831   0.406 -0.3530 -0.0115  0.1550
13315W        W29449   5.228   6.670  11.318 -0.0515 -0.1088 -0.3880
13316W        W29450  10.484  10.926   0.305  0.3038 -0.0042 -0.0747
13317W        W29451  17.776  10.391   1.322 -0.0993 -0.0312 -0.0933
13318W        W29452  10.369   8.003   4.212 -0.1626  0.0286 -0.2166
13319W        W29453   3.670  16.113   4.024 -0.2704  0.0007 -0.0149
13320W        W29454   5.887   7.407  10.938 -0.2037 -0.2259  0.1031
13321W        W29455  14.478   8.008   0.836  0.2074 -0.1113  0.2152
13322W        W29456   3.098   9.726   1.809 -0.1145 -0.2287 -0.0451
13323W        W29457  11.820   7.304   1.171 -0.4357 -0.1290 -0.2002
13324W        W29458   3.033   7.391  11.689  0.1644  0.0052  0.1441
13325W        W29459   3.594   4.661   1.865 -0.1633  0.1678 -0.0619
13326W        W29460  17.218   7.747   4.290 -0.1889 -0.0518 -0.0432
13327W        W29461  12.212  10.165  10.676 -0.1601 -0.0053 -0.0015
13328W        W29462   7.722   2.698   2.670 -0.1166 -0.2688  0.2374
13329W        W29463   2.797  15.448   5.745  0.2484 -0.1000  0.0494
13330W        W29464   0.238   7.904   2.729 -0.0129 -0.0121  0.0986
13331W        W29465   1.436   6.595  13.695  0.2345  0.0358 -0.0278
13332W        W29466  16.574  11.591  14.184 -0.2875 -0.2699  0.0380
13333W        W29467  10.049   8.731  15.503 -0.1149 -0.0482 -0.2332
13334W        W29468   7.410   9.086   2.709  0.1644 -0.0600 -0.3387
13335W        W29469  15.573   2.753   3.578 -0.1930 -0.0361 -0.1016
13336W        W29470  14.824  12.651   0.428  0.0532  0.0579  0.0612
13337W        W29471   0.575   7.430   3.184  0.1668  0.3587  0.0156
13338W        W29472  13.931   7.774  12.207  0.1913  0.0262  0.2425
13339W        W29473  11.868   6.692   5.378 -0.2007 -0.1597  0.0039
13340W        W29474  15.440   4.469   5.085 -0.1995  0.2007  0.3845
13341W        W29475   1.250   8.324   5.489 -0.3787 -0.3719  0.0075
13342W        W29476   9.329  13.919   4.592  0.2098  0.3071 -0.0967
13343W        W29477   0.199   5.045  15.306  0.2111 -0.2966  0.0660
13344W        W29478   5.305  16.099   0.787  0.0810  0.1086 -0.0145
13345W        W29479   4.098  13.996   1.750 -0.2277  0.0248  0.2188
13346W        W29480   0.722  13.516   3.404 -0.1221  0.1879 -0.2603
13347W        W29481   8.762  17.228   4.698  0.3649  0.0005 -0.1634
13348W        W29482   9.566  15.646  13.398 -0.0352 -0.0366  0.1511
13349W        W29483   8.152   9.719   0.115  0.0156  0.0132  0.0190
13350W        W29484   4.106  11.317  13.230 -0.1703  0.2386 -0.3791
13351W        W29485  18.084   1.317   4.604 -0.4390  0.1122  0.0545
13352W        W29486  10.297   8.269  12.605 -0.0900  0.2540 -0.2163
13353W        W29487  14.098  14.548   4.147 -0.0152 -0.2767  0.0598
13354W        W29488   6.042   2.451  14.753 -0.0430 -0.1713 -0.1022
13355W        W29489  10.875  17.279  12.894  0.0439  0.3115 -0.2821
13356W        W29490   8.741   8.444   3.409  0.0549  0.0276  0.3151
13357W        W29491   2.397  16.126   5.091 -0.1233  0.0083  0.2850
13358W        W29492  17.199  12.599   3.011 -0.0284  0.0232  0.0231
13359W        W29493  17.832   5.549  16.127 -0.0362  0.4653 -0.0747
13360W        W29494  17.034  10.188   2.974  0.0396  0.0800 -0.1657
13361W        W29495   9.933   3.266  11.165 -0.5148 -0.0689 -0.3208
13362W        W29496  15.020   1.020  14.084  0.1362  0.0417  0.0020
13363W        W29497  12.006  11.053  13.030 -0.1010 -0.2327 -0.2117
13364W        W29498  15.002   4.658  14.238 -0.0080 -0.0301  0.0181
13365W        W29499  11.726   5.246  12.279  0.0786  0.1014 -0.1053
13366W        W29500   9.608  16.304  15.430 -0.1341  0.0226 -0.2135
13367W        W29501   0.900  10.563  15.433  0.1119  0.0113 -0.1292
13368W        W29502  18.042   2.777   4.089 -0.2363  0.0837  0.3225
13369W        W29503   3.437   0.142   1.257 -0.0429 -0.2988  0.0008
13370W        W29504  11.860   5.746   0.078  0.0857  0.1372  0.2492
13371W        W29505   9.527  13.096   5.201 -0.1106 -0.0109  0.2483
13372W        W29506  11.038   5.918   3.492  0.2620  0.0218 -0.0705
13373W        W29507  15.020  11.268  12.954 -0.2143  0.0274  0.4925
13374W        W29508  14.758  16.366   1.728  0.1219 -0.0809 -0.1811
13375W        W29509   6.786   0.700   2.791 -0.1675  0.0719 -0.0926
13376W        W29510   0.326   5.467  14.199  0.2975 -0.2534 -0.0010
13377W        W29511   4.794   5.276  13.319 -0.1715 -0.3274  0.1335
13378W        W29512   5.356   1.635   4.279  0.0686 -0.2614 -0.4065
13379W        W29513  16.489  13.540   2.071  0.0511 -0.4302  0.0302
13380W        W29514  17.639   3.448   2.081 -0.0053  0.2345 -0.1684
13381W        W29515   3.129   7.408   3.258  0.0416 -0.1427  0.0334
13382W        W29516  10.659  11.625   5.729 -0.0601  0.0097 -0.0418
13383W        W29517   9.350  15.826  14.346 -0.0836 -0.0318 -0.0541
13384W        W29518   0.426  15.202  14.037 -0.0698 -0.1322 -0.1024
13385W        W29519  17.037   1.939  10.662 -0.0896 -0.0507 -0.1228
13386W        W29520  17.596   8.040   4.231  0.0649  0.0897  0.1827
13387W        W29521   4.250   5.690  14.473 -0.1934  0.2562 -0.0469
13388W        W29522  12.161   2.371   1.217 -0.2171 -0.3494  0.0695
13389W        W29523   0.193  16.786  15.026 -0.1625 -0.3537  0.3460
13390W        W29524  10.474  13.378  13.326 -0.0348  0.1234  0.0497
13391W        W29525  14.305   5.560   2.887 -0.0340 -0.0108  0.0228
13392W        W29526  12.070   4.620  13.972  0.1546  0.2662 -0.0970
13393W        W29527  13.196  10.869  14.797  0.0639  0.1549  0.0082
13394W        W29528  16.037   4.015  13.801 -0.0641  0.0489 -0.0775
13395W        W29529   9.783  11.302   4.803  0.2957 -0.2133 -0.0071
13396W        W29530   7.839   1.823   1.679  0.0831  0.0882  0.1624
13397W        W29531  16.075  12.480   2.987 -0.1965  0.2580 -0.2690
13398W        W29532  17.747  10.298  15.473 -0.1035  0.1021 -0.1136
13399W        W29533  17.047   2.562   5.477 -0.2234  0.1313 -0.0381
13400W        W29534   9.559   0.586   1.056 -0.1352  0.1640  0.0017
13401W        W29535  12.409   3.351  15.356 -0.0166  0.2329  0.1430
13402W        W29536   2.985  18.046  14.639 -0.2850 -0.1356  0.0310
13403W        W29537  18.092  14.414   1.812 -0.0650 -0.0773 -0.1461
13404W        W29538  10.840   8.383   2.392 -0.0837 -0.2975 -0.0150
13405W        W29539  15.019  16.347   0.574  0.1446  0.0003  0.0209
13406W        W29540   4.018   9.516  15.703 -0.0098 -0.0178 -0.1802
13407W        W29541  11.160   4.308  11.142  0.3992  0.1162  0.2149
13408W        W29542   9.888  16.785   2.086  0.0460  0.1813 -0.2150
13409W        W29543   8.720   1.561   1.256  0.0386 -0.0581 -0.0797
13410W        W29544  15.401   2.829   3.106  0.3750  0.3198 -0.2899
13411W        W29545   2.931  15.809   1.740  0.1546 -0.1339  0.1373
13412W        W29546  13.641  13.574  14.214 -0.0794  0.1503  0.2216
13413W        W29547  13.502  10.538   6.008  0.0930  0.0793  0.1752
13414W        W29548   4.885  16.096  13.370 -0.0536 -0.0597 -0.0767
13415W        W29549   4.694   7.665   2.062  0.0134  0.1139  0.0142
13416W        W29550   9.625   1.410  11.203  0.0871 -0.3107  0.0885
13417W        W29551  14.574   2.644   3.620  0.1939 -0.1405 -0.1392
13418W        W29552   4.892   4.944   5.076 -0.1022 -0.2388  0.0023
13419W        W29553   4.299   9.922   2.321 -0.1201 -0.1035  0.0500
13420W        W29554  17.291   2.046  16.120  0.0467  0.1468 -0.1477
13421W        W29555   6.562   6.193  11.146  0.0149 -0.1301  0.2461
13422W        W29556  10.377  11.013   1.189  0.2215 -0.0287 -0.1156
13423W        W29557  14.394   6.079   4.695  0.0449 -0.2479  0.2402
13424W        W29558  17.215   2.816   2.629 -0.2705  0.0560 -0.1620
13425W        W29559  11.618  15.028   4.998 -0.0467 -0.0108 -0.1949
13426W        W29560  17.471  17.343  13.148  0.1017  0.0898 -0.0755
13427W        W29561   5.544   8.252  13.056 -0.2941  0.3300  0.1687
13428W        W29562   4.816  13.672   4.693 -0.1301  0.2366  0.1024
13429W        W29563  13.852   6.441  14.002  0.0556  0.1458  0.1714
13430W        W29564  12.420   7.926  12.365 -0.2108  0.0379  0.0099
13431W        W29565  10.842  11.535  13.600  0.1700 -0.1697 -0.2159
13432W        W29566  14.248   2.056   1.821  0.0806 -0.3253 -0.2380
13433W        W29567   1.949   7.426  13.416 -0.0168  0.1447 -0.1564
13434W        W29568   2.216   2.222  12.663 -0.4310  0.1533  0.0230
13435W        W29569  11.539   3.076  14.920 -0.1889 -0.0752  0.1783
13436W        W29570   5.635   6.497  15.069 -0.2809 -0.0109  0.0195
13437W        W29571   4.590  17.073   2.312 -0.2191 -0.3377 -0.1168
13438W        W29572   6.147   6.841  14.401  0.0728 -0.0172 -0.0064
13439W        W29573  13.017   9.132   2.326  0.3871  0.1121 -0.1672
13440W        W29574   2.332  16.045  12.318 -0.0527 -0.1871 -0.0865
13441W        W29575   5.006  10.406   1.862  0.1330  0.3260 -0.1199
13442W        W29576   1.007   5.013  11.187 -0.1654 -0.1531 -0.0281
13443W        W29577  12.624  14.079   3.696  0.1030 -0.3549 -0.1384
13444W        W29578  16.390  13.869  13.809 -0.1096 -0.1956 -0.3860
13445W        W29579   3.146   4.370   3.922  0.0379  0.1489 -0.0739
13446W        W29580  14.251  11.377  13.582  0.0215  0.1677 -0.0492
13447W        W29581  13.714   9.408  15.351  0.0045 -0.1301 -0.0682
13448W        W29582   4.412  18.059  11.264 -0.0468 -0.1158 -0.2421
13449W        W29583   9.048  15.923  12.240  0.1525 -0.2130  0.1098
13450W        W29584  15.671  15.059   0.134 -0.0750  0.1466  0.0599
13451W        W29585   6.209   8.734   4.386 -0.0523 -0.1807 -0.0683
13452W        W29586  13.562  14.722   0.432 -0.2210 -0.3442 -0.2941
13453W        W29587   3.991  10.143   4.199  0.0363 -0.2390  0.4252
13454W        W29588   5.507   7.626   6.246  0.1588 -0.0063 -0.1677
13455W        W29589  14.135   9.047  14.123 -0.2154  0.0864  0.0391
13456W        W29590   6.044   1.866  13.247 -0.1350 -0.0732 -0.1931
13457W        W29591   2.205  12.273   2.458  0.0960 -0.1856 -0.1422
13458W        W29592  16.632  12.548  16.122  0.0010  0.0467 -0.1740
13459W        W29593   0.681   2.436  15.017 -0.0952  0.0195 -0.1649
13460W        W29594  13.311  13.650   1.738 -0.0335  0.2529 -0.1740
13461W        W29595  11.526  10.186  13.888 -0.2690  0.3027  0.0500
13462W        W29596   9.289   6.464  12.263  0.1273  0.0196  0.0180
13463W        W29597   6.137  14.137   2.163  0.0208  0.0296  0.1436
13464W        W29598   1.892   1.679   1.243 -0.0780 -0.0840  0.1727
13465W        W29599  14.455   5.051  15.494 -0.1277  0.0598 -0.2118
13466W        W29600   8.537  14.528   5.191 -0.0078  0.0362  0.0698
13467W        W29601   4.203   7.842  13.450 -0.0986  0.0784 -0.1095
13468W        W29602  11.151   4.715  11.420 -0.0287 -0.1457  0.1430
13469W        W29603  10.377   6.543   4.610 -0.0158 -0.3467 -0.0138
13470W        W29604  15.700  15.262   1.957 -0.0769 -0.0765 -0.1826
13471W        W29605   7.759  13.242  16.095  0.0674 -0.1175  0.1133
13472W        W29606  13.928  15.414   4.555 -0.1390  0.1143  0.0107
13473W        W29607  17.358   2.234  13.010  0.0511  0.0036 -0.3187
13474W        W29608   1.357  12.075  14.663 -0.0783 -0.2074 -0.1896
13475W        W29609   9.166  14.367   0.338 -0.0344 -0.0702  0.1443
13476W        W29610   5.650  15.965  14.771  0.1961 -0.1579 -0.1782
13477W        W29611   5.608   5.075  11.847  0.0065 -0.1458 -0.3221
13478W        W29612  15.083  16.695   1.567  0.0489  0.0296  0.1981
13479W        W29613   5.160   2.236   2.593 -0.0958  0.2970  0.0425
13480W        W29614   6.567   4.283   1.346 -0.2732  0.2380 -0.1960
13481W        W29615   5.776  12.039  12.660 -0.0657 -0.0286 -0.2529
13482W        W29616   4.038   7.046  14.653 -0.0009 -0.2823  0.1662
13483W        W29617  16.843  13.061   2.104  0.2932 -0.2426 -0.2165
13484W        W29618   4.796  13.104   5.546  0.0579 -0.1026  0.0951
13485W        W29619   2.050  11.763   2.400 -0.0117  0.2456  0.2861
13486W        W29620  17.659  12.494  14.372 -0.0820 -0.1079 -0.0443
13487W        W29621  15.717  14.349  14.686 -0.2678 -0.0089  0.1566
13488W        W29622  12.144  16.289   4.420  0.3040 -0.2758 -0.1476
13489W        W29623  17.298   9.484  11.134 -0.0663  0.0346 -0.2458
13490W        W29624   4.616  11.408   0.414 -0.1637 -0.1045 -0.0488
13491W        W29625   5.488  10.137  15.183  0.1853  0.2385 -0.1246
13492W        W29626   9.628  12.638  11.774 -0.1214  0.0003  0.1649
13493W        W29627  10.858  13.534   5.634  0.0799 -0.0815 -0.0498
13494W        W29628  17.414  16.879   5.132  0.0116  0.0800  0.0979
13495W        W29629  15.209  18.035   4.714 -0.3689  0.1814 -0.0901
13496W        W29630  10.145  14.423  15.892 -0.3712 -0.3206  0.0827
13497W        W29631  12.551   1.651  13.936  0.1790  0.3203  0.2049
13498W        W29632   2.058  13.340   5.672 -0.4021 -0.0527 -0.0990
13499W        W29633   9.056   8.621   5.020  0.0477  0.1574 -0.0676
13500W        W29634  12.396   3.216  12.056 -0.1672 -0.1938 -0.1187
13501W        W29635   1.236  16.637   4.601  0.2238 -0.2898  0.2217
13502W        W29636   7.586  12.087   2.741 -0.2248  0.1078  0.0142
13503W        W29637  13.220  11.768  11.046  0.0196  0.1720  0.1368
13504W        W29638  11.298  16.550  12.603 -0.0602  0.0317 -0.0268
13505W        W29639  12.388  11.817   3.150 -0.0612 -0.0344 -0.2233
13506W        W29640   2.991   9.366  12.812  0.1457 -0.1398 -0.1482
13507W        W29641   1.090  11.620  15.136 -0.1329 -0.0957  0.2317
13508W        W29642  12.175   3.442   2.590  0.0332 -0.4003  0.0315
13509W        W29643  17.882  10.040   5.899  0.0118 -0.0669 -0.3468
13510W        W29644   0.753  11.873  16.410  0.1084 -0.2532  0.1400
13511W        W29645  17.660  14.991  16.079  0.0394 -0.0823 -0.1655
13512W        W29646  17.161   5.625  14.093  0.0042  0.4026 -0.2504
13513W        W29647   2.359  17.410  15.670  0.0232  0.1788  0.0804
13514W        W29648   0.024   2.371   1.526 -0.0140  0.1313 -0.0271
13515W        W29649  12.519   7.759   5.620  0.0505  0.1482  0.2484
13516W        W29650   4.834  12.243   5.630 -0.2149 -0.2199  0.1869
13517W        W29651   6.157  15.564  12.999  0.0292 -0.0584 -0.1018
13518W        W29652   8.625  11.181   1.272 -0.0201 -0.2157  0.2083
13519W        W29653  10.303  14.990   0.476 -0.0587 -0.0707 -0.0734
13520W        W29654  12.106   8.885  13.612  0.0893  0.0746  0.1707
13521W        W29655   5.601  15.619   2.478  0.0096 -0.1513 -0.1853
13522W        W29656  12.114   6.347  12.832  0.0748 -0.0248  0.0265
13523W        W29657  14.619   3.108   2.039  0.1584  0.1511  0.0599
13524W        W29658  18.077  15.036  13.763 -0.3739  0.1831 -0.0619
13525W        W29659  15.861  15.051   4.208 -0.1201 -0.2053  0.2217
13526W        W29660  16.229   0.827   0.807 -0.2613 -0.1374 -0.0243
13527W        W29661   5.758   8.842   1.767  0.1366  0.0355 -0.0888
13528W        W29662   4.010  13.514   4.553 -0.1196 -0.0782 -0.5300
13529W        W29663   6.906   8.432   0.493  0.2299 -0.0618  0.2593
13530W        W29664   0.897   8.799  14.513  0.1510  0.0583 -0.0334
13531W        W29665  10.897  16.306   3.376 -0.0729  0.2282 -0.0098
13532W        W29666   5.497   7.264   5.008 -0.0095  0.0492 -0.3562
13533W        W29667   6.940   5.726  11.725 -0.0611 -0.1014  0.1117
13534W        W29668   1.117  15.031   2.881 -0.1452  0.2370 -0.1505
13535W        W29669   6.557   7.126  14.345  0.4060 -0.3795 -0.0245
13536W        W29670  13.492  16.045  13.071  0.1069  0.0871 -0.0566
13537W        W29671  16.374   5.574  12.540  0.1964  0.0800  0.0298
13538W        W29672  16.797  11.464  12.765 -0.2283 -0.1419 -0.1568
13539W        W29673   0.599  16.051   1.231  0.0976  0.1095  0.1298
13540W        W29674  17.884  10.333  14.645 -0.0429  0.0544 -0.0892
13541W        W29675  15.519  18.042   4.169  0.0394  0.2645 -0.0225
13542W        W29676   0.329   2.077  14.850  0.1067 -0.0453 -0.1039
13543W        W29677   6.382  10.441  15.339  0.5502 -0.3011  0.0260
13544W        W29678  14.646   0.036   4.550  0.0550 -0.1175 -0.0092
13545W        W29679  15.528  14.234  11.897 -0.2525  0.0801  0.0352
13546W        W29680   0.550  12.976  14.833  0.1722 -0.1595  0.0627
13547W        W29681   8.750   5.841   2.103  0.0298 -0.0509 -0.1428
13548W        W29682   8.180  10.639  11.499  0.2375  0.1843  0.1645
13549W        W29683  17.516  16.470  16.198 -0.0653  0.1418 -0.1216
13550W        W29684  14.642   4.192   0.064  0.2194 -0.0210  0.0471
13551W        W29685   3.939  13.497  10.883 -0.1902  0.2212  0.2857
13552W        W29686   9.354  16.940   2.413  0.1085  0.2097  0.0953
13553W        W29687   4.248   4.820   0.931  0.0194 -0.3554 -0.2438
13554W        W29688   0.184   4.306   4.282 -0.2065  0.0494 -0.1067
13555W        W29689  11.687   5.712   5.646 -0.2932 -0.1890  0.1623
13556W        W29690   4.796   1.029  14.932 -0.2538 -0.0435 -0.3440
13557W        W29691   9.466   5.028  13.983 -0.3032  0.0195 -0.0301
13558W        W29692  16.159  10.912  14.734 -0.2047  0.0583 -0.0737
13559W        W29693   0.371   0.341   4.922  0.2802 -0.1275 -0.1844
13560W        W29694  13.903   8.660  12.538  0.0484 -0.2564 -0.0888
13561W        W29695  16.779   0.061   0.769 -0.3483  0.2713 -0.3665
13562W        W29696   9.716  17.888  16.136  0.1094  0.0559 -0.0301
13563W        W29697  17.717   5.456   2.584  0.1612 -0.2069  0.2688
13564W        W29698   7.710  16.369  11.997  0.0308  0.0526 -0.0873
13565W        W29699  11.957  14.959   3.226  0.1289  0.3173  0.2044
13566W        W29700   5.164   3.919  14.106  0.3331  0.1466  0.0916
13567W        W29701   6.596   4.431   4.792  0.0346  0.2144 -0.3683
13568W        W29702   1.999  16.945  12.743 -0.1514  0.3212 -0.0532
13569W        W29703  14.017   0.587   6.123 -0.1955  0.4010 -0.0330
13570W        W29704  17.659  12.281  16.123  0.0364  0.2677  0.2087
13571W        W29705  12.897  14.495  11.603  0.1814 -0.1279  0.0886
13572W        W29706   4.639   1.688   3.308 -0.2864  0.2200  0.0979
13573W        W29707   2.384  17.528  15.158  0.2639 -0.0655  0.0413
13574W        W29708  12.576   5.797   5.313  0.0689  0.0395 -0.0399
13575W        W29709   2.257   5.693  14.573 -0.2148 -0.1362 -0.0399
13576W        W29710  13.024  14.289  16.272 -0.6617  0.1398  0.0336
13577W        W29711  10.594   4.536   0.771  0.0114 -0.4078 -0.3311
13578W        W29712  12.470  16.065   3.657 -0.2600 -0.2917 -0.0788
13579W        W29713  11.186   9.246  13.960 -0.1823 -0.0288  0.1138
13580W        W29714  16.408   6.569  10.565 -0.1524 -0.1970 -0.0763
13581W        W29715   0.167  13.078   1.280 -0.0308  0.1078 -0.0868
13582W        W29716  14.417   2.101  16.399 -0.0057 -0.1749 -0.1621
13583W        W29717   3.727   7.057  16.278  0.3488  0.4035  0.1202
13584W        W29718  11.754   2.116  14.273 -0.2154 -0.0665  0.0022
13585W        W29719   5.360  13.808   2.978  0.1721 -0.0097  0.4375
13586W        W29720  13.187  15.538  13.267  0.0662 -0.1676  0.0339
13587W        W29721   8.678   5.363   2.936 -0.0824 -0.2116  0.0157
13588W        W29722   0.316  17.427  12.974 -0.2294  0.2441  0.1610
13589W        W29723   6.972   2.730   2.078 -0.1216 -0.0976  0.0207
13590W        W29724   2.378   4.361  11.018  0.1461 -0.0878 -0.0214
13591W        W29725  12.075  15.686   3.884  0.1100 -0.1066 -0.1470
13592W        W29726  10.973  17.739   4.803  0.2064 -0.0070 -0.1734
13593W        W29727   8.289  13.577  14.324 -0.2176  0.0188  0.2123
13594W        W29728  16.903  15.566  14.406 -0.2128  0.1118 -0.3126
13595W        W29729  12.855   3.174   3.603 -0.1858  0.2065  0.0038
13596W        W29730  13.269  11.837  15.986  0.1441 -0.0076 -0.1053
13597W        W29731   9.684   7.521   5.309  0.1723 -0.0737  0.0733
13598W        W29732  16.433  10.762  13.611  0.0161  0.0574 -0.0686
13599W        W29733  10.539  14.015  15.986 -0.3580 -0.1598  0.1349
13600W        W29734   4.583   5.550   5.158 -0.0393  0.0828 -0.1140
13601W        W29735   2.568  16.395   5.460 -0.0573 -0.0909  0.0312
13602W        W29736  10.185   3.433   5.450  0.2172 -0.0795  0.0395
13603W        W29737  13.804  13.334  14.610 -0.2852  0.0127 -0.1829
13604W        W29738   9.089  10.153   6.182  0.2256 -0.1108  0.1220
13605W        W29739   3.157  11.082   0.431  0.6976 -0.1501 -0.1618
13606W        W29740  14.090   3.226   4.898 -0.0057  0.3159  0.0296
13607W        W29741  16.946   6.792  11.213 -0.1532 -0.1020  0.2197
13608W        W29742  14.128  15.081  11.379 -0.3654 -0.0708 -0.2627
13609W        W29743  16.399  14.531  11.714  0.0044 -0.0827 -0.0310
13610W        W29744   2.429  12.524   5.547  0.2803 -0.0664  0.3953
13611W        W29745   7.181   1.450  15.290  0.1270 -0.0071  0.1870
13612W        W29746  12.907   4.752  13.479  0.0421  0.1231  0.1101
13613W        W29747  14.741   5.071  14.248 -0.2470  0.0178 -0.0757
13614W        W29748  16.549   7.366   2.035 -0.3962 -0.0543 -0.0893
13615W        W29749   4.716   1.724   5.901 -0.2059 -0.1792  0.0023
13616W        W29750  10.988   5.184  11.657  0.0943  0.1919  0.0817
13617W        W29751   5.084  17.819   4.507  0.0526 -0.0770  0.2170
13618W        W29752  17.660  13.956  12.927 -0.0543 -0.2706 -0.0842
13619W        W29753  16.406   7.122   1.084  0.0248  0.1032  0.1245
13620W        W29754   0.742   2.881  15.144  0.1637  0.1395 -0.1576
13621W        W29755  13.439   9.973  16.312  0.0831 -0.1795 -0.1060
13622W        W29756   7.362  13.849   0.432 -0.1900 -0.2162  0.2839
13623W        W29757   0.728   0.182   4.483 -0.2197 -0.1857  0.1319
13624W        W29758  12.751  15.123   4.454 -0.0190 -0.1475  0.0076
13625W        W29759   8.070   6.215  10.997 -0.0605  0.0173  0.1182
13626W        W29760   4.174   8.621   2.741  0.1155  0.2940 -0.2295
13627W        W29761  12.877   8.894   3.552  0.1431 -0.0914 -0.2417
13628W        W29762  13.507   5.929   4.744 -0.1087  0.2691 -0.0938
13629W        W29763   2.718  15.465   0.519 -0.2825  0.1370  0.0628
13630W        W29764   3.421   1.870  12.707  0.2127  0.2244 -0.1288
13631W        W29765   4.882   6.252   5.174 -0.1870  0.1066  0.0157
13632W        W29766  17.801  10.881  12.196 -0.2833 -0.2404  0.1273
13633W        W29767  10.655  17.374   3.568 -0.1676  0.2419 -0.2204
13634W        W29768  12.942   2.792  10.899  0.1667  0.0066  0.0795
13635W        W29769   6.227   8.326  14.717 -0.0770  0.2374  0.2249
13636W        W29770   9.437   7.803  14.120 -0.1724  0.0725  0.2393
13637W        W29771   7.959   0.705  12.972  0.2866 -0.0467  0.4033
13638W        W29772  16.129   1.516   4.649  0.0210 -0.2247  0.0345
13639W        W29773   1.734  11.860   0.893  0.0228 -0.1827 -0.0026
13640W        W29774  10.358   6.515  12.913 -0.0682 -0.1259  0.0890
13641W        W29775   1.986   8.980  13.153  0.0809 -0.0166 -0.0181
13642W        W29776   9.582  12.033  15.510 -0.0964 -0.1573  0.0310
13643W        W29777  17.426  14.147  11.974  0.1780 -0.3877 -0.1069
13644W        W29778  14.216   1.997  13.867 -0.0991 -0.1703  0.2075
13645W        W29779   8.235  14.138   3.873 -0.0768  0.0944 -0.0824
13646W        W29780  13.616  13.070   2.424 -0.2680  0.0166  0.0086
13647W        W29781  13.934   5.561   3.654 -0.0445  0.1264 -0.0277
13648W        W29782  13.021  12.864   1.917 -0.1617 -0.1284  0.1140
13649W        W29783  16.419   0.850   1.716  0.1552 -0.1794  0.0881
13650W        W29784   5.311   6.777  14.373  0.2002  0.0688 -0.2698
13651W        W29785   4.378  11.594   3.179 -0.0794 -0.1002 -0.2327
13652W        W29786   3.901   7.980  12.635 -0.1980 -0.0248 -0.4342
13653W        W29787   1.285  11.689   4.194 -0.0784  0.2144 -0.0400
13654W        W29788  16.602  13.759   5.146 -0.2051 -0.0756 -0.0180
13655W        W29789   9.105   1.431  15.802 -0.1419  0.0793  0.1429
13656W        W29790  15.239  12.847   4.740 -0.3116 -0.1771 -0.3090
13657W        W29791   3.540   4.187  15.699 -0.1194 -0.0627  0.0499
13658W        W29792  17.647   2.593   4.574  0.2241 -0.2292  0.1733
13659W        W29793  15.494  13.007  14.869 -0.1792  0.1168  0.2844
13660W        W29794  11.015   1.228  14.671 -0.1673 -0.0215  0.2121
13661W        W29795  12.232   5.052   4.163 -0.3121  0.1625 -0.2325
13662W        W29796  11.008   4.088   2.122 -0.0950 -0.2888  0.4239
13663W        W29797   6.637  13.160   2.965  0.1568 -0.0476  0.2627
13664W        W29798  14.470  14.403   5.109 -0.1044 -0.2915 -0.0001
13665W        W29799  11.342   2.726  12.626  0.1521  0.0655  0.0185
13666W        W29800   9.005  12.484  14.035  0.0971 -0.2104  0.0969
13667W        W29801   1.682  10.122   3.417  0.1101  0.0008  0.0085
13668W        W29802   1.304   9.985  13.795  0.1115 -0.0373 -0.1312
13669W        W29803  12.086  11.029  14.019  0.0575  0.4271  0.0092
13670W        W29804  11.231  17.452   0.962 -0.0546  0.2245 -0.0546
13671W        W29805  14.246   1.541   5.752  0.2099  0.3967  0.1850
13672W        W29806  16.742   0.820  12.966  0.1053 -0.0852  0.1207
13673W        W29807  14.987  13.108   4.315 -0.1364 -0.0295  0.1820
13674W        W29808   7.383   8.697   3.058  0.0084 -0.0553  0.2528
13675W        W29809  11.915   3.305  12.276  0.3173  0.0800 -0.2070
13676W        W29810  10.358   2.851  13.928 -0.2774  0.1778 -0.0486
13677W        W29811  14.864   5.766   6.080  0.2810  0.1936  0.2674
13678W        W29812  16.286   3.227   5.022 -0.0521  0.1513 -0.0157
13679W        W29813   9.012  14.737  11.543 -0.1269 -0.1030  0.2802
13680W        W29814  13.429   7.142  15.636 -0.1665  0.3494 -0.3182
13681W        W29815   8.545   3.213   3.757  0.2118 -0.2773  0.3588
13682W        W29816  15.349  14.282   0.334  0.0520 -0.3609 -0.2465
13683W        W29817  11.893  15.440   2.984 -0.0958 -0.0873  0.1574
13684W        W29818   8.125   8.984  13.424  0.0333 -0.0862  0.0380
13685W        W29819   9.581   0.866  11.249 -0.0432 -0.1549 -0.0025
13686W        W29820   2.223   3.007   0.248 -0.0097  0.2712 -0.0993
13687W        W29821   2.547   4.594   2.966 -0.0422  0.1014  0.2287
13688W        W29822   3.363  13.358   1.409  0.0692  0.1662 -0.0405
13689W        W29823   0.249  14.252   5.103 -0.0149 -0.1499 -0.0786
13690W        W29824  14.995  11.830  13.864  0.0539 -0.2053  0.0577
13691W        W29825   2.780   5.889  12.830 -0.0732  0.0366  0.0243
13692W        W29826  17.079  12.426  16.017  0.0065  0.3125  0.0219
13693W        W29827   2.224  11.458  12.078 -0.1237  0.1638  0.3282
13694W        W29828  11.704  16.450   5.545  0.2497 -0.1733  0.0319
13695W        W29829  15.206  13.258  13.192 -0.0664 -0.1524  0.1964
13696W        W29830  14.218   0.112   0.639 -0.2821 -0.3569 -0.1110
13697W        W29831   7.567   3.217  15.940 -0.1552  0.2659 -0.4132
13698W        W29832   6.152   4.962  13.586  0.1628  0.1926  0.1304
13699W        W29833   2.338  12.030  13.955  0.2122  0.1520 -0.1756
13700W        W29834   5.749   3.684  12.368  0.1497 -0.2174 -0.4912
13701W        W29835   7.826  11.172   3.068 -0.0720  0.4153  0.0277
13702W        W29836   0.959  14.549   4.698 -0.3434  0.1707 -0.1374
13703W        W29837   6.498  14.092   1.765  0.1486 -0.1545  0.1736
13704W        W29838   3.392   7.943   6.010  0.1513 -0.0861  0.0370
13705W        W29839   8.620   4.137  14.532  0.2411 -0.1078  0.0458
13706W        W29840   0.527   2.457   3.014  0.1226 -0.2870 -0.2251
13707W        W29841   8.946   6.008   4.698  0.0496 -0.1976 -0.1287
13708W        W29842  13.535   9.264  13.318 -0.2133  0.0114 -0.0643
13709W        W29843  10.338   2.022   3.747  0.1215  0.0161  0.0365
13710W        W29844   1.381  12.184  12.355  0.0932  0.0261 -0.0977
13711W        W29845  14.973   4.598  13.259  0.1427 -0.3040  0.0924
13712W        W29846  12.996   6.989  12.978  0.0721 -0.0722  0.0179
13713W        W29847  17.831   0.957  12.442  0.1874  0.0227  0.0110
13714W        W29848   2.499  10.018   4.555 -0.0175 -0.2850 -0.0063
13715W        W29849   5.055   3.743   0.084 -0.2379 -0.1024  0.1916
13716W        W29850   7.275   0.984  14.306  0.1909  0.3511  0.2073
13717W        W29851   7.933   9.248   0.742  0.2251  0.2627  0.0421
13718W        W29852   3.299  14.172  16.289  0.0182  0.1358  0.1306
13719W        W29853  17.701   9.560   4.439 -0.0776  0.0268 -0.2428
13720W        W29854   1.437   2.399   1.852  0.0892  0.3614  0.0757
13721W        W29855   3.716  17.004  14.325  0.2095  0.2097  0.3797
13722W        W29856  17.416   2.963  15.441 -0.1784 -0.0705 -0.1735
13723W        W29857  11.739   8.774   1.669  0.0021  0.0280  0.0697
13724W        W29858  12.158   9.761   4.226  0.0967 -0.0963  0.0809
13725W        W29859  14.492  10.548   2.868  0.0950  0.1418 -0.1500
13726W        W29860  13.290   0.759  13.721 -0.1967 -0.0261  0.1511
13727W        W29861   3.972  17.012  14.802 -0.2893  0.0566 -0.1302
13728W        W29862   9.411   8.396   4.712 -0.1502 -0.0882  0.0697
13729W        W29863   8.336   2.715   0.146  0.1191  0.3946  0.0311
13730W        W29864  12.934  16.743  16.155 -0.3105 -0.4562 -0.0560
13731W        W29865  10.061   2.344   3.474 -0.0737 -0.0333 -0.0838
13732W        W29866   3.669  16.654   0.636 -0.2638 -0.3399  0.2588
13733W        W29867   6.471   4.178  12.450  0.0428 -0.2600  0.0960
13734W        W29868   8.544  12.640  16.015 -0.1961 -0.1346 -0.2183
13735W        W29869  13.659   3.157  15.304  0.1102  0.1220 -0.2515
13736W        W29870   6.628  13.965  12.132 -0.1261 -0.0503  0.0958
13737W        W29871  13.908  10.383   4.200 -0.1202  0.1792 -0.0036
13738W        W29872   9.448  12.511   1.501 -0.3583  0.1713 -0.2294
13739W        W29873  10.572  10.494  12.041  0.1070 -0.1419  0.1098
13740W        W29874   0.181  12.365  11.395  0.0748 -0.0966  0.3675
13741W        W29875   8.241   3.773   3.411 -0.1715 -0.1908  0.1733
13742W        W29876  14.989  10.186   3.522 -0.0299 -0.2327  0.0351
13743W        W29877  14.890  16.540  15.637 -0.3853  0.2252 -0.1289
13744W        W29878  10.428  15.050  14.341  0.3130  0.2876 -0.3404
13745W        W29879  16.977   6.705   1.499  0.1173 -0.3281 -0.1237
13746W        W29880  11.397   5.372  15.846 -0.0437 -0.2067 -0.0022
13747W        W29881   3.052   4.037   3.491  0.1007  0.3425  0.2348
13748W        W29882   6.786  14.636  15.576  0.1241  0.1554  0.1334
13749W        W29883   7.637   2.107  14.726 -0.0483 -0.1347  0.0134
13750W        W29884   1.952   8.171  12.364  0.0246 -0.0321 -0.3209
13751W        W29885   3.987  10.278  11.133 -0.1816  0.0064 -0.0630
13752W        W29886  14.804  12.484  12.459  0.1659 -0.0835 -0.0355
13753W        W29887   7.500   6.897  14.137 -0.1591  0.1533 -0.0207
13754W        W29888  13.084  12.927  14.774 -0.2193 -0.2514 -0.3101
13755W        W29889  16.445   0.251   5.911 -0.0665  0.1583  0.3615
13756W        W29890  16.901  11.407   2.416  0.3414  0.3185 -0.2025
13757W        W29891  17.184  16.784   0.155  0.0772 -0.0562 -0.2171
13758W        W29892   8.227  11.546  11.513  0.4276  0.3558  0.1168
13759W        W29893  17.714   1.615  12.896  0.0228  0.1719 -0.1073
13760W        W29894   3.978  14.152  14.549  0.0518  0.1558  0.0977
13761W        W29895   1.981  14.238  16.017 -0.1404 -0.0353  0.1571
13762W        W29896  15.595  11.162  13.509  0.0340 -0.1814  0.0783
13763W        W29897   7.671   6.276   2.243  0.1728 -0.0741  0.2320
13764W        W29898   5.762   7.104   3.093  0.1967 -0.0045 -0.0319
13765W        W29899  11.160  13.868  11.244  0.2545  0.1121 -0.0271
13766W        W29900  14.894  12.783  13.340 -0.0731 -0.2083  0.0833
13767W        W29901   0.836  16.483  13.491  0.0836 -0.2061  0.1598
13768W        W29902  10.800  13.945   5.376 -0.1764 -0.1207 -0.0398
13769W        W29903  17.747  16.088  12.083 -0.0145  0.0198  0.0134
13770W        W29904  13.272   3.719  11.182 -0.3116  0.3246  0.0142
13771W        W29905   0.401  12.770  13.867  0.0224  0.1769  0.0106
13772W        W29906  16.368  13.766  12.834 -0.0443  0.1090 -0.1124
13773W        W29907   6.963  10.660  11.751  0.2748  0.3105 -0.0715
13774W        W29908  11.976  10.864   0.350  0.1575  0.0977  0.2835
13775W        W29909   7.706   5.788   3.009  0.1239  0.3308  0.3078
13776W        W29910  14.324   6.876  13.382  0.0413 -0.2458 -0.2671
13777W        W29911   4.788   2.355   0.547  0.0859 -0.0573 -0.0170
13778W        W29912   5.058  12.241   0.613  0.0979 -0.0383  0.2868
13779W        W29913   3.287   0.125  12.402  0.0379 -0.0209  0.2922
13780W        W29914  11.109  16.164   2.252 -0.0414 -0.0394  0.2204
13781W        W29915   8.122   8.876   1.177  0.2132 -0.1075  0.1251
13782W        W29916   8.702   5.534   5.111  0.3031  0.0233  0.0261
13783W        W29917   8.783  11.152  12.389  0.0806 -0.0132  0.1085
13784W        W29918  13.318   4.101  13.670  0.2212  0.0361 -0.0502
13785W        W29919  17.839   3.556   1.070 -0.3067  0.0046 -0.0644
13786W        W29920   2.318  16.109  15.241 -0.0579 -0.2046 -0.1215
13787W        W29921  15.216  13.255   2.563 -0.2782  0.0903  0.0514
13788W        W29922   1.496   4.068   2.244  0.0854  0.0577  0.0734
13789W        W29923   1.025   0.367   3.924 -0.0182 -0.1035  0.1118
13790W        W29924  17.036   9.580   4.157  0.3016  0.0767  0.0291
13791W        W29925  12.659   7.247  15.687  0.0635 -0.0511  0.1546
13792W        W29926   7.029   5.917   4.203 -0.2565 -0.0535  0.3000
13793W        W29927   7.551  13.096  11.277 -0.0107 -0.1520 -0.0712
13794W        W29928  16.472   0.602  13.332 -0.3413 -0.1838 -0.0638
13795W        W29929  17.622   4.848  12.727  0.2010  0.1696  0.2040
13796W        W29930  12.641  13.792  13.628  0.1459 -0.1576 -0.1110
13797W        W29931   1.374  14.094  13.148  0.1690 -0.2297  0.0275
13798W        W29932   7.939  17.280   4.388  0.0657 -0.1291  0.1972
13799W        W29933   2.675   7.073   1.342 -0.1473 -0.0536 -0.0895
13800W        W29934   6.887  12.901  12.972  0.0483 -0.0014  0.0309
13801W        W29935   2.280  14.321   4.250 -0.2887 -0.0024 -0.0337
13802W        W29936  11.498   4.546  15.311  0.0100  0.1474  0.1243
13803W        W29937   6.685   1.099   2.351 -0.1857 -0.1027 -0.0749
13804W        W29938   0.666   8.231   4.101  0.0363  0.2552  0.0218
13805W        W29939   2.705   4.651  10.361 -0.0953  0.2929 -0.1197
13806W        W29940  10.104   6.090   1.812  0.2188  0.0895  0.0931
13807W        W29941   4.147   8.899   1.437 -0.2004  0.0440 -0.0119
13808W        W29942  16.049  13.287   2.836 -0.0081 -0.0076 -0.1339
13809W        W29943   4.233   5.598  13.970 -0.2650  0.0023  0.0399
13810W        W29944   9.772   1.642  13.292  0.1471 -0.2220  0.0120
13811W        W29945   8.497  17.741  12.056 -0.0903 -0.0112 -0.0307
13812W        W29946   5.626   6.642  13.591  0.6288 -0.1876  0.1061
13813W        W29947  11.009  13.117   2.057 -0.1154  0.0617 -0.1941
13814W        W29948   8.672  15.210  12.913 -0.1791  0.0944 -0.0688
13815W        W29949   7.034  12.180   3.412  0.0501  0.0931 -0.3565
13816W        W29950  12.042  14.438  15.972 -0.2567  0.1171  0.4760
13817W        W29951  13.462   2.583   2.014 -0.0523  0.0720 -0.0622
13818W        W29952   5.936   3.560   1.601 -0.0592  0.2213  0.0089
13819W        W29953   7.586   9.271  15.206 -0.0215  0.1746  0.0757
13820W        W29954   3.423   8.879   1.066 -0.2503  0.0147  0.0407
13821W        W29955  18.090   4.366   1.579 -0.0972 -0.1244  0.3614
13822W        W29956  17.809  14.393  13.079  0.2419  0.3221 -0.0866
13823W        W29957  12.464  16.337   0.653 -0.0555 -0.0251  0.2416
13824W        W29958  17.139  10.569   3.776  0.1504 -0.1728 -0.1241
13825W        W29959   3.229  12.587   4.356  0.1614  0.0552 -0.0571
13826W        W29960  11.724  15.461  13.719  0.2840 -0.2818  0.0853
13827W        W29961   9.673   0.354   2.162 -0.0561  0.0762 -0.2007
13828W        W29962  16.976  17.719  11.625 -0.1187 -0.2416  0.1563
13829W        W29963  16.715  13.959   0.197 -0.1517 -0.2392 -0.0354
13830W        W29964  11.827   5.085  13.394  0.0562 -0.0920  0.2500
13831W        W29965   0.304   3.910   3.461 -0.0635  0.2053 -0.1061
13832W        W29966   0.786  10.916   5.796 -0.1085  0.0531  0.2218
13833W        W29967   6.756   8.434  14.928  0.0276  0.1381 -0.0296
13834W        W29968  17.649   5.665   4.868 -0.1648  0.1302  0.0603
13835W        W29969  10.863   8.086  13.785 -0.0384  0.2585 -0.3852
13836W        W29970  10.886   8.853   2.597 -0.0961  0.1952 -0.1855
13837W        W29971   4.587  16.588   2.649 -0.0778 -0.0253 -0.0218
13838W        W29972   1.816  12.094  14.764 -0.0377  0.0015 -0.0934
13839W        W29973  11.102  14.022  13.367 -0.1438  0.1137 -0.0093
13840W        W29974   2.763   5.874   5.047  0.0173 -0.2758  0.1096
13841W        W29975   1.834   7.084   2.684  0.2379  0.0305  0.0617
13842W        W29976   7.432   8.487   1.183 -0.1035  0.0569  0.0922
13843W        W29977   6.525   5.162  12.208  0.1164 -0.1488  0.0431
13844W        W29978  10.772   2.928   4.429 -0.1761 -0.2290  0.0289
13845W        W29979   7.801  10.245   3.732 -0.0921  0.0429 -0.0015
13846W        W29980  10.076  14.397  12.081  0.0126  0.1078  0.0922
13847W        W29981  16.563   2.060  10.393 -0.0362  0.2689  0.1366
13848W        W29982  11.042  17.072   3.712 -0.0583 -0.0508  0.0869
13849W        W29983  12.700   6.751  12.070  0.1017 -0.2447 -0.0443
13850W        W29984   4.691   3.122   1.695  0.0122 -0.0000 -0.2018
13851W        W29985  16.305   3.777  10.579 -0.3937  0.2050  0.0512
13852W        W29986  11.998   5.209   4.921  0.2327  0.1643 -0.2975
13853W        W29987  11.309   1.680   4.423 -0.0263  0.0130 -0.3374
13854W        W29988  10.489   5.712   1.907  0.1065  0.1374 -0.2132
13855W        W29989   3.637  10.751   0.490  0.2205 -0.2904 -0.1614
13856W        W29990  10.711  12.046  11.762 -0.1313  0.0767  0.2640
13857W        W29991  16.806   2.471   3.405 -0.2185 -0.1273  0.1027
13858W        W29992  14.532   1.546  11.765  0.4945 -0.0255 -0.0434
13859W        W29993   1.576  16.073   5.225  0.2193 -0.2841  0.1645
13860W        W29994   4.718   0.359   5.284  0.0772 -0.0900  0.0656
13861W        W29995  12.660   5.921   4.672 -0.1669 -0.0075  0.2002
13862W        W29996  14.348   8.556  15.515  0.3298 -0.0763 -0.0891
13863W        W29997   0.275  11.427  11.687 -0.1529 -0.1575 -0.1051
13864W        W29998   9.792  14.120   3.550  0.0122 -0.0994  0.1081
13865W        W29999  15.670  14.779   4.561  0.2867  0.2640  0.0646
13866W        W30000   8.124   1.696   0.631  0.1357 -0.0674 -0.1943
13867W        W30001  10.003  14.054  13.007  0.0381  0.0028 -0.0172
13868W        W30002   7.947   5.903   2.558 -0.3993  0.0319  0.3282
13869W        W30003  15.228  16.717  16.075  0.0814  0.2088 -0.0487
13870W        W30004   4.919  14.957   2.365  0.0231 -0.2309  0.4872
13871W        W30005  16.022   0.030  11.335  0.0367  0.2365  0.0503
13872W        W30006   7.113  14.166   4.561 -0.0769  0.2085  0.2339
13873W        W30007  14.431   3.230  10.889  0.0460  0.0574 -0.0847
13874W        W30008   9.443   4.381   0.203  0.0877  0.0284  0.1469
13875W        W30009  16.831  12.648  14.596  0.2145  0.0248 -0.2270
13876W        W30010  12.539   0.369   0.829  0.0406 -0.1576  0.0575
13877W        W30011   7.752  11.182   5.279 -0.1120 -0.1247  0.3126
13878W        W30012   4.492  13.086   5.127  0.2864 -0.0009  0.0612
13879W        W30013  17.322   3.550   1.685  0.0477 -0.1478  0.1297
13880W        W30014   7.336  17.134  12.081  0.0568 -0.1383 -0.1025
13881W        W30015   7.340  14.617  14.087  0.2357 -0.0123 -0.1912
13882W        W30016   9.282   4.262   6.210  0.1410 -0.1071 -0.1218
13883W        W30017   4.430   9.334   1.330  0.2310  0.0393 -0.2322
13884W        W30018  15.364  13.927   3.709  0.0502  0.3425  0.1958
13885W        W30019  12.226   5.341  11.994 -0.0787  0.0208 -0.0700
13886W        W30020   1.413   0.357   3.269 -0.1974 -0.0687 -0.1167
13887W        W30021   1.501  13.073  12.967 -0.1268 -0.0592 -0.1728
13888W        W30022   5.592   1.153  13.603  0.1939  0.1670  0.0439
13889W        W30023   9.588  17.504  13.425  0.0844 -0.2856 -0.1670
13890W        W30024   3.398   7.950   5.421  0.1186  0.1535 -0.1751
13891W        W30025   5.354  12.378  12.869 -0.1079 -0.1164  0.2803
13892W        W30026   7.670  17.370   2.780  0.0894 -0.0435 -0.0702
13893W        W30027  10.218   7.901  15.122  0.0594  0.2444  0.3078
13894W        W30028   3.045   0.873  14.521  0.0904 -0.2666 -0.0186
13895W        W30029  13.084   2.581  15.456  0.1641 -0.0615 -0.0525
13896W        W30030   9.376   6.232   0.815  0.3439  0.2033 -0.1765
13897W        W30031   0.448   7.756   2.226 -0.0200  0.0928  0.0674
13898W        W30032   8.839   4.851  16.347  0.2100 -0.1558 -0.0308
13899W        W30033   7.275   1.347  11.703 -0.0612 -0.0357 -0.1661
13900W        W30034   9.881   6.993  11.536 -0.1583 -0.0859 -0.0998
13901W        W30035  14.991   4.709   0.171  0.2590 -0.0671 -0.0650
13902W        W30036   0.561   6.844   1.631  0.0229  0.1196 -0.2513
13903W        W30037   2.051   9.067  15.487  0.0134  0.0047  0.3022
13904W        W30038  13.094  16.561  12.537  0.3611  0.0112  0.1181
13905W        W30039   6.750  17.566   3.068  0.1866 -0.0289  0.3521
13906W        W30040  10.520   2.145  13.005  0.1044 -0.0217 -0.0506
13907W        W30041  10.041   2.140  12.349 -0.0581 -0.1281  0.0515
13908W        W30042   3.192  16.828   5.052  0.1542  0.3570 -0.0200
13909W        W30043   5.790   4.700  12.259  0.1355 -0.1499 -0.0343
13910W        W30044   1.654   4.639  14.037 -0.2938  0.2142 -0.1053
13911W        W30045  16.230   9.207   1.357  0.0298 -0.2676  0.0064
13912W        W30046  16.288   7.675  16.180  0.1202  0.1126 -0.0081
13913W        W30047   0.838   1.631  15.443  0.0844 -0.1125  0.3414
13914W        W30048  11.563  17.415   0.019  0.1697 -0.1124 -0.0349
13915W        W30049  11.602   6.180  12.810  0.1312  0.1529 -0.0312
13916W        W30050   1.997  12.123  16.091 -0.1202  0.1344  0.1022
13917W        W30051   3.727  11.361  13.605 -0.2439  0.1604  0.4063
13918W        W30052   0.104   0.600  12.248 -0.0143 -0.2362 -0.1603
13919W        W30053  16.160   1.723   6.115 -0.0842  0.0285 -0.0426
13920W        W30054   1.969   4.565  16.081 -0.1942  0.0514  0.1637
13921W        W30055   0.234   7.082   2.335  0.1549  0.0673  0.1869
13922W        W30056  17.286  15.822   1.294 -0.0894  0.1650  0.0746
13923W        W30057   5.997   0.753  14.200 -0.2471 -0.2145 -0.1951
13924W        W30058   0.446  11.014  16.013  0.2581  0.1669  0.0531
13925W        W30059   5.526   4.035   1.729 -0.0145 -0.0268 -0.3219
13926W        W30060  16.203   9.997  14.256 -0.0388  0.0434  0.0087
13927W        W30061  11.946   8.781  11.381 -0.0156 -0.0969 -0.1789
13928W        W30062  14.758   6.514   3.317 -0.2764  0.0295  0.1849
13929W        W30063  16.577  15.450  15.321 -0.0162 -0.2672 -0.0903
13930W        W30064  17.835   6.705   4.040  0.0192 -0.1553 -0.1077
13931W        W30065  17.792  11.046   0.178 -0.0608 -0.0116 -0.0452
13932W        W30066   8.334   0.494   3.044 -0.3709 -0.1187  0.0274
13933W        W30067  11.847  15.544   2.123  0.1387  0.2640  0.1103
13934W        W30068  13.473   1.059   0.811  0.0939 -0.1776 -0.0977
13935W        W30069   8.134   5.393   2.865  0.2245 -0.2503 -0.0259
13936W        W30070   4.560   9.916   3.378 -0.1877 -0.1095  0.0580
13937W        W30071  14.255   5.671  15.972  0.6578 -0.5065 -0.2433
13938W        W30072  14.066  12.170  15.617 -0.0597  0.0482 -0.1239
13939W        W30073   1.965   1.581   2.800 -0.0066  0.0655  0.0362
13940W        W30074   7.278  17.820  15.432 -0.0761  0.0516  0.0484
13941W        W30075   9.218  17.137  14.169 -0.1280 -0.1121 -0.1287
13942W        W30076   9.758   6.538   2.995  0.1800  0.5711 -0.1029
13943W        W30077   2.706  16.662   4.985 -0.0857 -0.3035 -0.1550
13944W        W30078   9.391  13.151  15.140 -0.1082  0.1797 -0.0265
13945W        W30079   2.161   9.317  14.168 -0.4538 -0.3404  0.1527
13946W        W30080  15.809   3.037   2.464  0.1549  0.1334  0.2750
13947W        W30081   6.082   0.914  13.598 -0.1318 -0.1571  0.0918
13948W        W30082  13.108   5.857   1.343 -0.2021  0.1620  0.1087
13949W        W30083   5.903   3.081  10.994  0.0723  0.2844  0.1453
13950W        W30084  16.411  18.079  15.091 -0.3140 -0.1127  0.2959
13951W        W30085  17.120  17.096   0.603 -0.2982 -0.1357  0.1945
13952W        W30086  17.412   2.317  13.994 -0.1383 -0.1056 -0.1097
13953W        W30087   8.490  16.471  11.230 -0.1383  0.2263  0.3110
13954W        W30088   4.670   2.247  12.806  0.0373 -0.0502 -0.1762
13955W        W30089   1.184  12.530  15.892  0.0648 -0.0359  0.0653
13956W        W30090  15.814   4.969  13.176  0.2198  0.0391  0.0404
13957W        W30091  17.346   9.596  15.747  0.0476 -0.0494 -0.0608
13958W        W30092  15.005   3.128   3.054  0.1590  0.0440 -0.0224
13959W        W30093   8.899   1.957  15.134 -0.0641 -0.0163  0.2353
13960W        W30094  15.882  11.301   3.782 -0.0644 -0.1138  0.0232
13961W        W30095  13.644   3.706   2.896 -0.0455 -0.1239  0.2237
13962W        W30096   5.250   7.561   4.329 -0.4188  0.2127  0.2885
13963W        W30097   1.974  10.696  15.814 -0.1697 -0.3198  0.1200
13964W        W30098   5.789   3.745   2.051 -0.1589 -0.0463  0.4846
13965W        W30099  14.440   8.860   6.091 -0.0331 -0.0823 -0.1104
13966W        W30100  17.423   1.920  15.667 -0.1477  0.0658 -0.0844
13967W        W30101  13.516   0.161  13.828  0.1399 -0.2637  0.0021
13968W        W30102   7.069  17.039  14.702  0.2835 -0.2450 -0.0295
13969W        W30103   3.379  15.734   1.858  0.0361 -0.0351 -0.0967
13970W        W30104   5.535  10.464  16.021 -0.0913 -0.0375 -0.1189
13971W        W30105   8.686  12.529   5.713  0.2078  0.1662  0.1189
13972W        W30106  10.747  15.763   0.109  0.0983  0.1246 -0.0075
13973W        W30107  16.985   5.130  11.811  0.1579 -0.1955  0.0095
13974W        W30108   7.823   9.862   4.678 -0.4041 -0.0591 -0.1353
13975W        W30109  15.615   3.020   4.412  0.2480  0.0861 -0.0790
13976W        W30110   2.882  15.058   4.969 -0.0549  0.0718 -0.1178
13977W        W30111  13.363  11.232  12.339  0.2000 -0.2013 -0.0887
13978W        W30112   1.368   4.442   3.512  0.2898 -0.2122 -0.1303
13979W        W30113   5.270  17.508  14.358 -0.1960  0.2223  0.2010
13980W        W30114   5.224  14.595   1.181 -0.0182  0.0844 -0.0527
13981W        W30115  16.001   1.036  15.689  0.0021 -0.0605 -0.0639
13982W        W30116  11.763  13.064   2.697 -0.0580  0.4111 -0.1859
13983W        W30117   0.870  11.809   5.139  0.0550 -0.1798 -0.0090
13984W        W30118   8.889   9.550  10.638  0.1056  0.1422 -0.4214
13985W        W30119   8.600   5.772   3.226  0.2989  0.1133  0.2528
13986W        W30120   2.840  14.118  14.464 -0.2706  0.2484 -0.0835
13987W        W30121   1.475  15.838  14.624  0.3061  0.0401 -0.3290
13988W        W30122  13.695   2.117   1.666 -0.1286  0.0201 -0.1553
13989W        W30123  13.441  12.248  13.680  0.3627 -0.1943 -0.0087
13990W        W30124   3.507   7.416   0.127 -0.0407 -0.2722  0.0853
13991W        W30125   8.862   8.094  14.801 -0.1985 -0.1417 -0.2753
13992W        W30126  11.583   9.736   3.184 -0.2921  0.1700  0.2838
13993W        W30127   9.520   8.110  15.365  0.1556 -0.0237 -0.1408
13994W        W30128  15.451   4.777  12.031 -0.2664  0.1500 -0.2782
13995W        W30129  17.212  12.277  14.629 -0.4506 -0.2179  0.0546
13996W        W30130  17.590   4.240  16.317 -0.1506  0.2759  0.1571
13997W        W30131   3.892  13.403   5.135  0.0533  0.1375 -0.0762
13998W        W30132   3.689  16.204   1.742 -0.0645  0.2307 -0.2153
13999W        W30133   4.917  11.097  14.671  0.3593 -0.1346 -0.4292
14000W        W30134  14.308   1.279   4.867  0.0691 -0.0045  0.0118
14001W        W30135  10.616  11.283   1.630  0.1841  0.2843 -0.0143
14002W        W30136   2.949   6.248   4.373 -0.0367  0.0550 -0.2182
14003W        W30137  16.204  14.641  11.242  0.2292 -0.0966  0.0996
14004W        W30138  14.184   1.630   2.220  0.2435 -0.1963 -0.0531
14005W        W30139  13.861   9.479   2.527 -0.1251  0.1566 -0.1399
14006W        W30140   7.618  13.577   3.739  0.1569 -0.1310  0.0131
14007W        W30141  17.214   9.682   1.012 -0.0392  0.1227  0.0154
14008W        W30142   4.570  10.587   4.992 -0.0674 -0.0964 -0.2098
14009W        W30143   4.945   3.034  10.688  0.3885  0.0747 -0.1314
14010W        W30144  12.293  17.862  11.469 -0.0123  0.0726  0.1780
14011W        W30145  10.513   6.853   1.297  0.0186  0.0859 -0.0394
14012W        W30146   8.218   2.960  11.441 -0.0317  0.4833 -0.2428
14013W        W30147   1.995   1.375   3.373  0.1573 -0.0745  0.3026
14014W        W30148   5.082  12.691  12.625  0.0332  0.2116 -0.0614
14015W        W30149   2.897  15.970  12.377  0.3591 -0.2775 -0.0307
14016W        W30150   7.974  12.233   3.793  0.0319  0.1008 -0.0870
14017W        W30151  15.938   9.838   0.349  0.3159  0.3526 -0.0032
14018W        W30152   3.390   8.425   2.449 -0.2467 -0.2232  0.2227
14019W        W30153   6.467  12.391  15.304  0.2085  0.1891 -0.0424
14020W        W30154   5.037   2.763   2.492  0.0353  0.3211 -0.0919
14021W        W30155   7.160   0.227   1.341 -0.0624  0.0674 -0.0642
14022W        W30156  14.047  16.770   2.616 -0.1486  0.1305 -0.0091
14023W        W30157   5.468   1.629  14.668  0.3022 -0.3900  0.0319
14024W        W30158   5.309  14.441   4.722 -0.1575 -0.1422  0.0408
14025W        W30159  13.793   0.903   2.678 -0.3831 -0.0214  0.2537
14026W        W30160  11.254  14.576  14.071  0.2337 -0.1789  0.1906
14027W        W30161   1.647   3.716   5.258  0.0758 -0.0802  0.0515
14028W        W30162   4.347   8.702   0.070 -0.0204  0.0423 -0.2179
14029W        W30163   3.499  18.009   1.796  0.1251  0.3010 -0.0693
14030W        W30164   3.082  17.602  13.064 -0.1461 -0.1360 -0.0011
14031W        W30165   5.092   6.470   2.592 -0.0013 -0.2500  0.0403
14032W        W30166   6.825  15.350   1.818 -0.0460  0.1254 -0.0833
14033W        W30167  10.194  11.476  12.496  0.1393  0.3846 -0.2587
14034W        W30168  12.240  10.695  13.693 -0.0572 -0.2006  0.0259
14035W        W30169  16.402   9.146  11.279  0.2014 -0.0849 -0.0806
14036W        W30170  14.627   8.314   1.177 -0.1522  0.1664  0.0363
14037W        W30171   7.740  16.239   4.684 -0.2203  0.3902  0.0902
14038W        W30172  12.803  10.935  15.081  0.2632  0.1288  0.1782
14039W        W30173  15.012   7.633  14.866  0.2205 -0.1953 -0.3662
14040W        W30174  14.136  16.488  12.530  0.1289  0.0240  0.0352
14041W        W30175  16.826  13.956  13.483 -0.1068  0.2257  0.1603
14042W        W30176   2.468  16.634   4.490  0.0699  0.4625  0.5292
14043W        W30177   2.290  11.348   0.519  0.3397  0.2078  0.0117
14044W        W30178   9.037   5.918  14.645  0.1643  0.0525 -0.0168
14045W        W30179   8.369   5.264   3.338  0.3492  0.0567 -0.0695
14046W        W30180   5.907   3.280  16.248 -0.1535  0.1640 -0.2807
14047W        W30181   7.062   5.294  11.351 -0.0975  0.1174  0.0874
14048W        W30182  16.301   6.561   0.160 -0.0512  0.2795 -0.1076
14049W        W30183  10.490   5.172  15.792 -0.1975 -0.0324 -0.0542
14050W        W30184   2.790   1.738  15.675  0.0320 -0.0767 -0.1472
14051W        W30185   9.654   6.692   2.226 -0.2037  0.0996 -0.0337
14052W        W30186   8.806  12.485   5.025  0.2164  0.1155 -0.3425
14053W        W30187   9.211  11.473   1.904 -0.0107  0.0645 -0.2963
14054W        W30188   5.497  16.237   3.281  0.4651 -0.4628  0.1732
14055W        W30189   3.060  15.787  14.311  0.2868  0.1452 -0.1137
14056W        W30190   5.239  15.415   0.401 -0.0828 -0.2320  0.2132
14057W        W30191  18.045  13.145   0.372 -0.2566  0.3010  0.0309
14058W        W30192   3.450   7.601  15.241 -0.0427 -0.0158  0.1923
14059W        W30193   0.416  15.291   3.776 -0.0016  0.1073  0.0385
14060W        W30194  13.961   0.762   5.655  0.0736 -0.1143  0.1858
14061W        W30195  16.535  11.844  11.276  0.1560  0.0082  0.1119
14062W        W30196  16.830   6.855   2.026  0.0702  0.2057  0.1046
14063W        W30197  15.511  12.829  11.466 -0.0568 -0.1991 -0.0307
14064W        W30198   4.788  13.667  11.338  0.0670 -0.2476  0.1238
14065W        W30199   2.613  16.011   2.088 -0.1550 -0.1995 -0.2296
14066W        W30200   4.061   4.888  11.048 -0.0055 -0.1777 -0.3284
14067W        W30201   1.737   8.593   0.413  0.0758  0.1925  0.1869
14068W        W30202   9.438  10.483  11.948  0.0686 -0.1597  0.1825
14069W        W30203  14.661   4.819   3.344 -0.3666  0.0934  0.1386
14070W        W30204   8.887   1.275   5.325 -0.1559 -0.0300  0.2052
14071W        W30205  16.303  12.334  12.864  0.0722 -0.1945  0.0226
14072W        W30206  17.440  15.972   4.595 -0.0169  0.0897  0.1376
14073W        W30207   6.017  10.667  15.838 -0.0432  0.0728  0.1020
14074W        W30208   2.014   9.447  15.848 -0.0241 -0.0391 -0.3563
14075W        W30209  13.749   9.068   3.364 -0.3096 -0.1425  0.0600
14076W        W30210   8.534  13.137  14.027  0.0448  0.0210  0.3338
14077W        W30211   2.591   2.728  16.061 -0.0082 -0.1465 -0.1062
14078W        W30212   7.576  16.801   5.540 -0.0119  0.1685 -0.2076
14079W        W30213  12.511   2.203  11.431  0.0514  0.2870  0.0887
14080W        W30214  13.065  17.781   2.431  0.2839  0.1852 -0.1964
14081W        W30215   7.271   4.520   2.732 -0.0004  0.0335  0.0827
14082W        W30216   9.417   4.560  15.052  0.0959 -0.0359 -0.1469
14083W        W30217  11.351   7.369  13.485  0.1038  0.0868  0.0340
14084W        W30218  14.531  14.853   5.014  0.1360 -0.1610 -0.1011
14085W        W30219   7.123   9.034  14.435  0.2411 -0.3050 -0.0184
14086W        W30220   7.150  14.920  15.802  0.0769 -0.2674 -0.1718
14087W        W30221  11.728  14.916   2.123 -0.0493  0.0713 -0.3624
14088W        W30222   1.697   2.762   2.059 -0.2051  0.3597 -0.2187
14089W        W30223  13.691   8.846   1.880  0.0089  0.2064  0.0175
14090W        W30224  14.274  11.259  15.894  0.1963  0.1604  0.0816
14091W        W30225   7.043   6.551   3.343 -0.0638  0.0145 -0.1774
14092W        W30226  14.121  15.620  13.785  0.0574  0.1696 -0.2200
14093W        W30227   6.668  16.069   3.585 -0.0903  0.2262 -0.0618
14094W        W30228  13.190   9.655   4.351 -0.0966 -0.0993 -0.0214
14095W        W30229  15.151   3.586   2.725  0.0926 -0.1351  0.0644
14096W        W30230   5.276   4.061   4.259 -0.0905  0.0722  0.2556
14097W        W30231   8.427   3.468  14.734  0.1979  0.0157  0.1225
14098W        W30232   8.398  13.477  11.685  0.0432 -0.1418 -0.1407
14099W        W30233   7.726  14.653   0.253 -0.1811 -0.0774  0.1272
14100W        W30234   9.186   7.910   4.578  0.3246  0.2016 -0.0897
14101W        W30235  15.584  15.430  12.650  0.2180 -0.1430 -0.0981
14102W        W30236   1.687   0.738   5.084  0.0821 -0.3167  0.2193
14103W        W30237   7.033   9.897  13.284 -0.2740  0.1839 -0.0050
14104W        W30238  15.605  15.889  12.919 -0.2284 -0.1666 -0.0335
14105W        W30239   0.633  15.229  11.698  0.0757 -0.2088  0.1213
14106W        W30240  15.679  15.631  14.920 -0.0612  0.1703 -0.0672
14107W        W30241  15.626  14.025   2.189  0.0829  0.1253 -0.1349
14108W        W30242  12.533   6.110  15.846  0.1342 -0.1792  0.2157
14109W        W30243  10.988   8.165  15.306  0.1089 -0.1662  0.0238
14110W        W30244  11.319   4.054   0.524 -0.2060  0.0527 -0.3410
14111W        W30245   3.959   7.152  11.971  0.0433  0.2439  0.3013
14112W        W30246   5.545   4.308   3.380  0.0343 -0.0967  0.0263
14113W        W30247   2.826   0.265  14.992 -0.1329 -0.2529  0.1760
14114W        W30248   9.117  17.645   1.528  0.0396  0.1858  0.1211
14115W        W30249   8.587   9.933   4.023 -0.0916 -0.1830 -0.0236
14116W        W30250   3.603   2.384  14.024  0.0669 -0.3916 -0.1247
14117W        W30251  15.602   0.828  14.844  0.1407  0.3112  0.1502
14118W        W30252  17.833   5.348   1.342  0.3623  0.2108  0.1898
14119W        W30253   5.085  13.029   2.204 -0.0928 -0.0010 -0.1065
14120W        W30254   5.501   5.104   5.085 -0.0166 -0.1344  0.1975
14121W        W30255   4.106   0.535  15.173 -0.6194 -0.0672 -0.1522
14122W        W30256   5.415   6.760   4.879 -0.0447 -0.0164  0.3594
14123W        W30257   2.265  15.233  14.774 -0.2426 -0.1343  0.0343
14124W        W30258  17.821   5.011  11.546  0.0772  0.0614  0.0044
14125W        W30259   3.532  15.926   5.761 -0.0813  0.0506 -0.3308
14126W        W30260  12.425  12.316  12.488  0.0513  0.0629  0.1183
14127W        W30261   1.154  14.781   0.854  0.2822 -0.2165  0.1897
14128W        W30262   5.102   7.985  13.066  0.0634  0.2827 -0.1295
14129W        W30263  12.655   2.980   1.934  0.0491 -0.1215  0.3066
14130W        W30264   8.678  12.660  11.676  0.1594  0.3051  0.0100
14131W        W30265  16.729  13.057  13.402  0.0632  0.2570  0.0172
14132W        W30266  17.133   0.970   5.429  0.0032 -0.1715  0.2809
14133W        W30267  12.479   9.043   0.592 -0.2825 -0.0271 -0.0308
14134W        W30268  17.331   5.372  15.769 -0.0178 -0.2901  0.1600
14135W        W30269   8.221  17.953  12.410 -0.1554  0.2691 -0.0297
14136W        W30270   3.730   9.841  11.201  0.2642  0.1304  0.0315
14137W        W30271  10.867   0.762  15.335  0.3377 -0.0671  0.0044
14138W        W30272  16.125  17.689   1.240 -0.0451 -0.0322  0.0299
14139W        W30273  14.262   4.297  11.900 -0.3768 -0.1645 -0.1684
14140W        W30274   8.903   1.620  11.147 -0.0674 -0.1361 -0.4285
14141W        W30275  10.524   9.074   4.644  0.1575 -0.0915 -0.2182
14142W        W30276   8.361  14.377  11.411 -0.0194 -0.2185 -0.3790
14143W        W30277   4.892   4.500   4.612 -0.0063  0.1870  0.2532
14144W        W30278  14.432   9.799   3.625 -0.0868  0.0280 -0.3835
14145W        W30279  16.394  15.848   1.863 -0.1009 -0.0931 -0.0124
14146W        W30280  17.919   3.963  12.035 -0.1387  0.0465 -0.1158
14147W        W30281   3.236   9.145   1.945  0.1857 -0.0867  0.4896
14148W        W30282   2.343  11.775   5.128 -0.3826 -0.1103  0.1371
14149W        W30283  15.267  17.843  12.053  0.1556 -0.1578 -0.0920
14150W        W30284   6.217  11.534   4.450 -0.0571  0.0600  0.0534
14151W        W30285  15.237  15.367  15.114 -0.2455 -0.2378 -0.1236
14152W        W30286  11.661   2.367  11.973 -0.0153 -0.0120 -0.2406
14153W        W30287   2.830   4.249  15.881 -0.0574 -0.1716  0.3023
14154W        W30288   5.379  14.971  15.466 -0.4289 -0.0205 -0.1798
14155W        W30289   8.580   6.911   0.867 -0.2015 -0.0193 -0.4088
14156W        W30290   6.909   2.241   3.003  0.1212  0.0373  0.1372
14157W        W30291   4.208  17.768  14.046  0.1270 -0.1352 -0.0046
14158W        W30292   5.918  14.275   3.998  0.2698  0.1142 -0.0337
14159W        W30293  11.583   7.357   0.580  0.0861 -0.0860  0.0411
14160W        W30294  16.183   1.616   2.867  0.0454  0.0191  0.2434
14161W        W30295  13.097  10.184  11.854  0.3290 -0.2872 -0.3076
14162W        W30296   9.461  14.068  12.794 -0.1838 -0.0589 -0.0056
14163W        W30297  17.565  14.767  13.847 -0.0920  0.0419  0.1557
14164W        W30298   1.111  13.708  15.092  0.2445  0.0187  0.2090
14165W        W30299   3.159   6.194  12.882 -0.1307  0.0676 -0.1143
14166W        W30300  10.343  10.272   0.857  0.1240  0.0871  0.2455
14167W        W30301   2.105   7.238  14.558  0.2232  0.0241 -0.0924
14168W        W30302   9.548   6.362  16.365 -0.0386  0.1316  0.0955
14169W        W30303  17.774  11.595  14.576  0.1359 -0.2574  0.1417
14170W        W30304   9.233  11.205   4.194  0.0600  0.1524 -0.1910
14171W        W30305  14.224  10.945  12.759  0.3665  0.0414  0.1531
14172W        W30306   8.839   3.540   3.033  0.1707  0.0526 -0.1449
14173W        W30307  10.620   0.424  11.785  0.0348 -0.2109 -0.0059
14174W        W30308   4.778   4.394  15.036 -0.2564  0.2450  0.2758
14175W        W30309  12.918  13.628  12.630 -0.1653 -0.2543  0.0492
14176W        W30310  13.335  15.660   2.626  0.1732  0.4347 -0.3794
14177W        W30311   1.528   0.738   6.041  0.2284  0.1603  0.2710
14178W        W30312   9.819   7.549   4.117  0.4342 -0.1339 -0.2114
14179W        W30313   3.583  12.778   0.180  0.1167  0.3852 -0.0503
14180W        W30314  10.705   9.660  15.223 -0.1014  0.2761 -0.3174
14181W        W30315  16.506  10.200  13.833  0.2549 -0.0687 -0.0735
14182W        W30316   6.171   7.826  12.367 -0.3126  0.2159 -0.0301
14183W        W30317   0.613   9.284  13.554 -0.0074 -0.0679 -0.1419
14184W        W30318   3.765  10.623  12.168  0.2136  0.3684 -0.1509
14185W        W30319   7.533  14.042  11.207  0.2233 -0.2557 -0.2984
14186W        W30320  10.229   3.646  12.537 -0.1235 -0.1010  0.1599
14187W        W30321   2.284  10.330  15.337 -0.1360 -0.1253  0.2031
14188W        W30322   5.240  16.318  13.572 -0.0074  0.1478 -0.1622
14189W        W30323   3.140   0.589   5.713 -0.3572 -0.1228 -0.0903
14190W        W30324   2.269  14.143  14.123 -0.0739  0.0821 -0.0510
14191W        W30325  17.968  13.402   5.434 -0.0738  0.1242 -0.4204
14192W        W30326   3.232   1.114   5.230 -0.1638  0.2166 -0.2287
14193W        W30327   0.949  14.407  10.915 -0.0068  0.0917 -0.1606
14194W        W30328  14.552   3.159  12.532 -0.3220 -0.1531  0.1514
14195W        W30329   7.206   9.736   3.458 -0.3434  0.0544 -0.0040
14196W        W30330   6.894   5.318   2.777  0.2108 -0.1019  0.0185
14197W        W30331  15.362  15.920   3.227  0.2412  0.1109  0.2375
14198W        W30332   7.846  17.751  11.502 -0.1730 -0.1800  0.0744
14199W        W30333  17.715   9.980   3.572 -0.2388  0.1410  0.2704
14200W        W30334   1.096   7.500  12.763 -0.1641 -0.3242  0.2912
14201W        W30335   6.095  11.363   1.902  0.1065 -0.1385  0.1712
14202W        W30336  13.170  10.644   2.250  0.0984  0.1293 -0.0595
14203W        W30337   9.463  12.195   2.808 -0.1077  0.0237  0.0828
14204W        W30338   3.563   3.158  15.178  0.0016 -0.0970  0.0995
14205W        W30339   4.787   6.037  12.877  0.1036 -0.0039 -0.0064
14206W        W30340   5.066  16.909   4.529  0.2322  0.2457  0.0347
14207W        W30341  14.994   9.172  13.561  0.0751  0.0204  0.0459
14208W        W30342  13.407  12.906   4.113 -0.4418 -0.0113 -0.0647
14209W        W30343   6.020   3.551  10.923  0.1143  0.2247 -0.1152
14210W        W30344   4.375   6.671  14.214 -0.0999  0.0654 -0.2308
14211W        W30345   1.338   5.008   3.093  0.0850 -0.0078  0.0661
14212W        W30346  14.485  15.050  14.892 -0.0805 -0.0442  0.3153
14213W        W30347  14.610  15.033  14.396  0.0765 -0.1129 -0.1318
14214W        W30348  10.937   6.028   2.121 -0.1584  0.1154  0.1445
14215W        W30349   1.851   3.705   4.805  0.0238 -0.0854 -0.2091
14216W        W30350   7.098  10.297  14.057 -0.0242  0.0962  0.0968
14217W        W30351  14.202  15.711  13.028  0.3169 -0.0471 -0.1612
14218W        W30352  17.546   0.126  11.806 -0.0189 -0.1043  0.2684
14219W        W30353  12.379  13.602  15.920 -0.1078  0.1158 -0.0053
14220W        W30354  14.270   3.354   0.039 -0.0347 -0.0312 -0.1217
14221W        W30355  17.260   0.878  14.326  0.0635 -0.3254 -0.0665
14222W        W30356   5.913  16.550   0.399  0.1842 -0.1141 -0.0089
14223W        W30357  16.720   9.882  12.923 -0.0571 -0.1486  0.0003
14224W        W30358   9.000   8.830  13.535  0.0379  0.1220 -0.3636
14225W        W30359  16.823   6.612  14.521 -0.2551 -0.0295  0.1716
14226W        W30360   2.583   6.692   0.889 -0.0210 -0.1870 -0.0034
14227W        W30361   8.004  17.774  13.563  0.0103 -0.1463  0.2129
14228W        W30362   9.482  12.932  12.491  0.0083  0.2172  0.1051
14229W        W30363  15.112  12.032   0.486  0.1657 -0.0866 -0.1956
14230W        W30364   1.317  10.419  15.125 -0.0457 -0.1769  0.0314
14231W        W30365   1.749  16.060  11.206  0.1862 -0.1484  0.0041
14232W        W30366   5.912   4.497  13.824 -0.0748 -0.1652 -0.1120
14233W        W30367  12.405  13.591   1.104  0.1604 -0.0223 -0.2273
14234W        W30368   2.393  13.257  12.034 -0.2577 -0.0450 -0.1852
14235W        W30369   7.166  12.811   5.605  0.1294  0.0587 -0.0395
14236W        W30370   7.941  13.402  13.237  0.0288 -0.1077 -0.1548
14237W        W30371   0.679  17.885   0.034 -0.1237  0.0250 -0.0042
14238W        W30372   4.371  13.639  11.716 -0.0603  0.1992 -0.0557
14239W        W30373  12.985   6.653  13.804 -0.0529  0.0451  0.1790
14240W        W30374   3.341   3.759  12.873  0.0327  0.0256 -0.0301
14241W        W30375   8.103   6.689  12.140 -0.0524  0.1099  0.4506
14242W        W30376   1.014   6.587   1.591  0.0356 -0.1092  0.1533
14243W        W30377   0.949   8.463  14.858 -0.1598  0.0981 -0.0667
14244W        W30378   8.313  16.766  14.186 -0.0362 -0.2166 -0.2132
14245W        W30379  15.599   9.723   2.070 -0.1631 -0.0747  0.2013
14246W        W30380  12.640  13.253  15.701 -0.0535 -0.1481 -0.0158
14247W        W30381   1.631   8.866   1.250 -0.0589  0.3711  0.0583
14248W        W30382  11.629   6.932   2.315  0.0995 -0.0828 -0.0026
14249W        W30383   9.418  12.719  14.915  0.0832  0.1441 -0.0781
14250W        W30384   0.145   7.202  13.456  0.2355  0.0305 -0.0694
14251W        W30385   0.348   8.039  13.136  0.0545  0.0250  0.0931
14252W        W30386   6.037   3.690   3.777  0.0929  0.1092  0.1567
14253W        W30387  14.312   2.375  11.132 -0.1600 -0.1260  0.1587
14254W        W30388   7.342   2.135  15.199 -0.1575  0.0320 -0.3351
14255W        W30389  15.684  16.330  12.552  0.1426 -0.0162 -0.0022
14256W        W30390   7.911  12.235  11.209 -0.0742  0.0519  0.1364
14257W        W30391   8.198  10.493   1.302  0.0544  0.2185 -0.2425
14258W        W30392   7.016  10.484   1.519 -0.0476  0.0592  0.2403
14259W        W30393   9.761   7.440  13.172 -0.3694  0.0628 -0.0066
14260W        W30394   3.038   3.377  15.982 -0.1592 -0.1532 -0.0339
14261W        W30395   4.762  11.532   1.741 -0.1254 -0.1198 -0.1383
14262W        W30396   3.146  11.830   1.128 -0.1037 -0.0235 -0.1694
14263W        W30397  14.769  12.260  15.257 -0.0095 -0.2056  0.3207
14264W        W30398   8.374   4.934  16.204  0.2450  0.0402  0.1103
14265W        W30399  17.549  13.199  15.858 -0.2101  0.2460  0.0153
14266W        W30400   7.198  12.215   1.892 -0.1005 -0.1889 -0.0654
14267W        W30401  10.497   2.719  15.738  0.0930 -0.0055 -0.0270
14268W        W30402  16.263   1.400   2.368  0.0585 -0.2387 -0.2959
14269W        W30403   0.228  16.307   1.859  0.1473  0.1986 -0.1056
14270W        W30404   4.807   0.125  11.049 -0.0971  0.0406  0.0655
14271W        W30405  14.187  14.711  12.789  0.0894 -0.0582  0.2348
14272W        W30406   5.936  12.786   4.735 -0.0702  0.0605  0.0407
14273W        W30407   1.550   3.351  15.432 -0.0627 -0.0138  0.1193
14274W        W30408  13.012   3.794   0.278  0.1248  0.0565  0.1533
14275W        W30409  16.800  10.463   0.765 -0.1453 -0.2441 -0.1971
14276W        W30410   4.546   1.630   0.048  0.1464  0.1301  0.1244
14277W        W30411  10.779   3.068  15.033 -0.0900 -0.0965  0.0163
14278W        W30412   2.645  12.238   5.257 -0.0712 -0.0604  0.0721
14279W        W30413   7.885   1.963   1.155 -0.0971  0.2070 -0.1704
14280W        W30414   3.480   3.526   0.436  0.2708 -0.1138  0.0167
14281W        W30415   6.793  15.853  14.731 -0.0116  0.2550 -0.2901
14282W        W30416  12.418  12.019   4.593 -0.1046  0.0187 -0.4488
14283W        W30417   3.235  10.748   1.817  0.0036 -0.2729 -0.0639
14284W        W30418   8.912   5.217  14.639 -0.1698  0.3754  0.2215
14285W        W30419   3.790  17.295   5.590 -0.0522  0.1444 -0.1621
14286W        W30420   3.450   9.671  14.692 -0.3242  0.1969 -0.1081
14287W        W30421   1.822  16.550   3.844 -0.0179  0.1738 -0.2594
14288W        W30422  13.667   3.179   2.930 -0.0685  0.1660  0.1998
14289W        W30423  14.573  12.176   0.416 -0.2951  0.0254 -0.1959
14290W        W30424  17.523   5.353   0.176 -0.2953 -0.0163  0.1510
14291W        W30425  15.179  17.650   1.502  0.1980  0.0894 -0.2157
14292W        W30426   3.328  13.253  13.071  0.1036 -0.1067  0.2648
14293W        W30427   8.391   1.842  14.251 -0.2238 -0.5258 -0.0440
14294W        W30428  12.568   6.034   3.846 -0.3759  0.1179 -0.0474
14295W        W30429  13.016   1.549  14.158 -0.2182  0.3882 -0.2317
14296W        W30430   6.318  15.367  13.896  0.2216  0.2653  0.1774
14297W        W30431  12.072   8.830   3.186 -0.2007 -0.0016 -0.2085
14298W        W30432   4.170   0.591   1.670  0.0060  0.4719  0.2774
14299W        W30433  12.672  15.035  13.189 -0.0709 -0.0416 -0.1877
14300W        W30434   5.665  11.028  16.131  0.1296 -0.0940  0.1369
14301W        W30435   5.975  16.825   1.221 -0.1031 -0.3105 -0.1088
14302W        W30436   8.038   7.924   1.569 -0.0542 -0.1691  0.1873
14303W        W30437   1.290   0.192   0.021  0.2174 -0.0652  0.0289
14304W        W30438   1.710   9.520  11.193  0.3355 -0.0598  0.2461
14305W        W30439   4.969   2.094  13.157  0.0260 -0.1219 -0.0225
14306W        W30440  10.827  17.807  14.009  0.3629  0.2981  0.0218
14307W        W30441   1.322   3.724  12.020  0.1341  0.1416 -0.0281
14308W        W30442   3.063   6.253   5.901 -0.3231  0.1429 -0.1476
14309W        W30443   7.622   0.260   1.621  0.0171 -0.0216 -0.1442
14310W        W30444   0.775   2.704   2.604  0.0577  0.2130 -0.1592
14311W        W30445   0.748  11.870  15.444 -0.2188 -0.2335 -0.1649
14312W        W30446   8.856   6.832   1.913 -0.0018  0.0570 -0.1717
14313W        W30447   2.877  12.348  13.434 -0.2680  0.0259  0.5601
14314W        W30448   3.648   8.691  13.360  0.1849 -0.1019 -0.2596
14315W        W30449  13.386   7.481   0.391  0.2521  0.3528  0.4485
14316W        W30450   6.962  10.450   1.006 -0.0825  0.1933 -0.1042
14317W        W30451  16.287   9.457  12.093 -0.0119  0.0273  0.2077
14318W        W30452   8.488   9.064  15.173 -0.0180 -0.0081 -0.0387
14319W        W30453   8.625  16.792   2.885  0.1953 -0.1619 -0.0573
14320W        W30454   0.339   3.234   0.309 -0.0618  0.2413  0.0817
14321W        W30455  17.946  17.334   5.567  0.2622 -0.0162  0.2361
14322W        W30456  11.850  15.240   4.176  0.0559  0.1503  0.0478
14323W        W30457   4.291  14.733  11.556  0.0644  0.2022  0.1346
14324W        W30458   3.897   4.748  13.691 -0.0398 -0.1203 -0.1623
14325W        W30459   7.811   6.128  15.784  0.1036  0.1186 -0.2298
14326W        W30460   8.634   0.820   3.338  0.2209  0.0717 -0.0138
14327W        W30461   5.277   8.944   0.777 -0.2115 -0.0868  0.0040
14328W        W30462   8.960   6.705   2.914 -0.1548 -0.1410 -0.1406
14329W        W30463  16.007   1.198  11.946  0.3230  0.2288 -0.0094
14330W        W30464   7.620   3.623  12.574 -0.0455  0.1670  0.1277
14331W        W30465   2.166  10.811   5.376 -0.0956 -0.1567  0.1219
14332W        W30466   3.867   7.549   4.259 -0.1114  0.1125 -0.0960
14333W        W30467   0.277   5.929   2.054  0.1523 -0.0171  0.0693
14334W        W30468   0.527   3.415   2.263  0.1419  0.2398  0.0449
14335W        W30469  15.601   9.558   0.725 -0.0727  0.0088  0.1734
14336W        W30470   5.903   7.119   4.802  0.0909  0.3618  0.3404
14337W        W30471   0.655  17.361   1.561 -0.1961  0.0925 -0.0032
14338W        W30472   0.542   7.619  14.998 -0.0936 -0.0262 -0.0850
14339W        W30473   4.039   7.102  15.132 -0.0104  0.0032  0.0433
14340W        W30474   3.186  11.449   5.070 -0.3486 -0.0785  0.0605
14341W        W30475  12.130  11.409  14.531 -0.2094 -0.3388 -0.1645
14342W        W30476  13.116  17.533   5.643 -0.1866  0.2871  0.0352
14343W        W30477  16.993   4.675   2.490 -0.1812 -0.1314  0.1379
14344W        W30478   7.879  10.317   1.698 -0.0414  0.2242  0.0025
14345W        W30479   0.697  15.411   4.900 -0.1001  0.0016 -0.1492
14346W        W30480   3.882   5.057  14.551  0.0754  0.0728  0.0617
14347W        W30481   9.248  17.299   5.488 -0.3192  0.0306 -0.0321
14348W        W30482   6.015   5.862   0.363  0.2293  0.1551  0.0398
14349W        W30483  17.102   7.106  11.986  0.3854 -0.2065  0.0591
14350W        W30484  14.848   4.785   4.584  0.0145  0.4039 -0.0770
14351W        W30485  17.194   4.274  14.377  0.1242 -0.1511 -0.1369
14352W        W30486  12.885  10.065  13.881 -0.0084 -0.2534  0.2713
14353W        W30487   8.018  13.270  11.149  0.0752  0.0979 -0.1070
14354W        W30488  14.233   3.231  10.390 -0.0189 -0.1193  0.2607
14355W        W30489   7.176   2.387  13.684  0.0808  0.0705  0.0085
14356W        W30490  12.015   4.012   0.610 -0.0364  0.0529  0.0336
14357W        W30491  10.862  10.465   4.645  0.1794  0.0500  0.0498
14358W        W30492   7.710   7.246  15.759 -0.2927  0.0588 -0.1079
14359W        W30493   7.989   9.330   5.472  0.1308  0.0398  0.1183
14360W        W30494   8.235   8.078   2.700  0.0289 -0.1995 -0.2347
14361W        W30495  12.019  17.388  11.897  0.2114  0.1028  0.0015
14362W        W30496   8.513  11.919  13.498 -0.4870 -0.2522 -0.0349
14363W        W30497   0.351   8.546   5.684 -0.1648 -0.0362 -0.1562
14364W        W30498   4.694   3.078   1.209 -0.0971  0.0820 -0.1536
14365W        W30499   1.948  11.927   4.420  0.0989  0.1488 -0.1326
14366W        W30500  13.430  10.213   3.941 -0.1789 -0.0651 -0.2110
14367W        W30501  14.059   7.164  13.076  0.2503  0.1811 -0.1580
14368W        W30502   5.737   5.074  13.858  0.0055 -0.1849  0.2818
14369W        W30503   4.169   3.174   1.210 -0.1423 -0.0902 -0.0880
14370W        W30504  16.185  11.371   4.594 -0.0583 -0.0661  0.0271
14371W        W30505  12.505  11.941   0.972  0.0705  0.2821  0.1309
14372W        W30506   7.465   7.622   5.065 -0.2023 -0.2982 -0.1018
14373W        W30507   9.022   6.639   4.552  0.3325 -0.1265  0.0558
14374W        W30508  10.663  11.816   0.186 -0.1002  0.1968 -0.2552
14375W        W30509  14.854   6.653  13.468 -0.0519 -0.0016 -0.0956
14376W        W30510   0.358   7.193   2.836  0.3101 -0.0439 -0.0132
14377W        W30511  11.844  13.436  14.812  0.1773 -0.3212 -0.0259
14378W        W30512   1.250  11.210  14.989  0.1655 -0.2820  0.1101
14379W        W30513   8.188  13.018  15.485 -0.3821  0.1638  0.0845
14380W        W30514   1.177   0.658  16.311  0.0917 -0.0829 -0.1614
14381W        W30515   6.662   1.690   4.523 -0.0970  0.1502  0.0226
14382W        W30516  17.605  16.162  15.371  0.1166  0.0157  0.0424
14383W        W30517  11.058  17.023  11.495  0.0010  0.0244  0.0899
14384W        W30518   7.627  17.037  14.728  0.1529 -0.0224 -0.1722
14385W        W30519   6.664  11.963   3.137 -0.1140 -0.0328  0.2649
14386W        W30520   0.309  13.789  12.863  0.1746 -0.0276  0.3054
14387W        W30521   7.914  14.961  16.338  0.0481 -0.0217 -0.0301
14388W        W30522   5.310  11.804   3.388 -0.0385  0.1183 -0.0654
14389W        W30523  13.459  13.166   5.142  0.1489 -0.2898 -0.1404
14390W        W30524   7.138  14.495   1.330  0.1786  0.1494 -0.1718
14391W        W30525  14.051  13.775   1.247  0.0659  0.2679  0.0962
14392W        W30526   4.941   1.493  14.770 -0.0497 -0.3385  0.0905
14393W        W30527   6.766  11.076   5.620 -0.0561 -0.2115  0.0388
14394W        W30528   9.673  17.480   0.683 -0.1747 -0.2778 -0.1460
14395W        W30529  10.628   6.869  13.742  0.0499 -0.1314  0.0031
14396W        W30530   1.332   6.263  15.010  0.0590 -0.3685 -0.0103
14397W        W30531  12.678   1.515  12.219 -0.1706  0.3641  0.1105
14398W        W30532  17.762  11.457   2.906 -0.4032 -0.1107 -0.0821
14399W        W30533  11.664   1.315  12.991  0.1364  0.2286 -0.2153
14400W        W30534  10.113   8.881   2.949 -0.1547 -0.1390 -0.0505
14401W        W30535   8.096   3.464  11.062 -0.0096 -0.0305 -0.1198
14402W        W30536   4.831  16.741  14.502  0.0971 -0.4104  0.0891
14403W        W30537  13.375   2.087   5.610  0.3416 -0.1439  0.1867
14404W        W30538  11.691   6.680  13.976  0.1027 -0.0044  0.1341
14405W        W30539  14.740   7.437   3.566  0.3433 -0.1615  0.0193
14406W        W30540   3.546  15.094  12.879 -0.0940  0.0902  0.2548
14407W        W30541   3.005   7.596   2.379  0.4346  0.0654 -0.3456
14408W        W30542   0.472   4.035  11.984  0.1696  0.1230 -0.1286
14409W        W30543  12.479   0.186  12.328  0.2083  0.0444  0.1325
14410W        W30544  17.371  11.703  15.404  0.0070  0.2319 -0.0768
14411W        W30545  11.330   9.549   4.326 -0.0361  0.0409  0.1221
14412W        W30546  16.049   3.410   2.655  0.0153  0.1927  0.3564
14413W        W30547   6.514   6.784  11.671 -0.2155  0.1922 -0.0460
14414W        W30548   7.150   9.993   3.026 -0.1929 -0.2020  0.0355
14415W        W30549   5.168   8.407  12.735 -0.2341  0.2575 -0.0070
14416W        W30550   4.278   5.914   0.701 -0.0450 -0.1172 -0.0849
14417W        W30551  15.094  15.692  12.845 -0.1593 -0.1762  0.0436
14418W        W30552  13.439   6.816  14.672  0.1901 -0.1337  0.2848
14419W        W30553   9.124   3.829  12.472  0.1441 -0.1875  0.0877
14420W        W30554  18.024   5.019  12.950 -0.0682 -0.1383 -0.2184
14421W        W30555  11.262  18.076  12.190 -0.1600 -0.0509  0.1258
14422W        W30556  13.764   3.585  12.264 -0.2447  0.2959 -0.1619
14423W        W30557   4.502   4.283  14.223 -0.1001 -0.0749 -0.1926
14424W        W30558  10.117  15.662  15.816  0.0120 -0.0520 -0.0314
14425W        W30559   9.546   7.239  11.852 -0.0926  0.1584 -0.2613
14426W        W30560   4.784  12.526  11.966 -0.4263  0.2658  0.1528
14427W        W30561   0.849  11.325  12.812  0.0378  0.0902  0.0336
14428W        W30562  13.570  11.498  11.406  0.0873 -0.2542 -0.2337
14429W        W30563  12.409  10.110  16.266  0.0443  0.2165  0.3068
14430W        W30564   6.619   7.924  14.620 -0.1180 -0.1290  0.0754
14431W        W30565  16.530   1.142  11.717 -0.1314  0.2475 -0.3548
14432W        W30566   3.604  13.780  16.267  0.0869 -0.2492  0.0338
14433W        W30567  16.122   6.368  13.684  0.1841  0.1329 -0.0348
14434W        W30568   0.555   7.282   1.993 -0.2971 -0.2048  0.2022
14435W        W30569   5.370  10.174   5.089 -0.2690  0.1896  0.1223
14436W        W30570  14.191  11.853  12.897 -0.1131 -0.0640  0.1991
14437W        W30571  15.152   2.238   4.058  0.0646  0.0615  0.0784
14438W        W30572   3.830   8.446  12.388 -0.3509 -0.1998 -0.0958
14439W        W30573  17.868  16.347   2.282 -0.4382 -0.1739 -0.0047
14440W        W30574   8.627  12.806   3.479  0.2805  0.0585 -0.1580
14441W        W30575  10.854  15.051  13.499 -0.0277 -0.0569  0.1093
14442W        W30576  16.907  16.779   2.311 -0.1836  0.1796  0.2550
14443W        W30577   5.431   8.127   3.558  0.1942 -0.0852  0.4333
14444W        W30578   4.435   1.956   1.937 -0.0410  0.0979 -0.0924
14445W        W30579   9.159  13.764   5.572  0.2990  0.1335 -0.2302
14446W        W30580   7.534  17.980  14.944  0.0897  0.0301  0.0491
14447W        W30581  17.445  10.124   1.645 -0.1526 -0.1470 -0.0806
14448W        W30582   1.378   2.621  12.513  0.1942  0.3022  0.2957
14449W        W30583   2.939  11.063  11.692  0.0508  0.0863  0.0855
14450W        W30584   1.355  13.368   4.428  0.0412  0.1149  0.0170
14451W        W30585  13.687   3.280  11.435  0.5244  0.1495 -0.0419
14452W        W30586   4.799   5.801  14.666  0.0798  0.4579  0.2026
14453W        W30587   2.490   8.707  12.899 -0.0307 -0.2105 -0.0175
14454W        W30588  16.630  14.359  14.174  0.1528  0.2404 -0.0228
14455W        W30589  12.641  12.006   1.849  0.0657  0.0242 -0.2228
14456W        W30590  12.700   0.527  11.959  0.3668 -0.3263 -0.3609
14457W        W30591   0.318  17.660   6.112  0.2746  0.3555  0.0530
14458W        W30592   2.040  12.788  16.261 -0.0123  0.0730 -0.2390
14459W        W30593  10.266  14.367  13.395  0.3523  0.2731 -0.0508
14460W        W30594   8.568   2.197   2.871 -0.3070  0.0836 -0.0431
14461W        W30595   0.199   5.146   5.460 -0.0446 -0.1391  0.1161
14462W        W30596   2.006   5.066   2.838  0.2593 -0.0791 -0.1869
14463W        W30597   3.937   1.088  12.789 -0.1966  0.1521  0.0425
14464W        W30598  17.016  17.594  13.152  0.0174  0.0856 -0.2572
14465W        W30599   2.361  14.619   6.101  0.0994  0.1411 -0.0504
14466W        W30600  11.419   8.178   0.056  0.0900  0.1104 -0.0815
14467W        W30601  17.509  15.975   3.503 -0.2589  0.1936  0.0031
14468W        W30602   9.497   3.278   0.634 -0.0922 -0.0991 -0.2965
14469W        W30603  17.703  14.558   2.687  0.0770 -0.3098 -0.0259
14470W        W30604   0.835  15.421   3.472 -0.0550 -0.1238 -0.1825
14471W        W30605  11.586  13.090   3.664 -0.1744 -0.0028  0.1532
14472W        W30606  11.707   2.715  11.534  0.0384 -0.1009  0.1116
14473W        W30607   8.600  15.278   4.673  0.2777  0.0425 -0.0965
14474W        W30608  10.382  10.518   5.479  0.0447  0.0938 -0.1726
14475W        W30609   9.867   7.835   1.186  0.2750  0.1163  0.2746
14476W        W30610   6.469   7.897   4.964  0.3219 -0.1593  0.0066
14477W        W30611  15.649  12.608  15.179  0.3740  0.0887 -0.3497
14478W        W30612   2.484   6.195   3.251 -0.2739 -0.1955  0.2839
14479W        W30613   2.863   0.221   4.964  0.0803 -0.1215 -0.2119
14480W        W30614  10.976  16.976   1.523  0.0177  0.1439  0.0637
14481W        W30615   0.087  17.215  15.330 -0.0252 -0.2316 -0.0757
14482W        W30616  12.828  12.573   6.173 -0.0573 -0.1344 -0.1455
14483W        W30617   6.448   2.952   5.401  0.0163 -0.1810 -0.0019
14484W        W30618   8.985   9.407  13.428  0.4460  0.1318  0.0005
14485W        W30619   8.418  13.834   1.996 -0.0520  0.0573 -0.1547
14486W        W30620  16.782   3.067  11.332  0.1420  0.0594 -0.1211
14487W        W30621   4.033  13.479   1.699 -0.0746 -0.1255  0.1377
14488W        W30622  13.751   2.940   1.776  0.1099  0.0295 -0.1158
14489W        W30623   7.374   4.686  12.712 -0.2900 -0.1210  0.0649
14490W        W30624  14.616   9.840   0.777 -0.0888 -0.0689 -0.1121
14491W        W30625   2.939  17.868   0.480  0.0574  0.1932  0.0345
14492W        W30626   0.578   9.975   3.225  0.3036 -0.1796 -0.1568
14493W        W30627  17.998  14.561  15.305 -0.2054 -0.0274 -0.4939
14494W        W30628   3.844  16.308   0.165 -0.3129  0.2159 -0.2708
14495W        W30629  17.013  17.962  13.948 -0.0977  0.0838  0.0956
14496W        W30630  14.986  14.678   1.454 -0.0438 -0.1104 -0.1754
14497W        W30631  13.061  16.960   2.723  0.0504 -0.0221 -0.1791
14498W        W30632   2.439   9.482   1.346 -0.0262  0.1810  0.1107
14499W        W30633   4.568  11.433  12.413 -0.2412 -0.0735  0.1852
14500W        W30634   1.345   6.900  12.669 -0.0124 -0.0096  0.0157
14501W        W30635   2.807   3.551   5.049  0.1045  0.1266 -0.1232
14502W        W30636   7.686   8.731  15.407 -0.1332  0.0483 -0.2175
14503W        W30637   7.514  14.571   1.018 -0.2149 -0.1436 -0.3059
14504W        W30638   7.107  13.383  13.572  0.3779  0.1346  0.3878
14505W        W30639   4.890  13.401   5.164 -0.1425  0.0285  0.0868
14506W        W30640  14.380   8.157  10.497 -0.0381 -0.1081  0.1183
14507W        W30641   4.698   5.345   3.147  0.0590 -0.0955 -0.0441
14508W        W30642  12.070  10.053   4.737 -0.2429 -0.0247 -0.1809
14509W        W30643   7.147   6.802  12.173  0.0498 -0.0186  0.0438
14510W        W30644   9.204  17.615   2.003 -0.1000 -0.0052 -0.0719
14511W        W30645   0.480   1.111  15.970  0.0421  0.3210  0.3867
14512W        W30646  16.714  14.919  15.482 -0.3058  0.1041 -0.1495
14513W        W30647  15.136  16.503   6.568 -0.2777  0.0824 -0.1124
14514W        W30648   3.460   2.696   0.699  0.1469  0.1135  0.3183
14515W        W30649  15.539  16.545   1.348 -0.1038 -0.0637 -0.2043
14516W        W30650  11.626   1.436   3.552 -0.0563 -0.1907 -0.1709
14517W        W30651   8.833   4.604  15.758  0.4184  0.1164 -0.0459
14518W        W30652  14.441   7.482   1.035 -0.2968  0.1414  0.0414
14519W        W30653  17.552  12.727  13.568 -0.1958  0.1848 -0.2456
14520W        W30654   2.921  17.069   3.522  0.0044  0.1031  0.3635
14521W        W30655  16.569  11.463  15.725  0.1632 -0.1016  0.3158
14522W        W30656   8.878   7.321  11.986 -0.4032  0.1286 -0.1301
14523W        W30657  15.049   7.457  12.375 -0.1095 -0.2074 -0.0104
14524W        W30658   8.253   9.919  13.692 -0.1533  0.1233 -0.0833
14525W        W30659   1.979  11.781  15.105  0.1701  0.0060 -0.3234
14526W        W30660  13.798  13.016  14.167  0.0626  0.0426  0.2223
14527W        W30661   4.534   0.861   0.176 -0.0082  0.0535  0.0036
14528W        W30662   4.985   9.041  12.072  0.1084 -0.2212  0.0763
14529W        W30663   3.131  12.624  11.636  0.1354 -0.1635  0.1723
14530W        W30664   7.209   9.723  11.429 -0.2710 -0.0033 -0.2761
14531W        W30665  17.025   9.252   0.864  0.0736 -0.0534  0.0678
14532W        W30666   0.518  15.088   5.357 -0.0316 -0.3209  0.2463
14533W        W30667   4.942  12.445  14.260  0.0181 -0.0700 -0.3713
14534W        W30668  14.873   5.195   2.512  0.1452 -0.1164 -0.0797
14535W        W30669  13.322   2.369  11.179 -0.0658  0.0178  0.0590
14536W        W30670   9.337   2.128   4.516 -0.1597  0.1265  0.1715
14537W        W30671   8.423  17.995  13.013  0.0195 -0.2907  0.2688
14538W        W30672  14.798  10.129  10.391  0.0423 -0.0461  0.1805
14539W        W30673  12.121  15.399  15.735  0.0996 -0.0074 -0.0995
14540W        W30674  14.583  17.633  12.779  0.0768  0.5231  0.2663
14541W        W30675  11.400   5.697  14.370  0.0087  0.1997 -0.0783
14542W        W30676   9.870   6.353  13.173  0.0265 -0.0006 -0.0276
14543W        W30677   3.031  12.503   4.993  0.2832 -0.0554  0.1559
14544W        W30678   0.666  17.208  15.554 -0.0745  0.0715 -0.2526
14545W        W30679   9.153   9.897  14.610  0.1210  0.1615  0.0698
14546W        W30680   2.134   7.753   2.361  0.0964 -0.1057  0.1836
14547W        W30681   8.258   5.105   1.650  0.2146  0.2434 -0.0191
14548W        W30682   6.252   9.412  13.614 -0.0675 -0.2761  0.1025
14549W        W30683  17.452   6.423   4.339  0.1140 -0.5351  0.0369
14550W        W30684  15.743   5.491   4.989  0.2879  0.2217  0.0409
14551W        W30685  14.416  14.168   2.109  0.2296 -0.2720  0.0508
14552W        W30686   9.531   9.602   3.991 -0.3545  0.0414  0.2468
14553W        W30687  10.628   0.259   3.659  0.0338  0.1888 -0.1342
14554W        W30688  10.807  14.865   2.716 -0.1300  0.1327 -0.0635
14555W        W30689  12.594   9.852  13.505 -0.1383 -0.3078  0.1361
14556W        W30690   7.244  11.309   3.394 -0.2840  0.1551 -0.0225
14557W        W30691  10.555   5.082  13.170 -0.1278 -0.2303  0.2272
14558W        W30692   5.072  14.411  14.366 -0.2287  0.4298  0.0823
14559W        W30693  13.586  11.274   1.554 -0.1274 -0.2829 -0.1152
14560W        W30694   6.209   4.236   2.303 -0.3142 -0.0233  0.2322
14561W        W30695   3.870  14.764  11.182 -0.0737 -0.0154 -0.2040
14562W        W30696  10.602   3.100   2.293  0.1152  0.0696  0.1103
14563W        W30697  13.145  15.036  12.959  0.0219  0.0669  0.1724
14564W        W30698  15.656  15.176   5.358 -0.0305  0.0806 -0.0023
14565W        W30699   4.793   5.837   5.971 -0.1277 -0.0808  0.1494
14566W        W30700   8.849  11.932  13.910 -0.0436 -0.1001  0.2417
14567W        W30701   9.694  11.567  14.288 -0.0252 -0.0008  0.0019
14568W        W30702   1.440   0.784  15.092 -0.0034  0.2754 -0.0369
14569W        W30703  11.888   9.028   0.265  0.1853  0.2509  0.1489
14570W        W30704  16.042   7.458   2.033 -0.0437 -0.0297 -0.2068
14571W        W30705   0.408  13.794   2.612 -0.4236  0.2371  0.1315
14572W        W30706   6.606   5.824   3.759  0.0338  0.0163  0.0694
14573W        W30707   8.693   4.203   4.747  0.2074 -0.1888 -0.0452
14574W        W30708   2.809   3.863  10.253  0.1558  0.2547 -0.0677
14575W        W30709  15.756  17.568  13.996  0.0442  0.0787 -0.3665
14576W        W30710   1.800   4.656   4.129 -0.1636 -0.2838 -0.2290
14577W        W30711   7.899  12.064  16.326 -0.2088 -0.1030 -0.0655
14578W        W30712  17.288  10.209   3.427 -0.0434 -0.0449 -0.0961
14579W        W30713   5.601   3.925   0.385 -0.0020  0.0378 -0.1465
14580W        W30714  13.229   7.001   1.526 -0.0948 -0.1464  0.0810
14581W        W30715   1.831  12.287   1.714  0.2471  0.1611 -0.1312
14582W        W30716   9.187   0.925   5.060  0.0146  0.0296  0.1011
14583W        W30717  13.324   4.565  12.202  0.4462  0.1149  0.0356
14584W        W30718  11.310   6.965   0.815  0.1324 -0.2125 -0.1460
14585W        W30719  14.328   6.947  14.650 -0.1533 -0.0337 -0.2170
14586W        W30720   0.412  14.667   1.892  0.0731  0.0385 -0.2739
14587W        W30721   7.427   7.259  16.253 -0.0968  0.2597 -0.3736
14588W        W30722   4.269  17.899   1.213  0.1574  0.0552  0.0213
14589W        W30723   1.379  17.758  15.201 -0.3008  0.0609 -0.0423
14590W        W30724  10.265   5.293   5.260 -0.1529 -0.0725  0.0494
14591W        W30725   9.741  11.607   0.671 -0.0682 -0.2392  0.1987
14592W        W30726  11.002  11.154  13.188 -0.0907  0.1837 -0.1136
14593W        W30727   7.244   5.939   5.657  0.0059  0.2623 -0.3045
14594W        W30728  13.774  16.122  13.583  0.2417  0.0307  0.1370
14595W        W30729   8.903   3.875  15.305  0.2556  0.0222 -0.0133
14596W        W30730   3.407  12.203   5.192 -0.1519 -0.1973  0.1921
14597W        W30731   2.077  10.141  13.646  0.1662  0.1209 -0.1260
14598W        W30732   8.158  11.984  15.575 -0.1367  0.0655  0.2034
14599W        W30733   1.776  15.169   0.133 -0.1267 -0.0969 -0.1098
14600W        W30734  15.708   5.382   4.527 -0.1481  0.0492 -0.0013
14601W        W30735   8.620  13.614   5.714 -0.1266 -0.0951 -0.1763
14602W        W30736  16.149   9.740  14.994 -0.2467  0.0200  0.0167
14603W        W30737   2.172   2.383   0.275  0.0357  0.3379 -0.1272
14604W        W30738   3.182   3.016   5.338  0.1591  0.2173 -0.3230
14605W        W30739  13.958  13.697   3.584 -0.1573  0.0230  0.2457
14606W        W30740  17.164   4.682  11.920  0.3866  0.0269 -0.0060
14607W        W30741   0.176   0.315  13.714 -0.1068 -0.3333 -0.0884
14608W        W30742  16.209  15.319  11.922  0.2185 -0.0048  0.1965
14609W        W30743  16.047  16.934   3.016  0.0631  0.0456  0.1789
14610W        W30744   7.064  12.301   5.389 -0.1456 -0.0939 -0.3521
14611W        W30745   7.627  15.915  11.147  0.1196  0.2227 -0.3249
14612W        W30746   4.676   9.493  12.055 -0.1344  0.1448 -0.0863
14613W        W30747  10.383  17.252   0.073  0.1732 -0.0291  0.0369
14614W        W30748  14.240  10.223  14.563  0.1324 -0.0549 -0.2213
14615W        W30749  12.475   3.931   0.992  0.2138  0.0491 -0.2909
14616W        W30750  14.973  15.339   4.698  0.1507 -0.2515 -0.1977
14617W        W30751   1.155   3.699  13.889 -0.2836  0.0694 -0.3354
14618W        W30752  12.648   7.252  16.178 -0.2382  0.0590  0.1078
14619W        W30753   5.146   0.994  14.602  0.4307 -0.4910 -0.0554
14620W        W30754   8.612  17.367   3.601  0.0041  0.1194  0.0429
14621W        W30755   5.716  10.445   0.595  0.1158  0.0760 -0.1489
14622W        W30756   8.883   0.283   4.421  0.1534  0.3271 -0.0410
14623W        W30757  13.828   2.859  11.761  0.2321 -0.4022  0.0446
14624W        W30758   8.610   7.429   3.359 -0.0536 -0.3503  0.0573
14625W        W30759   8.009  14.543  12.419  0.0169  0.0765 -0.2836
14626W        W30760  14.371   8.622  13.915  0.0470 -0.1811 -0.0091
14627W        W30761  15.232   3.772  15.813 -0.0321  0.0934 -0.2734
14628W        W30762   0.709   1.783  14.111  0.0867 -0.3818 -0.1815
14629W        W30763   6.928   0.266   5.571 -0.1779 -0.0989 -0.4032
14630W        W30764   0.161   2.469  14.621 -0.0204  0.3523 -0.1694
14631W        W30765  12.569  14.879   1.128  0.0137  0.0320 -0.1183
14632W        W30766   0.326   3.044   0.819  0.1821  0.2830  0.1550
14633W        W30767   7.293   9.774   4.838  0.0687 -0.0289  0.1806
14634W        W30768   8.038   8.689   4.575 -0.1121  0.0511 -0.0644
14635W        W30769   8.638   1.478  13.152 -0.1499 -0.2639 -0.1728
14636W        W30770   0.158  17.490   1.400 -0.2087  0.2329  0.1627
14637W        W30771  12.878   3.801  12.289  0.1534  0.1267 -0.2048
14638W        W30772  10.615   7.410  12.532  0.1143 -0.2805 -0.1690
14639W        W30773  10.915   5.264  11.138  0.0021  0.0833 -0.1803
14640W        W30774   2.981   7.466  15.246 -0.0124  0.2436  0.3737
14641W        W30775   3.136  16.874  15.140  0.0853 -0.1567  0.3356
14642W        W30776   1.290   8.478   5.954  0.4471 -0.3281 -0.0619
14643W        W30777  10.899  14.093  12.170 -0.1834  0.1475 -0.0668
14644W        W30778  10.978   3.852   4.363 -0.0495  0.3666 -0.2861
14645W        W30779   4.214  14.340   4.266  0.1563 -0.5332  0.0294
14646W        W30780   8.096   0.879   1.968  0.0180 -0.0552 -0.0281
14647W        W30781   6.881   5.476  15.126 -0.2148 -0.0454 -0.3584
14648W        W30782  13.919  17.139  11.724  0.1218 -0.0894 -0.2802
14649W        W30783   6.336   9.663   5.544 -0.1896 -0.0143 -0.0311
14650W        W30784  14.444  10.256   1.892  0.1675  0.2227 -0.3833
14651W        W30785   1.704   7.557   2.529  0.0881  0.0588 -0.1988
14652W        W30786   4.859   8.095  16.337 -0.3091 -0.2210 -0.0151
14653W        W30787   7.134  15.765  11.185 -0.2145 -0.0512  0.2191
14654W        W30788   8.498  14.093   5.891 -0.0484 -0.0293  0.0511
14655W        W30789  12.705  11.116   5.937 -0.1706 -0.1314  0.0337
14656W        W30790   1.539   7.735   4.854  0.0211 -0.3244 -0.0948
14657W        W30791   7.744  12.508   0.112 -0.1044  0.1011 -0.0051
14658W        W30792   6.430  13.266  13.016 -0.0422 -0.1404 -0.0613
14659W        W30793  10.135   0.537  12.661 -0.1030  0.2892  0.0256
14660W        W30794  12.397  10.280  13.955 -0.2500  0.2136 -0.0911
14661W        W30795   4.673   9.650  13.636 -0.1005 -0.0703  0.0427
14662W        W30796   2.825  13.519   2.309  0.1221  0.0999 -0.2685
14663W        W30797   8.949   8.991  14.945  0.1508  0.0454  0.1253
14664W        W30798  12.270  12.373   0.831  0.0064 -0.3076 -0.2009
14665W        W30799   4.457   9.785  15.697 -0.0428  0.1420 -0.1026
14666W        W30800  14.672   0.857   1.252 -0.0212  0.0639  0.0419
14667W        W30801   3.875   4.822   1.425 -0.3064  0.0510  0.2584
14668W        W30802   5.140  11.230   0.534 -0.1683 -0.0290  0.2809
14669W        W30803   4.527   8.315   4.060 -0.2721 -0.1791 -0.0477
14670W        W30804   1.762   3.052  15.167 -0.0814 -0.0983  0.1482
14671W        W30805  15.492   1.002   5.295 -0.0062 -0.2529 -0.0433
14672W        W30806   6.907  15.311  11.752 -0.2493  0.1933  0.0723
14673W        W30807   0.966  16.575  15.154 -0.1470 -0.0395 -0.1184
14674W        W30808   9.486  16.166   2.876  0.0779  0.0262 -0.0455
14675W        W30809  14.356   9.416   1.228 -0.0597  0.1692 -0.1649
14676W        W30810  17.392  11.564   2.386  0.1375  0.1965 -0.0192
14677W        W30811  14.597  13.528   4.394  0.0851  0.2421  0.0188
14678W        W30812   2.254  13.827   5.739  0.3739 -0.0106 -0.1406
14679W        W30813  15.608  12.089   0.508 -0.0456  0.2098 -0.2176
14680W        W30814   3.556   0.885  14.379 -0.0575  0.1007 -0.0251
14681W        W30815   5.610   3.653  13.389  0.0408 -0.3153 -0.1903
14682W        W30816   9.079  15.463  13.131 -0.2798 -0.2404  0.1168
14683W        W30817  10.300  14.522   0.966  0.3788  0.2266 -0.1642
14684W        W30818  10.998   9.116  12.063  0.3983 -0.0439  0.1686
14685W        W30819  11.277   9.710  13.834  0.2984  0.2430  0.0999
14686W        W30820   7.059   5.809  14.752 -0.1987  0.2165  0.1844
14687W        W30821   9.829  14.899  14.446 -0.0966 -0.0036 -0.0500
14688W        W30822  15.173   7.393   0.324  0.0080 -0.0058 -0.0244
14689W        W30823  12.536  10.137  11.971 -0.0091  0.0973  0.0045
14690W        W30824   0.628  14.932   1.501 -0.2512  0.0040 -0.0915
14691W        W30825   6.184   5.434  11.650  0.1012  0.0765 -0.0585
14692W        W30826   4.101  15.343  15.253 -0.2144 -0.1946  0.0374
14693W        W30827   6.300   2.042  15.910 -0.1968 -0.1624 -0.3034
14694W        W30828   4.467   3.526   0.926  0.1803  0.0093  0.0423
14695W        W30829  11.871   9.603  12.984 -0.0219  0.1623 -0.1484
14696W        W30830   3.226   9.476  13.331  0.1622  0.2939 -0.0205
14697W        W30831  12.213   7.834  11.440  0.3204 -0.0988  0.1789
14698W        W30832   2.034  16.521  11.031  0.3084  0.1525 -0.2644
14699W        W30833   7.900  12.772  15.776  0.2663  0.0568 -0.0446
14700W        W30834   2.562  10.870   2.086 -0.2591  0.1907  0.0691
14701W        W30835   9.013  10.410  13.048  0.3000 -0.1149 -0.2286
14702W        W30836   1.314  17.794  13.238  0.0792 -0.0536 -0.0269
14703W        W30837  16.251   5.555   4.333  0.3242  0.1141  0.2532
14704W        W30838   4.789   8.338   0.725 -0.0849 -0.2330  0.0808
14705W        W30839  14.956  11.338  15.176  0.2229 -0.3018 -0.1202
14706W        W30840   5.746   9.650   3.923 -0.0366 -0.1584  0.0047
14707W        W30841   1.404   2.473   5.499  0.1103  0.0712  0.0093
14708W        W30842   4.318   2.161   4.456  0.3386  0.3876 -0.0407
14709W        W30843   2.034   5.477  15.707 -0.0028  0.0804 -0.2026
14710W        W30844  10.152  11.500  13.096 -0.1935  0.1277 -0.0964
14711W        W30845  15.890  14.786   2.640  0.2716  0.0272 -0.2797
14712W        W30846  17.536  12.354   3.248  0.0230  0.0768  0.0144
14713W        W30847  13.212   8.405  12.526 -0.1787 -0.1583 -0.0952
14714W        W30848   4.213  15.342   5.265 -0.1146  0.1807  0.0977
14715W        W30849  14.267  14.713  13.647  0.4441 -0.1423  0.1838
14716W        W30850   6.156  13.059  12.377  0.0495  0.0115  0.1650
14717W        W30851   7.883  11.689   5.275  0.1192  0.1119  0.1946
14718W        W30852   2.009   0.168  14.860 -0.4120 -0.1333 -0.1232
14719W        W30853   8.304   5.626  12.641 -0.1387 -0.1434 -0.0592
14720W        W30854   9.120  14.293   1.487  0.1847 -0.2193 -0.1882
14721W        W30855   9.710   4.346   3.362  0.1615 -0.1789  0.1188
14722W        W30856   7.313   7.214  13.287  0.2408 -0.1258  0.0730
14723W        W30857  10.142  12.185   4.987 -0.0741 -0.2775 -0.0639
14724W        W30858  15.277   2.927  11.919 -0.1407  0.0365  0.1651
14725W        W30859   2.202  14.411  15.539 -0.0714 -0.2835 -0.0988
14726W        W30860   2.527   2.168   2.262 -0.0720  0.1471 -0.1670
14727W        W30861   7.690  10.620   5.323 -0.2206  0.1651  0.2401
14728W        W30862   2.429   1.036  15.040  0.0274 -0.1476  0.0915
14729W        W30863  17.191  18.067  13.045 -0.2671  0.2373  0.3515
14730W        W30864   2.374  10.464   1.891  0.0432  0.1130 -0.0879
14731W        W30865   9.541   1.514   5.770  0.0169 -0.3361  0.0207
14732W        W30866   4.195  17.618  13.457  0.0979 -0.1827  0.1544
14733W        W30867   3.774  16.313  12.449 -0.0184 -0.1457 -0.0884
14734W        W30868   5.315   2.871   3.421  0.2205 -0.1424  0.0272
14735W        W30869   2.981   6.930   0.002  0.0579 -0.0994  0.0637
14736W        W30870   9.644  14.583   5.561  0.0182  0.2140 -0.1035
14737W        W30871  10.577   3.870   4.047 -0.4116  0.1347 -0.0219
14738W        W30872  15.564   6.153  11.625 -0.1604  0.1238 -0.2577
14739W        W30873   1.307  12.502   0.381  0.2171 -0.2440 -0.0858
14740W        W30874   9.140  14.410  15.176  0.2557  0.0002  0.1900
14741W        W30875   5.960  13.716  15.138 -0.1642  0.1673  0.0985
14742W        W30876   3.068  10.922   4.171 -0.0275  0.4187 -0.0821
14743W        W30877  11.645  16.351  12.965  0.0120 -0.0084  0.2581
14744W        W30878   8.155   6.398   5.061 -0.1263  0.0718  0.5024
14745W        W30879  16.396  15.227  12.916  0.0501  0.0482  0.0703
14746W        W30880  15.960   8.963   1.932  0.0758 -0.1240 -0.0471
14747W        W30881   2.330  15.669   3.815 -0.0529 -0.1281 -0.0320
14748W        W30882   7.763   5.437   4.212 -0.0253  0.0953 -0.3256
14749W        W30883  10.591  14.002   2.025 -0.0433  0.0618  0.4086
14750W        W30884   3.941   3.645  12.958  0.0458  0.0233  0.1047
14751W        W30885   3.894   5.328   1.602  0.0955 -0.0478 -0.1284
14752W        W30886   2.805   3.416  10.998 -0.1463  0.1389 -0.0499
14753W        W30887   3.213   1.731  13.301  0.0775  0.1174  0.1916
14754W        W30888   2.403  10.847   2.975 -0.0091  0.1783  0.2386
14755W        W30889   8.629   6.923   3.773  0.2358 -0.0445  0.1850
14756W        W30890  14.379  13.417   1.474 -0.1562  0.3361  0.0407
14757W        W30891  12.828  16.131   5.503  0.0715  0.2547  0.0502
14758W        W30892   7.135   9.081  13.375 -0.2679 -0.0635  0.2112
14759W        W30893   8.927   4.469   3.811 -0.1263 -0.0430 -0.0193
14760W        W30894  12.880  15.146   0.179  0.0870 -0.1348 -0.0005
14761W        W30895   4.511  15.825  12.629 -0.2474 -0.2484  0.2835
14762W        W30896   5.083  14.812   4.963  0.3685 -0.1224 -0.2611
14763W        W30897   7.971  16.390  14.019  0.0939 -0.0972 -0.0446
14764W        W30898  15.171  12.644   3.314 -0.0017 -0.1502  0.0679
14765W        W30899  15.797  15.318  14.084 -0.1265  0.3986 -0.3855
14766W        W30900   7.993   7.211  12.118 -0.5718  0.1879 -0.0240
14767W        W30901  15.537   2.742  15.998 -0.0150 -0.0817 -0.1550
14768W        W30902   3.008   5.991   3.068  0.1387 -0.0706  0.0619
14769W        W30903  14.515   3.715  12.846  0.1864 -0.2267  0.0403
14770W        W30904   7.709  17.076   0.778  0.1166 -0.0499  0.1458
14771W        W30905  11.602   5.268   3.383  0.2812 -0.1381  0.4033
14772W        W30906  12.512  10.362  13.334 -0.1088  0.0162 -0.1808
14773W        W30907   4.092   5.717  15.730  0.1099 -0.1268  0.1065
14774W        W30908   4.985  16.733   2.369  0.4600 -0.0397  0.1039
14775W        W30909  11.438   9.576   2.368  0.1975  0.1034  0.0187
14776W        W30910  14.207  12.245   5.180 -0.1180  0.2871 -0.2136
14777W        W30911  15.855  16.465  15.437  0.0101  0.0920  0.1369
14778W        W30912  12.019  15.169   0.732  0.3956  0.1992  0.1775
14779W        W30913   1.572   1.451  10.698 -0.0403 -0.1857 -0.1543
14780W        W30914   3.131   8.913   3.819 -0.1608  0.0433 -0.0312
14781W        W30915   8.052  10.275   5.184  0.0741  0.1538 -0.1374
14782W        W30916   3.946   7.144   3.945  0.0887  0.0527  0.0263
14783W        W30917  11.364   2.167  12.434 -0.0146 -0.0351 -0.2445
14784W        W30918  15.643   2.440  13.815  0.0401 -0.0923 -0.2174
14785W        W30919   0.172   8.103   3.652  0.1502 -0.2252  0.1451
14786W        W30920   9.216   0.331   0.706  0.1763 -0.2671 -0.2437
14787W        W30921   2.879  14.520   6.199 -0.2715 -0.2927 -0.1235
14788W        W30922  14.978   3.441  16.084 -0.0107 -0.0949  0.2868
14789W        W30923  18.050   8.179  13.830  0.0218 -0.0515  0.2661
14790W        W30924  18.090  15.557  13.155  0.1158 -0.3045  0.0672
14791W        W30925   0.534  13.685   4.284  0.0501 -0.0234 -0.1764
14792W        W30926  10.115  10.133   5.025 -0.1570  0.2732 -0.2961
14793W        W30927  14.352   8.744  14.436  0.0452  0.1056  0.1609
14794W        W30928  12.885  10.433  14.820  0.0706 -0.2109 -0.0337
14795W        W30929  17.508   0.987   1.021 -0.0985  0.0402 -0.1176
14796W        W30930  14.603  17.711  15.194 -0.1442 -0.2066  0.0016
14797W        W30931  12.534   8.789   4.516  0.0934  0.2332 -0.1629
14798W        W30932  14.928   9.671  13.808 -0.1582  0.1810  0.0578
14799W        W30933   8.502   8.898  12.640 -0.2199 -0.2086 -0.0197
14800W        W30934   6.153  13.221   2.048  0.1468 -0.0639 -0.3729
14801W        W30935  16.492   7.329   3.848 -0.2622 -0.1726  0.0381
14802W        W30936   8.595  11.780  12.831  0.0631 -0.0737  0.1703
14803W        W30937  17.420  17.960  14.346  0.2763  0.0007 -0.1427
14804W        W30938  17.708  15.218  14.006 -0.1542  0.0290  0.1371
14805W        W30939  16.693  16.910   5.460  0.3329  0.1899 -0.2050
14806W        W30940   1.723  14.746   2.689 -0.0038 -0.0245  0.1988
14807W        W30941  16.223   5.116   1.553 -0.0983  0.1047  0.1085
14808W        W30942   2.688   0.523   2.470  0.0903  0.1176  0.1673
14809W        W30943  11.153  13.134  15.073 -0.0537 -0.4016 -0.2020
14810W        W30944   8.667  14.618  13.072 -0.1994  0.1364 -0.0501
14811W        W30945  12.261   5.557  13.689  0.2864  0.6367  0.3855
14812W        W30946  11.422   8.856  12.355  0.1423  0.1954  0.1614
14813W        W30947   7.864   5.436   2.437  0.2536 -0.2375 -0.0469
14814W        W30948  17.236  11.645   4.734 -0.3081  0.0307  0.0584
14815W        W30949  13.346   4.353   0.009  0.1954 -0.3251 -0.0169
14816W        W30950   7.556   5.279  16.303 -0.0008  0.2211  0.2316
14817W        W30951  13.207   1.876  14.489 -0.3648 -0.3731 -0.0347
14818W        W30952   6.456  17.476   2.548 -0.0249 -0.0647  0.1534
14819W        W30953  17.437  15.322   1.329  0.0349  0.1080 -0.0436
14820W        W30954  12.815  14.129  11.950 -0.0115  0.3115 -0.2153
14821W        W30955  15.690   6.095  13.721 -0.0171 -0.0364  0.1878
14822W        W30956  16.392   1.164  13.488 -0.2301 -0.0116  0.0704
14823W        W30957  17.897  13.783   3.610 -0.1318  0.1299 -0.1007
14824W        W30958   3.713  10.161   3.354 -0.1406  0.1838 -0.2723
14825W        W30959   6.791   2.533  10.152  0.0239  0.1299  0.1074
14826W        W30960   8.508  14.891   3.909  0.3124 -0.0945  0.0625
14827W        W30961   2.440  10.339  11.559 -0.0760  0.1070 -0.2219
14828W        W30962   5.587   6.139   0.236 -0.1252  0.1617  0.0278
14829W        W30963   0.281  17.234  15.893  0.0318 -0.2225  0.0437
14830W        W30964   3.226   5.147  16.327  0.1188  0.2074 -0.0650
14831W        W30965  10.032  13.384  13.570  0.1159  0.0390  0.2311
14832W        W30966  17.771   6.665  14.010 -0.0466  0.0110  0.3430
14833W        W30967   6.134  13.528  12.742 -0.0822  0.0277 -0.1747
14834W        W30968   4.722   8.730   3.870  0.0223  0.1786  0.0550
14835W        W30969   9.282   6.288  15.944 -0.1476  0.1844  0.3989
14836W        W30970  16.753   8.134   0.041  0.0178 -0.1094 -0.0260
14837W        W30971   3.441   2.393   2.742 -0.0366 -0.1057 -0.1672
14838W        W30972   5.290  11.090  13.450 -0.1427 -0.1511 -0.0343
14839W        W30973   2.184  17.224   0.229  0.1842 -0.2618 -0.0267
14840W        W30974  14.185   6.767  10.869 -0.2403  0.2328 -0.0720
14841W        W30975   8.541  15.146  15.546 -0.2884 -0.1950  0.0656
14842W        W30976   6.290  12.686  14.246  0.1122 -0.1414  0.0215
14843W        W30977   0.002  13.546   4.487  0.0495 -0.0400  0.2273
14844W        W30978   4.589  17.947   5.366  0.0165  0.0269 -0.2606
14845W        W30979  17.851   8.967  13.429  0.0146  0.3434 -0.1375
14846W        W30980   5.204   9.108   5.052  0.3441  0.2324 -0.2327
14847W        W30981   4.029  17.745  11.322 -0.2253  0.1352 -0.1926
14848W        W30982   6.382   2.601   0.022 -0.5519 -0.0377 -0.2266
14849W        W30983  14.139  15.340  14.683  0.1959  0.0034 -0.0762
14850W        W30984   9.144  12.807   1.243 -0.2009 -0.0307  0.1049
14851W        W30985   1.046   1.700   2.511  0.0819  0.0774  0.2511
14852W        W30986   0.274  15.521  14.365  0.0498  0.3192 -0.1334
14853W        W30987  13.759   3.351  14.376  0.3025  0.2226 -0.0419
14854W        W30988  15.445   7.938   3.922  0.2541 -0.0176 -0.0191
14855W        W30989  17.718  15.031   1.029 -0.0475 -0.1812 -0.0020
14856W        W30990  12.856   1.573  13.544  0.0429 -0.0751 -0.0683
14857W        W30991   9.765  15.283   4.137  0.2091 -0.0263  0.1847
14858W        W30992  15.231  13.684  15.704 -0.0004 -0.1167 -0.1404
14859W        W30993   0.439   9.924   1.051  0.0622  0.0140 -0.0815
14860W        W30994   9.073   7.187   3.802 -0.0827 -0.1459 -0.0950
14861W        W30995  11.148  14.857  14.925  0.0661  0.0040 -0.0084
14862W        W30996   3.091   6.941  14.443 -0.0137  0.2882  0.0571
14863W        W30997   9.507   4.030  11.440 -0.0069 -0.0748 -0.0936
14864W        W30998  16.837   5.259  13.169  0.2717 -0.1456 -0.0736
14865W        W30999  12.032   8.516  11.981  0.1123 -0.0422 -0.3784
14866W        W31000   7.363  10.758   0.813 -0.1098  0.0624 -0.0503
14867W        W31001   1.779   9.897   0.039 -0.0584 -0.1599 -0.0495
14868W        W31002   8.495  16.081   0.346 -0.1381  0.2240  0.1015
14869W        W31003   3.480   2.327   4.461 -0.1770  0.0057 -0.0021
14870W        W31004   3.808   9.159   0.699 -0.2167 -0.4553  0.5885
14871W        W31005   8.596   1.569   0.724  0.2899 -0.0786 -0.0844
14872W        W31006   4.057  18.002  12.173  0.2656 -0.1902 -0.0132
14873W        W31007   3.309  13.931  14.932  0.0188  0.0876 -0.1197
14874W        W31008   4.476  15.021   4.400  0.0026 -0.0449 -0.1464
14875W        W31009  13.384  17.485  12.310 -0.0741 -0.0053 -0.0063
14876W        W31010   0.125   6.973   1.865  0.0624 -0.1212  0.0979
14877W        W31011  16.094  17.467   4.566  0.1485 -0.2877  0.0523
14878W        W31012  10.386   2.913  14.783  0.2402 -0.0857  0.0239
14879W        W31013   0.245   3.134   5.026 -0.2477 -0.0787  0.1572
14880W        W31014   4.177  13.125   3.419  0.4212  0.1212 -0.1060
14881W        W31015  14.466   2.660   2.526 -0.0660 -0.1405  0.0221
14882W        W31016   2.742   7.924  12.457  0.1853  0.0375  0.0202
14883W        W31017  15.326   1.853   1.885  0.3139 -0.2011 -0.0526
14884W        W31018   6.105   8.334  12.113  0.1581 -0.0421  0.2854
14885W        W31019   4.621  17.560   1.105  0.1372 -0.0728  0.0722
14886W        W31020  10.236   1.366   2.209 -0.1680 -0.0368 -0.3397
14887W        W31021   9.369  16.133  11.585 -0.2383  0.2708 -0.1064
14888W        W31022  16.340   6.617  13.323  0.2395 -0.5746  0.1309
14889W        W31023   1.304   9.974  12.831 -0.3026  0.0181 -0.0038
14890W        W31024   8.651  14.820   6.315 -0.1824 -0.0315  0.2572
14891W        W31025  15.060  17.834   2.968 -0.2543 -0.2269 -0.0247
14892W        W31026  14.774   2.881   4.676 -0.2697  0.0628 -0.1439
14893W        W31027   0.639  10.488  14.000  0.0247 -0.0139 -0.4132
14894W        W31028  11.573  13.755  16.280  0.1034  0.2103 -0.0204
14895W        W31029   6.745   4.552   0.174 -0.1368  0.1698 -0.1548
14896W        W31030  18.093  12.530   1.251 -0.1971  0.4637 -0.2345
14897W        W31031   3.095  10.776  13.209  0.0939 -0.1137 -0.1769
14898W        W31032   1.093   8.966   4.167  0.0530 -0.0661  0.0196
14899W        W31033  16.237   2.398  15.447  0.4186  0.0446  0.1437
14900W        W31034  10.255   0.472   2.775 -0.2810 -0.0531 -0.0216
14901W        W31035  10.031  11.774   3.084  0.1254  0.1347  0.1603
14902W        W31036   0.332  17.059  10.713 -0.0340  0.1604  0.0699
14903W        W31037   7.745  13.723  12.690 -0.3878  0.0683 -0.1928
14904W        W31038   3.068  10.688   2.317  0.4263 -0.1622  0.1161
14905W        W31039   5.513  16.148  12.171  0.2035  0.2703 -0.1539
14906W        W31040   9.692  14.781  12.315 -0.1106 -0.1508  0.0867
14907W        W31041  17.884  17.637   1.694 -0.0268 -0.3835  0.2963
14908W        W31042  13.876   0.917  11.320 -0.2675 -0.4274 -0.2792
14909W        W31043  15.478   1.349   3.961 -0.0577  0.1450 -0.2603
14910W        W31044   1.709   4.210   2.656 -0.1492  0.1424  0.1197
14911W        W31045   4.234   3.923  13.905  0.3159  0.0958 -0.3861
14912W        W31046   6.469   3.653  13.771  0.0305 -0.1978 -0.1995
14913W        W31047   0.494   5.855   0.381  0.0762  0.1139  0.0323
14914W        W31048   2.814  11.388   1.230  0.2377  0.1128 -0.0062
14915W        W31049   8.839   4.009  11.992  0.0015 -0.1077 -0.0340
14916W        W31050   0.356  14.796  15.826 -0.3385  0.2420 -0.1335
14917W        W31051   6.939   5.863   2.788  0.0753 -0.3188 -0.0541
14918W        W31052   5.385  16.787  16.296  0.1140  0.0689  0.0995
14919W        W31053  13.298  10.634  11.619  0.1594 -0.1983  0.0292
14920W        W31054   9.345   7.193  14.302  0.0446 -0.0378 -0.2073
14921W        W31055   2.319  17.733   0.545 -0.0111 -0.1542  0.2349
14922W        W31056  16.710  15.997  12.187 -0.1101 -0.2327 -0.2082
14923W        W31057  13.020   9.062  12.048  0.0046 -0.1849  0.1277
14924W        W31058  14.711   8.011  12.980  0.1734 -0.0817 -0.0414
14925W        W31059  11.411   2.039   2.165 -0.0750  0.1879  0.0758
14926W        W31060   2.819  14.519  15.985  0.0258 -0.0536  0.1004
14927W        W31061  15.340  10.511  15.200  0.0383  0.0406 -0.2069
14928W        W31062  14.595   2.371  13.116  0.1024  0.1267 -0.1879
14929W        W31063   2.802  13.243   5.162  0.1217 -0.2202 -0.0109
14930W        W31064   5.496   0.735   2.803  0.0997  0.1603  0.0080
14931W        W31065  14.852  15.731  12.282 -0.0545 -0.2545 -0.0200
14932W        W31066   9.823   5.488  12.414 -0.1564  0.1918  0.1618
14933W        W31067   5.251   0.224   4.607  0.1030 -0.0221  0.1017
14934W        W31068   4.170   3.046  12.821 -0.4238  0.0938  0.0722
14935W        W31069   7.045  10.787  15.475  0.1200  0.1611  0.2243
14936W        W31070   9.477  15.654  13.862  0.0443 -0.0004 -0.0462
14937W        W31071   8.042   0.139   3.294  0.1023  0.0823  0.0756
14938W        W31072   5.491   9.701  12.657 -0.1208 -0.1098 -0.0650
14939W        W31073  15.246   6.158  12.585  0.4152  0.2104  0.3447
14940W        W31074  17.172   9.205  15.089 -0.0488 -0.3138 -0.0492
14941W        W31075  18.014   7.705  10.385  0.2173 -0.3952 -0.0384
14942W        W31076   3.415  12.332  13.402 -0.3244  0.2648 -0.0682
14943W        W31077   2.411   6.980   2.951 -0.2631  0.0787  0.1303
14944W        W31078   4.055  12.969   2.077 -0.1124  0.0135 -0.0986
14945W        W31079  15.458  10.906   1.489  0.1898 -0.2000  0.0073
14946W        W31080   5.979   3.410  12.693 -0.0580 -0.0013 -0.0090
14947W        W31081  13.009   1.287   0.938 -0.0323  0.0298 -0.1665
14948W        W31082  15.626  11.374   2.483  0.5470 -0.0063  0.0694
14949W        W31083   7.764  17.158   5.897  0.0164  0.1991 -0.1145
14950W        W31084  12.214   1.055  14.441 -0.1162 -0.0495 -0.0341
14951W        W31085   5.592   9.477   0.470 -0.2011  0.0054 -0.1042
14952W        W31086   9.603   9.727  10.565  0.1754  0.0486 -0.1754
14953W        W31087   5.341   8.199   4.455 -0.3108  0.0926  0.0387
14954W        W31088  12.323  14.061  13.362  0.1283 -0.2507 -0.1342
14955W        W31089   1.957   6.717  14.418 -0.2361 -0.1065  0.0910
14956W        W31090   7.245  17.426   2.531  0.0904 -0.2256  0.0425
14957W        W31091  11.448   5.388  13.300 -0.0860 -0.0467  0.0416
14958W        W31092   9.299   2.340   3.493  0.2308  0.1093 -0.2388
14959W        W31093  13.815  14.414  15.392  0.0408  0.1476 -0.2052
14960W        W31094   0.606   4.528   4.045 -0.2002 -0.0476 -0.0883
14961W        W31095  14.934   5.390   3.480  0.0458  0.0187 -0.2939
14962W        W31096  15.478   8.442   4.860 -0.0931  0.3007  0.0666
14963W        W31097   6.121   9.544  12.029  0.0806 -0.1960 -0.1440
14964W        W31098  16.853  12.676   0.825  0.0111  0.4395 -0.0452
14965W        W31099   0.806  16.867   1.560  0.1727  0.0646 -0.2634
14966W        W31100  13.648  10.683  13.480  0.0452 -0.3517  0.0064
14967W        W31101   1.938   8.820  13.641 -0.0934 -0.3174 -0.2532
14968W        W31102  11.752  17.653  13.534  0.3867 -0.2769 -0.0240
14969W        W31103  13.941   1.074  14.954 -0.0652  0.1285 -0.1330
14970W        W31104  11.220   8.221   0.602 -0.1768  0.1602  0.0189
14971W        W31105  10.829   0.430   5.938 -0.0266 -0.2960  0.2476
14972W        W31106   9.552   4.142   4.835 -0.0616 -0.0293  0.0348
14973W        W31107   6.395   5.443   3.136  0.2541 -0.1921 -0.3782
14974W        W31108   0.493  13.046   0.497  0.0295  0.2617 -0.1149
14975W        W31109   3.469  17.665  13.385  0.0452 -0.0418  0.0019
14976W        W31110   2.397  12.592   0.275 -0.1646 -0.3558  0.0923
14977W        W31111   3.155   8.902   1.497  0.2525 -0.0360  0.2193
14978W        W31112   2.263  17.406  12.901  0.0183 -0.2295 -0.0055
14979W        W31113  14.771   6.975   0.130 -0.2582  0.1902 -0.0563
14980W        W31114  14.684   9.054  13.169  0.1295 -0.1957  0.2646
14981W        W31115   5.909   7.089   4.103  0.2298  0.0238  0.2572
14982W        W31116   5.914   6.046  12.268  0.0078  0.0100  0.0505
14983W        W31117   9.624   4.530   5.194 -0.2555  0.0291 -0.0947
14984W        W31118  17.099   8.214  12.452  0.0345  0.2249 -0.5154
14985W        W31119  10.183  11.874  11.663 -0.0985 -0.0323 -0.1810
14986W        W31120   3.838  14.988   3.565  0.3180 -0.1719 -0.3548
14987W        W31121  17.242  11.005   0.117 -0.0304  0.0290 -0.0582
14988W        W31122   3.665   0.861  11.881  0.3273 -0.0308  0.1130
14989W        W31123   0.055   3.290  12.846  0.0927  0.3423 -0.1640
14990W        W31124  17.559   6.742   3.137 -0.2870 -0.0881 -0.1119
14991W        W31125   8.986   4.239  14.819  0.0591 -0.1646 -0.1633
14992W        W31126   0.070   5.692   1.488 -0.0030  0.1323  0.2596
14993W        W31127   2.080   6.675  11.769 -0.0312  0.1048 -0.1713
14994W        W31128  15.297  10.364  12.777  0.2069  0.0683 -0.1643
14995W        W31129   6.359   1.497  13.947  0.1268  0.0611 -0.0175
14996W        W31130   6.900  17.230  12.206 -0.2313 -0.0971 -0.2266
14997W        W31131  17.562   3.654  12.074 -0.0878 -0.0325 -0.1421
14998W        W31132  12.509  18.085   3.670  0.1265 -0.2008  0.0667
14999W        W31133   7.589   9.406  12.271 -0.0495 -0.0325 -0.0196
15000W        W31134  12.728   3.985   3.081 -0.0723  0.1106 -0.1267
15001W        W31135   6.547  14.271  11.384 -0.1854 -0.0309  0.1909
15002W        W31136  16.583  16.286   1.695 -0.0002  0.0174  0.1017
15003W        W31137   0.062  12.322  15.178  0.0131  0.1986  0.3364
15004W        W31138  14.672  16.904   1.872 -0.0461  0.3440 -0.2391
15005W        W31139  16.323  10.299  12.993 -0.0805  0.1817 -0.0710
15006W        W31140   2.610  17.381   3.287  0.0484 -0.0451  0.0094
15007W        W31141  10.171  11.858   0.843 -0.1528 -0.1877 -0.3969
15008W        W31142  17.899   0.054  15.215  0.0894  0.1514 -0.1870
15009W        W31143  11.246   7.922   3.653 -0.3046 -0.2281 -0.2945
15010W        W31144   4.679  11.951   5.298  0.0018  0.1539 -0.2020
15011W        W31145  11.406   5.014  13.682  0.2981  0.0541 -0.1565
15012W        W31146   0.850   9.895   2.773 -0.0146  0.0628 -0.4010
15013W        W31147   9.750   5.845   4.390 -0.3317  0.0081  0.4548
15014W        W31148   0.167  17.290  14.817  0.0602 -0.1379  0.0270
15015W        W31149   3.076  10.596   5.264 -0.0733  0.2507 -0.0967
15016W        W31150  16.979   1.677   3.883  0.0779  0.1355 -0.0669
15017W        W31151  15.371   5.592  14.737 -0.0960  0.2577 -0.1102
15018W        W31152   9.325  10.907  14.802 -0.1011 -0.0939 -0.1621
15019W        W31153   2.599  14.289   2.816 -0.0912  0.0608 -0.1264
15020W        W31154  14.296  11.807   1.280  0.2131 -0.2901 -0.1400
15021W        W31155   4.013   1.165  11.563  0.0436 -0.1190 -0.0019
15022W        W31156  18.022  13.736  14.537 -0.1955 -0.1470  0.2424
15023W        W31157  17.440  11.831   0.373 -0.1806  0.2341  0.1288
15024W        W31158   1.945   6.777   1.906  0.2246  0.2908 -0.0481
15025W        W31159  12.295   8.350  16.031  0.0859  0.2667  0.1278
15026W        W31160   4.614  13.017  10.617 -0.1237 -0.0848  0.0376
15027W        W31161  17.295  11.237  14.713 -0.2924  0.0798 -0.3265
15028W        W31162   1.762   4.868   1.833 -0.0204 -0.0510  0.0104
15029W        W31163  13.832  16.822   1.339  0.2702 -0.0677  0.0188
15030W        W31164  10.323   0.316   1.444  0.0696 -0.0093 -0.0762
15031W        W31165   0.587  12.154  11.274 -0.3086 -0.1082  0.1605
15032W        W31166   1.287   5.108   1.105 -0.0073 -0.2076  0.2637
15033W        W31167   8.914  12.945  15.115  0.0659  0.1966 -0.0886
15034W        W31168  10.844  12.933   0.281 -0.0374  0.2484  0.2099
15035W        W31169  14.890  10.595   0.783  0.0346  0.2773  0.1021
15036W        W31170   4.551   7.738  13.054 -0.0962  0.3386  0.0545
15037W        W31171  14.071  16.159   0.174 -0.1766 -0.0746  0.0983
15038W        W31172   9.199  12.838  11.583 -0.1834  0.0490  0.1977
15039W        W31173  16.336  13.682   4.723  0.1668  0.0913 -0.0160
15040W        W31174   6.604   9.169   5.581 -0.1243 -0.3359  0.2223
15041W        W31175  13.588  12.394   0.294  0.1200  0.0232  0.1545
15042W        W31176  10.649   7.331  14.967 -0.1592  0.1083  0.1313
15043W        W31177   7.994  12.998   5.797 -0.1554  0.1513 -0.2473
15044W        W31178   9.193  14.822  16.094  0.0732  0.1197  0.3898
15045W        W31179  11.418  15.311  14.662  0.4550  0.0105 -0.0682
15046W        W31180   4.052   3.532   4.504  0.2544 -0.0066  0.0101
15047W        W31181  15.036   8.844   0.927 -0.1495  0.0510 -0.0052
15048W        W31182  10.528   9.977   0.487 -0.0726 -0.0905  0.3405
15049W        W31183   7.034   3.413  13.465 -0.0835 -0.0131 -0.1433
15050W        W31184  11.402  13.680  14.253  0.0324 -0.1101  0.1155
15051W        W31185   1.897  11.492  13.211  0.0196 -0.2113  0.2148
15052W        W31186   3.351  10.328   3.662  0.0122 -0.2980 -0.0301
15053W        W31187   7.881   8.079   3.483 -0.2877 -0.2382  0.0308
15054W        W31188  12.067  12.637   5.452  0.0595  0.0792 -0.0502
15055W        W31189  17.252  14.875   2.645  0.1830 -0.0282  0.1942
15056W        W31190   9.144  10.148  11.671  0.0559 -0.0103  0.4313
15057W        W31191   2.027  15.228   5.152  0.0647  0.0372 -0.2361
15058W        W31192   5.690  13.036   1.047  0.1648  0.0328 -0.1693
15059W        W31193   3.698  18.087  15.444 -0.0833 -0.0436  0.0808
15060W        W31194   7.886   9.045   5.077  0.2451  0.1689 -0.3032
15061W        W31195   4.711   7.710   2.909  0.0052 -0.3147  0.0838
15062W        W31196  15.821   7.985  13.883 -0.1971 -0.1717  0.1708
15063W        W31197   5.596   1.257   4.516  0.2458  0.2160 -0.0527
15064W        W31198   4.004  14.097   2.580 -0.0856  0.1112  0.1321
15065W        W31199   5.699  18.039   1.246 -0.0085  0.1886 -0.1495
15066W        W31200  10.852   4.301   4.052 -0.1093  0.0948  0.1114
15067W        W31201  13.629  14.329  12.945  0.2378  0.2431 -0.1655
15068W        W31202  10.424  15.518   3.260  0.0366 -0.2847  0.2278
15069W        W31203   9.935  14.377  16.401  0.1854 -0.0542 -0.0114
15070W        W31204   1.014   8.089  11.941 -0.0814 -0.0875 -0.0919
15071W        W31205  17.642  17.816   3.260  0.2278  0.1268  0.3428
15072W        W31206   2.329  12.994   1.375  0.0342 -0.1183  0.1195
15073W        W31207   9.532   0.264   3.475 -0.0041 -0.5482 -0.1535
15074W        W31208  12.022  16.453   1.819  0.2797 -0.0614 -0.2392
15075W        W31209   4.810   5.091  15.929  0.0121  0.0860  0.1783
15076W        W31210   8.130  11.452   5.639  0.0194  0.0543  0.0315
15077W        W31211   3.157  17.349  15.346 -0.0103  0.2806  0.2913
15078W        W31212   0.297   7.090  11.511 -0.0218  0.0354  0.2778
15079W        W31213  17.006   8.675  11.007  0.0375  0.0519  0.0573
15080W        W31214  14.377   7.891   1.422  0.2303  0.1010  0.2613
15081W        W31215   4.052  17.594  14.562  0.0512 -0.0407 -0.2795
15082W        W31216   3.051   7.248   3.723 -0.2766 -0.0609  0.2427
15083W        W31217   6.444   4.969  15.810 -0.2711  0.2122 -0.2373
15084W        W31218  15.839  13.745  13.745 -0.1532  0.2691  0.1519
15085W        W31219   6.654  11.167  11.254 -0.0270 -0.0746  0.0975
15086W        W31220  12.762   3.290  12.517 -0.0138 -0.2856  0.4234
15087W        W31221   8.112   9.730   0.878 -0.0072 -0.0304  0.0097
15088W        W31222  10.168  16.235   0.815  0.2515  0.1579  0.0466
15089W        W31223   4.771   8.555  12.390 -0.1152  0.0367 -0.0990
15090W        W31224  15.979   0.279   4.291  0.0052 -0.0090 -0.0633
15091W        W31225   0.411   6.836   5.052  0.2288 -0.1964 -0.1242
15092W        W31226  14.641  16.781  14.037  0.1516 -0.1859  0.1732
15093W        W31227  12.718   9.138  16.229 -0.1548  0.1694 -0.2356
15094W        W31228   7.521  12.477   0.593 -0.1026  0.1116  0.1988
15095W        W31229   3.829   4.957  12.727 -0.0591 -0.1444  0.2052
15096W        W31230  14.195  15.734   0.609 -0.1327  0.1401 -0.0815
15097W        W31231  15.035   6.172   3.070  0.2313  0.3348  0.1181
15098W        W31232  16.268   8.511  13.097 -0.3532  0.0246  0.0493
15099W        W31233   0.342  12.049  11.764  0.0451  0.0664  0.0248
15100W        W31234  10.961  15.425   3.081  0.2209  0.3748 -0.0978
15101W        W31235  10.771   3.665   0.399  0.3152 -0.0309  0.3106
15102W        W31236   5.576  12.874  10.721 -0.0406  0.1400 -0.3250
15103W        W31237   1.087  10.158   0.805  0.0340  0.0124  0.1969
15104W        W31238   7.875   1.279   3.291 -0.1143 -0.0874  0.5039
15105W        W31239   1.507  10.194   2.142 -0.2490  0.0604  0.0125
15106W        W31240   4.175   8.861  11.603 -0.0460  0.3390 -0.4008
15107W        W31241   0.386  17.554  14.319 -0.1428 -0.0275 -0.3271
15108W        W31242  13.089  10.751   2.885  0.0780 -0.1396  0.0199
15109W        W31243  15.582   1.393   0.178  0.0197  0.1204 -0.0530
15110W        W31244   7.893   6.164  13.672  0.0140 -0.2224 -0.0175
15111W        W31245  11.128   9.401   5.670 -0.0372 -0.2247  0.2822
15112W        W31246   0.160   8.612   0.762  0.1394  0.1780 -0.0674
15113W        W31247   5.589   5.336   1.315  0.1833 -0.0914  0.1323
15114W        W31248   5.094   5.588   1.425  0.1009  0.2110 -0.2662
15115W        W31249   0.360  11.964   3.409 -0.2033 -0.0100  0.2413
15116W        W31250  11.010  13.534   2.310  0.1727 -0.0371 -0.1184
15117W        W31251   0.410   4.039   0.909 -0.0185  0.1228  0.0402
15118W        W31252   9.457   6.642  15.460  0.0991  0.1153 -0.3122
15119W        W31253  14.152   5.080  10.827 -0.0521  0.0454  0.3002
15120W        W31254   8.986  10.915   3.348 -0.2654  0.0862 -0.0025
15121W        W31255  12.706  11.554  13.542 -0.4274  0.1669 -0.1683
15122W        W31256   0.634   1.062   5.181  0.2204 -0.0974  0.2045
15123W        W31257   3.658   3.414   3.899 -0.2143 -0.1888 -0.1743
15124W        W31258   0.688   7.576   0.238 -0.2858 -0.1866  0.0236
15125W        W31259   3.420  16.244   0.516 -0.2742 -0.1200 -0.0470
15126W        W31260   0.077   6.786   0.435  0.1345  0.0677 -0.1648
15127W        W31261   6.038  15.046   3.198 -0.1819  0.0185 -0.1621
15128W        W31262  10.528  11.831  14.418  0.0838  0.0364  0.1323
15129W        W31263  10.544   6.512  11.779  0.0092  0.1063 -0.0022
15130W        W31264   5.991   1.681   5.798 -0.0006 -0.1712 -0.1747
15131W        W31265  14.144  11.227   3.594  0.2633  0.2943 -0.2987
15132W        W31266   5.350  17.162  11.573  0.0727  0.0596  0.1730
15133W        W31267  14.045  11.021   1.688 -0.2898 -0.2127 -0.2079
15134W        W31268  17.479   5.607   1.063  0.2304  0.0449  0.1312
15135W        W31269   5.840   3.410   0.353  0.0289  0.4274  0.0553
15136W        W31270  11.673  16.849  13.175 -0.0112  0.1187 -0.1078
15137W        W31271   0.485  14.695   5.015  0.1389 -0.3436 -0.0692
15138W        W31272   7.032  17.826   0.783 -0.3883  0.2166 -0.0575
15139W        W31273   5.774   6.018  12.875  0.1507  0.2842 -0.0457
15140W        W31274   0.420  14.903  12.047 -0.0768  0.0734 -0.0110
15141W        W31275  12.601   2.847  12.854 -0.2772 -0.1133 -0.0845
15142W        W31276  13.038   8.081   4.079  0.1644 -0.1312 -0.0364
15143W        W31277   0.476   9.281  12.560  0.0302 -0.1481  0.0073
15144W        W31278  13.296   1.221  16.334  0.0876 -0.0814 -0.1750
15145W        W31279   8.890   0.784  15.714 -0.1894  0.1155 -0.0061
15146W        W31280  12.803   2.341  12.770  0.0374  0.1735  0.0119
15147W        W31281  15.606  11.844   2.169  0.2325  0.1128 -0.1780
15148W        W31282  14.082   0.124  12.884  0.1685  0.0901  0.0677
15149W        W31283  17.671  14.473   1.050  0.0072 -0.0154  0.1987
15150W        W31284  16.941   8.749  13.375 -0.0938 -0.0563 -0.1626
15151W        W31285  12.766   7.502   4.816  0.0055  0.1598 -0.2998
15152W        W31286  17.275   8.834  16.045  0.0243  0.0723 -0.2353
15153W        W31287   1.316  16.562  15.572  0.0923  0.4292  0.0840
15154W        W31288   5.379  12.022   2.457 -0.0527 -0.2073  0.0376
15155W        W31289  17.186  15.628   3.769  0.2004 -0.0670 -0.2065
15156W        W31290  10.924  16.791  12.847 -0.2338 -0.1282 -0.1078
15157W        W31291   3.458  16.114   5.016 -0.1079  0.1662  0.2326
15158W        W31292  10.700   6.703  15.931 -0.0473  0.1059 -0.3919
15159W        W31293   7.632  16.007  13.506 -0.3814  0.1842 -0.1621
15160W        W31294   0.167  15.601   1.291  0.0392  0.1310  0.0647
15161W        W31295   8.062  15.373   0.333  0.0358 -0.0752 -0.1916
15162W        W31296   1.501   6.086  10.942  0.1153  0.2221  0.1934
15163W        W31297   9.197   8.743   5.526 -0.0870  0.0386 -0.1757
15164W        W31298  17.847   2.072   0.848  0.4305 -0.2467 -0.0278
15165W        W31299   7.759   5.333   1.950  0.2678 -0.1341 -0.1351
15166W        W31300   8.769  14.029  11.257  0.0469 -0.0272 -0.0394
15167W        W31301  15.749  14.609   0.342 -0.0807  0.3852  0.1348
15168W        W31302   3.943   8.585  13.785  0.2333  0.0342 -0.0816
15169W        W31303   4.462   8.038   4.662 -0.0734  0.1972  0.3649
15170W        W31304  12.092  13.912   1.808  0.1348  0.0965  0.1797
15171W        W31305   5.527  17.836  12.325  0.1707 -0.3011  0.2776
15172W        W31306  14.104   0.867   3.654 -0.1341 -0.1075  0.2252
15173W        W31307   6.780   0.839   3.624  0.2391 -0.1171 -0.1001
15174W        W31308  17.842   2.745  14.717 -0.1474  0.2391 -0.0320
15175W        W31309   5.407   3.347   3.581 -0.0202 -0.1793  0.0593
15176W        W31310  11.477   5.132  11.522 -0.0242 -0.0644 -0.0328
15177W        W31311   4.729   0.482   1.794  0.1465 -0.0902 -0.0547
15178W        W31312  12.077   6.049  15.531 -0.1177 -0.1585 -0.1015
15179W        W31313  14.079  10.700  15.922  0.0726 -0.0808 -0.0009
15180W        W31314   9.005  10.507  15.929  0.2454  0.2657  0.2909
15181W        W31315   5.325   7.622  14.518  0.1151  0.1834  0.1246
15182W        W31316  16.041  13.719  14.226  0.0917  0.1261 -0.0824
15183W        W31317   3.586   7.089   1.785 -0.0923  0.1699 -0.0957
15184W        W31318  12.100   7.326   5.528  0.0858 -0.0681 -0.3495
15185W        W31319   0.433  16.406  14.063 -0.0891  0.1337 -0.3258
15186W        W31320   5.678   2.533  11.930 -0.1460 -0.0052 -0.1859
15187W        W31321  11.300  13.943   3.359 -0.2239 -0.2326  0.1203
15188W        W31322  13.570   9.116  11.026  0.0745  0.2751 -0.3800
15189W        W31323   6.971   9.507  14.104 -0.1649 -0.2654 -0.1682
15190W        W31324  16.117  11.012  11.192 -0.3083  0.2009  0.0416
15191W        W31325   8.598  14.839   4.424 -0.2704  0.1171  0.0425
15192W        W31326  10.289  11.761  16.171  0.1196 -0.0857  0.0596
15193W        W31327  13.119   4.168  12.498 -0.1941  0.1119 -0.0150
15194W        W31328   1.384   2.288   0.487 -0.3100  0.0504 -0.0027
15195W        W31329   1.112  10.516   2.159 -0.0511 -0.0341 -0.0341
15196W        W31330  13.778   0.772   5.126  0.1324 -0.0569 -0.0105
15197W        W31331  15.972  10.162  15.839 -0.0944  0.0757  0.1173
15198W        W31332  16.012   4.217   5.607  0.0728 -0.1929  0.1755
15199W        W31333   7.760  11.822  15.799 -0.0317  0.0976  0.3675
15200W        W31334  14.087  15.642   5.007 -0.0612 -0.0826 -0.0779
15201W        W31335  14.301   5.213  11.338 -0.0864  0.1916  0.1611
15202W        W31336   4.044  11.421   4.988 -0.0999 -0.0541  0.1393
15203W        W31337   0.360   5.060   2.149 -0.0280  0.0590 -0.0928
15204W        W31338   3.552  15.444   1.029  0.0805 -0.1674 -0.0646
15205W        W31339   5.329  17.848  11.746 -0.4231 -0.0504  0.1452
15206W        W31340  13.543  12.467   3.780 -0.0767 -0.0638 -0.0106
15207W        W31341   9.952   0.872  15.012 -0.2058 -0.1747 -0.3480
15208W        W31342  15.510   4.094  12.584 -0.0233 -0.3428  0.0610
15209W        W31343  12.681  16.690  13.394 -0.1955  0.0882  0.0354
15210W        W31344   9.734   5.852   0.971  0.0467  0.1809 -0.0704
15211W        W31345   6.911  13.445  12.974 -0.0257 -0.2253 -0.0622
15212W        W31346   8.025  14.519   5.134  0.0489 -0.0878  0.2998
15213W        W31347  11.331   5.282   2.098  0.1664  0.0276  0.2939
15214W        W31348   3.924   6.153  16.040  0.0222 -0.1494  0.1500
15215W        W31349  12.077   4.065  16.278  0.0308  0.0377  0.2708
15216W        W31350   5.324  14.063   6.076  0.0893 -0.0514  0.3311
15217W        W31351  17.430   0.712  15.872 -0.3745 -0.0009 -0.2421
15218W        W31352   4.465  14.435  12.360  0.0384  0.1996  0.0675
15219W        W31353  11.071   0.979  14.264 -0.3329 -0.0636  0.1549
15220W        W31354  13.815  15.769  14.610  0.3530  0.0501 -0.3212
15221W        W31355   7.000   3.849   5.530 -0.0337  0.3338  0.0153
15222W        W31356   5.411   0.270   1.597 -0.2322  0.1445  0.3450
15223W        W31357  13.295  16.400   1.426  0.0648  0.1223 -0.1711
15224W        W31358  13.685   2.666  13.531  0.3473  0.1453 -0.3176
15225W        W31359   7.324   1.835  12.933  0.0243 -0.1119 -0.1736
15226W        W31360  13.360   3.857  12.114  0.2065 -0.1325  0.0751
15227W        W31361   0.729   1.769  10.799 -0.1370 -0.0196  0.0281
15228W        W31362   5.805  10.096   2.292 -0.0204  0.3449 -0.2322
15229W        W31363   2.662   9.515   4.460 -0.0377 -0.1921  0.0704
15230W        W31364   1.588  17.852  15.680 -0.0482 -0.1683  0.1723
15231W        W31365   9.021   1.826  12.767 -0.0993  0.0712  0.1667
15232W        W31366  16.867   3.214   2.531 -0.0102 -0.1126 -0.2827
15233W        W31367  16.553  10.870  11.587  0.0145  0.0100 -0.1137
15234W        W31368   4.769   0.485  15.730  0.1031 -0.0604 -0.2013
15235W        W31369  16.955  15.224   5.778 -0.1058 -0.0817 -0.2487
15236W        W31370   6.735   7.572   0.209  0.0752 -0.1671  0.1164
15237W        W31371  12.103  16.680  13.425 -0.1571  0.1390 -0.1258
15238W        W31372   0.063  15.295   0.899 -0.1959  0.2903  0.0583
15239W        W31373   3.316   0.061  16.186 -0.1265 -0.0092  0.1061
15240W        W31374  15.619   6.676   3.664 -0.1623 -0.2135  0.0641
15241W        W31375   5.637   6.609   3.290 -0.3945 -0.0096 -0.1831
15242W        W31376  14.650  12.733  12.008 -0.2791  0.1209 -0.3571
15243W        W31377   3.516  11.438  14.940  0.1544  0.0797  0.0569
15244W        W31378  11.410  14.082  12.988  0.1763  0.1866  0.0431
15245W        W31379   8.011   7.243  12.611  0.1598  0.2945 -0.1105
15246W        W31380   1.083  10.450  12.829  0.0850  0.0263  0.3124
15247W        W31381   8.286  12.566  15.498  0.2024 -0.0827  0.1679
15248W        W31382  12.889  11.949  16.352 -0.2927  0.4239  0.1181
15249W        W31383  11.691   1.581  15.850  0.2542  0.2717  0.1725
15250W        W31384   1.014   6.148   4.670 -0.1724 -0.0420 -0.0309
15251W        W31385  16.391   6.818  13.787 -0.1844 -0.0335  0.0933
15252W        W31386  17.253   2.500   3.652 -0.2435  0.0776  0.0096
15253W        W31387   2.898  12.913  14.137  0.0459 -0.2020  0.2706
15254W        W31388  13.708  16.943  11.281  0.0592  0.0630  0.1537
15255W        W31389   2.078   5.819   3.181  0.0099  0.2119  0.2123
15256W        W31390  16.637  16.355  15.641  0.1379 -0.0392  0.0246
15257W        W31391  18.026  10.554   4.272 -0.1603 -0.0012  0.2009
15258W        W31392  17.533   2.319   0.356 -0.0821 -0.0110  0.1116
15259W        W31393  13.376   0.801   5.401  0.0093 -0.1087  0.1263
15260W        W31394   6.475   2.348   2.788  0.0035 -0.0032  0.1275
15261W        W31395   1.264   1.705  14.758  0.2390  0.2449 -0.0118
15262W        W31396  12.875   4.421  15.026 -0.0518  0.0019 -0.1584
15263W        W31397  17.640  13.129  14.943  0.1408  0.1928 -0.1006
15264W        W31398   1.208  10.870   5.319  0.4135  0.1623 -0.2503
15265W        W31399  14.084  15.085   3.466 -0.0468  0.0397  0.1588
15266W        W31400  16.853   1.250  14.489 -0.0753 -0.1183 -0.0936
15267W        W31401  10.581   9.954   2.511  0.1065 -0.1383 -0.2937
15268W        W31402  14.615   0.462   2.958  0.3700 -0.0005 -0.0739
15269W        W31403   2.924   5.106  14.381 -0.1875 -0.1639 -0.0524
15270W        W31404   0.853  13.581   4.998 -0.2943  0.1342 -0.1480
15271W        W31405   7.137  15.806   2.785 -0.0201 -0.3488 -0.1528
15272W        W31406   6.695   2.854  14.890  0.2203  0.0345  0.2611
15273W        W31407  14.100  16.648  15.080 -0.0958 -0.2330  0.2120
15274W        W31408   7.941   1.094  13.744 -0.2728  0.1023 -0.0873
15275W        W31409   7.662   1.548   0.919  0.1745 -0.0689 -0.0482
15276W        W31410  16.321   3.889   5.354  0.4201 -0.0607 -0.2920
15277W        W31411  11.446   9.940  16.035  0.1104  0.3008 -0.0523
15278W        W31412  12.150   5.335   2.165  0.0454  0.2239 -0.0183
15279W        W31413  12.240  14.816  14.506 -0.2022 -0.1278  0.1872
15280W        W31414  15.373  14.360   1.910 -0.2992 -0.4606 -0.3336
15281W        W31415  16.467   3.387   0.692 -0.1128  0.3435  0.1671
15282W        W31416  12.019  16.263  12.007 -0.0748  0.0856  0.0564
15283W        W31417  13.005   8.432  11.904  0.0562 -0.0300 -0.0131
15284W        W31418   9.726  17.611  14.780  0.0881  0.2238  0.3324
15285W        W31419   0.312  13.814   1.231 -0.2960  0.0936  0.0688
15286W        W31420   0.385  10.416   3.453  0.1276 -0.1131 -0.0854
15287W        W31421   5.083   5.380   4.858  0.2111  0.1522 -0.0618
15288W        W31422   3.861  13.724   3.863  0.1407 -0.1967  0.2214
15289W        W31423   5.602  13.780  16.183 -0.0726  0.1213 -0.1116
15290W        W31424  16.868  14.578  13.411 -0.0471 -0.1069  0.0978
15291W        W31425   6.778  17.633  15.475  0.2095 -0.0821 -0.0072
15292W        W31426  10.424   0.669  14.016  0.2308  0.0222 -0.1785
15293W        W31427   0.804  13.920   2.979  0.1894  0.1647  0.4715
15294W        W31428   0.744  17.512   5.179  0.1508  0.0476  0.1373
15295W        W31429   2.249  11.831  13.456 -0.3841 -0.1799 -0.3211
15296W        W31430   8.132  10.359  13.916 -0.3031  0.0059  0.1612
15297W        W31431  12.108  10.950   5.990  0.0614  0.0701 -0.1285
15298W        W31432  13.738  13.872  12.643 -0.0117  0.0609  0.0266
15299W        W31433   1.796   6.071  12.838 -0.4360  0.3092 -0.0154
15300W        W31434  13.400  13.974   0.323  0.0788  0.3026  0.1140
15301W        W31435   0.960  17.071   4.350  0.2808 -0.1859  0.2234
15302W        W31436   4.738  17.960  16.350 -0.0343 -0.2167 -0.0322
15303W        W31437   4.658   6.660   0.156  0.3481 -0.1961  0.1173
15304W        W31438  10.595  13.942   4.883  0.0414 -0.0079  0.3451
15305W        W31439  11.658  11.970   1.260  0.0965 -0.1939 -0.0308
15306W        W31440   4.982   3.544  13.785  0.0245 -0.1223 -0.2829
15307W        W31441  11.225   3.041   3.058 -0.1844  0.3683 -0.0486
15308W        W31442   0.482  11.664  12.763 -0.0912 -0.1383  0.2982
15309W        W31443  13.858   3.400   2.453  0.2164  0.2828 -0.0863
15310W        W31444   2.812  13.388  12.681  0.0007  0.1454  0.0535
15311W        W31445   2.317  15.967   0.235 -0.2636 -0.0034  0.1932
15312W        W31446   4.605  14.943   5.012  0.1362  0.0939  0.1987
15313W        W31447  10.523   6.881   5.018 -0.1719  0.1378  0.0396
15314W        W31448   6.780  13.284  15.663 -0.1619  0.0373 -0.1634
15315W        W31449   0.960   1.227  15.781 -0.0705 -0.3012  0.3623
15316W        W31450   2.214   8.611   2.787  0.0241  0.3121  0.0597
15317W        W31451  10.422   7.640   2.886  0.0519  0.0327  0.0529
15318W        W31452  13.426   2.133  16.182  0.0815  0.0105 -0.0900
15319W        W31453   4.542  12.022  16.369 -0.2054 -0.1288  0.1017
15320W        W31454   8.069  15.765   0.672  0.0243  0.1607  0.0480
15321W        W31455  17.089  13.052  15.709  0.1865 -0.4296 -0.0809
15322W        W31456  10.703   2.687  11.697 -0.0529  0.2682  0.0796
15323W        W31457  12.947   1.186   1.543  0.2650  0.4257  0.0577
15324W        W31458  17.571  13.637   2.196 -0.1353 -0.0281 -0.1044
15325W        W31459  10.663   7.639   3.900 -0.3984  0.1716  0.1692
15326W        W31460   6.996   1.353  12.155 -0.0998  0.0169  0.1315
15327W        W31461   9.354  13.758  15.971  0.2912 -0.0163 -0.0968
15328W        W31462   6.799  12.054  15.384 -0.0317 -0.0853 -0.0133
15329W        W31463  14.155  13.278   2.812  0.1203  0.2293 -0.3298
15330W        W31464   2.687  11.219   4.274  0.1177 -0.2555  0.2789
15331W        W31465   3.485   0.261   5.499 -0.0596  0.0776  0.2500
15332W        W31466   3.010   6.972  14.960 -0.0175  0.0394  0.1983
15333W        W31467   4.640   9.114   0.144 -0.2296 -0.2580 -0.0314
15334W        W31468   5.921  13.196   0.476  0.0203 -0.0415 -0.0597
15335W        W31469  16.749   3.201   3.866  0.1846 -0.0900 -0.1562
15336W        W31470  11.192   7.479   5.423 -0.0875  0.0065 -0.5753
15337W        W31471  12.524  12.943  12.883  0.1585 -0.0224  0.1078
15338W        W31472   5.395   4.555   4.420  0.0798  0.1892  0.1362
15339W        W31473   0.098   7.989  12.594 -0.0130  0.0006 -0.1813
15340W        W31474  11.749  12.565   4.478 -0.1542  0.1891  0.1122
15341W        W31475   3.024   1.808   2.702  0.0981 -0.0629  0.0437
15342W        W31476  15.941   2.688   4.094  0.2273 -0.0545 -0.3902
15343W        W31477   8.782   9.177   0.556  0.3089 -0.0687 -0.0798
15344W        W31478   3.557   4.681  13.053  0.0720  0.0654  0.1138
15345W        W31479   2.496   9.964   5.677  0.2770 -0.1629 -0.0633
15346W        W31480   9.808  11.127   0.529  0.3707  0.3293 -0.0212
15347W        W31481  17.591   8.422  12.399  0.0089  0.0332 -0.1355
15348W        W31482   6.891  14.917   4.004 -0.0041 -0.2497 -0.1274
15349W        W31483   5.713   6.835  14.664 -0.0140  0.0628  0.0028
15350W        W31484  13.950  13.275   5.341  0.3102  0.1759  0.0333
15351W        W31485  13.210   7.462   2.771  0.2314  0.0247  0.1814
15352W        W31486   5.772   7.887   4.429  0.3645 -0.1201  0.3075
15353W        W31487   3.598   7.023   4.362  0.0358  0.2273  0.1470
15354W        W31488   0.886  17.770   4.636  0.1081 -0.1400  0.0474
15355W        W31489  16.740  14.898   2.620 -0.1646  0.0912 -0.0799
15356W        W31490   4.217   4.754  13.011  0.2142  0.0672  0.1598
15357W        W31491   0.010   8.057  16.261 -0.0490  0.0339  0.2485
15358W        W31492   1.243   9.641   2.551  0.3554 -0.0098 -0.0247
15359W        W31493   1.726   8.149  15.197  0.0888 -0.0426  0.0950
15360W        W31494  10.276  16.421  11.684 -0.2534 -0.1113 -0.0631
15361W        W31495  10.463   8.876  15.902  0.1346 -0.2123 -0.0711
15362W        W31496  13.155  14.259  12.932  0.0043 -0.1646 -0.0626
15363W        W31497  15.923   3.563   5.133 -0.1728 -0.0332 -0.0279
15364W        W31498  16.962   0.978  11.458  0.0990  0.1748  0.0703
15365W        W31499  14.368  12.524   4.203  0.1883 -0.1394  0.2098
15366W        W31500   0.740  14.356  12.290  0.0280  0.0523  0.0010
15367W        W31501  11.521   7.516  15.105 -0.1416 -0.0051 -0.1321
15368W        W31502   8.366  15.995  11.240 -0.0358 -0.3277 -0.0459
15369W        W31503   7.501   1.306  11.262  0.0015 -0.0123  0.4320
15370W        W31504  11.205   9.567  10.441  0.2138  0.0286  0.1245
15371W        W31505   8.564  10.131   1.366  0.1836 -0.1939 -0.2106
15372W        W31506  11.385  16.179  15.762  0.1469  0.1462 -0.3208
15373W        W31507   2.334   7.114   0.860 -0.3272  0.2761  0.0268
15374W        W31508   5.247  14.812  14.730 -0.2441  0.0499 -0.0614
15375W        W31509   3.980   6.813   0.528 -0.4265 -0.2157  0.2502
15376W        W31510  12.741   2.095  13.471  0.0735  0.1889  0.1923
15377W        W31511   2.270   9.841   3.503  0.0142  0.0832 -0.2065
15378W        W31512  17.162   2.326   1.787  0.0783  0.1306 -0.1826
15379W        W31513  14.802   3.884   3.022 -0.0424  0.2681  0.3741
15380W        W31514   0.405  16.935   0.659 -0.0708 -0.0675  0.0762
15381W        W31515   5.729   4.265   2.167  0.2590  0.1211  0.0476
15382W        W31516   4.990  11.277   2.103  0.1903  0.0634 -0.0006
15383W        W31517  12.744  14.326   1.190 -0.2673  0.0710 -0.2452
15384W        W31518   3.379   9.492  11.420  0.3063  0.0065  0.0678
15385W        W31519  14.060   2.922  15.066 -0.2525 -0.1061 -0.1081
15386W        W31520   3.981  16.795   1.026  0.2918 -0.3793 -0.0231
15387W        W31521   5.778   8.878  11.500 -0.2430  0.0213 -0.2115
15388W        W31522   1.845  16.607  13.452  0.2412 -0.0980  0.0088
15389W        W31523   2.898  13.192  13.300 -0.2059  0.1374 -0.1922
15390W        W31524   8.346   9.765  12.705  0.1144 -0.2888 -0.0682
15391W        W31525   3.946   5.052  13.274  0.1208 -0.1109  0.1281
15392W        W31526   7.513   9.248   5.370 -0.2947 -0.1040  0.0013
15393W        W31527   3.489  10.429   2.128 -0.1220  0.2140  0.1863
15394W        W31528   6.613   4.631  15.380 -0.1765 -0.0203 -0.0147
15395W        W31529   8.842   7.080   5.255  0.5241 -0.0931  0.2210
15396W        W31530  13.493  15.990   1.621 -0.0681 -0.0368  0.1266
15397W        W31531   5.515   6.789   4.119  0.2317 -0.0895  0.0760
15398W        W31532  13.269   9.771  11.550 -0.3307  0.0139  0.2447
15399W        W31533   5.933   7.049  16.252  0.0879 -0.2830 -0.3198
15400W        W31534   3.990   3.883   1.932 -0.2659 -0.2851  0.0011
15401W        W31535   8.213   2.429   2.425  0.0493  0.0843  0.1473
15402W        W31536  10.859  17.272  16.368 -0.1281 -0.0020 -0.0929
15403W        W31537  14.132   3.911  12.393  0.1415  0.1827 -0.3141
15404W        W31538   9.144   1.813   2.513  0.1166 -0.1823 -0.2707
15405W        W31539  17.301  13.817  13.673  0.1776 -0.3900  0.0121
15406W        W31540   2.606  12.932  11.762  0.1251  0.0459 -0.2412
15407W        W31541   0.081   9.546  12.792  0.4269 -0.0601  0.3111
15408W        W31542   3.311  10.443  14.075 -0.0653  0.1232 -0.1782
15409W        W31543   9.869  16.057   2.572 -0.1342  0.0182  0.0904
15410W        W31544  10.715  13.985   2.525  0.3231  0.1770 -0.0706
15411W        W31545   3.776   4.033  13.613  0.0923 -0.0800 -0.1190
15412W        W31546   8.569  13.227   0.023  0.1036  0.0334  0.0425
15413W        W31547  11.793  17.817   2.424  0.0858  0.2039  0.1057
15414W        W31548  12.800  16.860   1.199 -0.0872  0.2433 -0.0699
15415W        W31549   4.890  14.514  11.648  0.2676 -0.0913  0.2281
15416W        W31550   0.537  15.881   1.668 -0.0157 -0.1041  0.0035
15417W        W31551  13.021  11.649  14.289 -0.2066  0.0357 -0.1803
15418W        W31552   4.007   7.904   2.224  0.1269  0.4028 -0.1440
15419W        W31553   4.305  15.199   0.889  0.3545 -0.1590 -0.3318
15420W        W31554  17.573  10.339   4.593 -0.0694  0.0222 -0.2636
15421W        W31555   4.228  10.834   1.920 -0.0352  0.0544 -0.0278
15422W        W31556  16.936   3.787  12.131 -0.2977 -0.2236  0.1517
15423W        W31557   2.816   7.654   5.094 -0.1668  0.0992  0.1886
15424W        W31558  16.154   6.986   1.569  0.4229 -0.0395 -0.2737
15425W        W31559  17.888   8.439   0.367 -0.1089  0.1456 -0.0074
15426W        W31560  10.571   7.683   3.337  0.2991 -0.3400 -0.1582
15427W        W31561  10.203  11.462  15.169 -0.1977  0.1384  0.0400
15428W        W31562   4.068   0.865   4.804 -0.0469 -0.1015  0.0319
15429W        W31563   0.872   4.270   3.649 -0.1903 -0.2458 -0.2498
15430W        W31564   0.850   8.168   5.858 -0.0656 -0.1231  0.3753
15431W        W31565  14.084  14.304   1.282 -0.3075 -0.1463  0.1276
15432W        W31566   2.421  12.700  15.820 -0.1734 -0.1597 -0.2612
15433W        W31567   6.497  16.898   1.780  0.1705 -0.0765  0.0926
15434W        W31568   6.435  13.229  16.038  0.1727 -0.0340 -0.1039
15435W        W31569   4.259  17.403   0.703 -0.1064  0.0421  0.4017
15436W        W31570   0.415   5.944   5.096  0.0585  0.0873 -0.1904
15437W        W31571   5.509   6.358   4.330  0.1220 -0.0264  0.2300
15438W        W31572   2.928  15.134   4.038 -0.2206 -0.1204 -0.2820
15439W        W31573   6.108   6.480  14.792 -0.0234  0.3865  0.3804
15440W        W31574   9.606   5.449  14.309  0.2024  0.0916 -0.0720
15441W        W31575  16.698  11.070   4.374  0.0552 -0.0052 -0.1184
15442W        W31576   1.192  16.078  15.134  0.0775  0.1416 -0.0773
15443W        W31577   5.979  14.648  12.245 -0.0751  0.0819 -0.1173
15444W        W31578  16.840   0.920  13.499 -0.1237  0.1152 -0.0799
15445W        W31579   5.648   6.197   2.816  0.2837 -0.2281  0.1645
15446W        W31580   7.701   0.331  14.537 -0.2333 -0.0169  0.1615
15447W        W31581   6.732   3.875  15.554 -0.0266 -0.0218 -0.3698
15448W        W31582   4.090  16.897   0.443  0.3014 -0.2107  0.0398
15449W        W31583   0.390  10.286   4.001  0.0040  0.1355  0.1781
15450W        W31584   8.651   2.785   4.099 -0.2569 -0.1936  0.1103
15451W        W31585   5.710  12.358  13.626 -0.1922 -0.3941 -0.1579
15452W        W31586   6.849  13.180   4.963  0.2056  0.3932  0.1389
15453W        W31587  16.521   9.163   0.838 -0.0730 -0.1708 -0.0356
15454W        W31588   4.483   3.892   2.668 -0.1812 -0.0394 -0.1205
15455W        W31589  15.531   6.401   1.169 -0.1259 -0.4160 -0.3655
15456W        W31590  11.746  14.002   2.695  0.1102  0.0507  0.1563
15457W        W31591   2.055   9.979  14.570 -0.2034 -0.0107 -0.0930
15458W        W31592   8.992  12.630  15.787  0.1458 -0.0712 -0.0478
15459W        W31593   5.384  14.894  11.527 -0.2353  0.4222 -0.1911
15460W        W31594  12.433  14.377   3.180 -0.1312  0.0559 -0.0224
15461W        W31595   1.430   7.351  13.630  0.1359  0.0477 -0.0365
15462W        W31596   2.112   6.448   4.002  0.0475 -0.1180 -0.0676
15463W        W31597  10.184  17.525  14.434  0.1369  0.3958 -0.3749
15464W        W31598  16.764   4.116  12.661 -0.2012  0.1454  0.0952
15465W        W31599   4.396   7.617   2.460  0.0313 -0.2940 -0.3281
15466W        W31600   7.514  17.584   0.831  0.2166 -0.0353  0.3031
15467W        W31601   6.945  11.006   5.165 -0.3425 -0.1373  0.1786
15468W        W31602  17.104   7.923   1.143 -0.1857 -0.3059  0.1366
15469W        W31603   3.724   3.028   5.238  0.2793 -0.2307  0.0009
15470W        W31604   2.281   6.616  14.791 -0.0533 -0.3954 -0.3369
15471W        W31605   3.659  16.486   3.562 -0.1730  0.1453 -0.0649
15472W        W31606  17.501  12.116   5.455 -0.2757  0.1063  0.0464
15473W        W31607   2.219   4.206   3.112 -0.2928 -0.1625  0.0705
15474W        W31608   1.096  13.006   0.312 -0.0204  0.0882 -0.1784
15475W        W31609  15.263   3.081   2.685  0.1481  0.0513 -0.0957
15476W        W31610   1.045  12.116  10.971  0.0790  0.0100  0.2273
15477W        W31611  14.168  12.246   1.022  0.0456  0.1291 -0.1807
15478W        W31612   1.640  10.174   1.335  0.1306 -0.0712 -0.1302
15479W        W31613  17.590   5.295  10.391 -0.1434 -0.0953  0.1028
15480W        W31614   6.401  18.003   5.367 -0.1205  0.0955  0.1176
15481W        W31615  13.302  14.482   1.699 -0.0326 -0.0119  0.0845
15482W        W31616   5.572   0.167  16.340 -0.0278 -0.2445 -0.0026
15483W        W31617  13.186   5.686   3.290  0.0094 -0.1929 -0.2264
15484W        W31618  16.442  11.321   1.169  0.1426  0.0606  0.0936
15485W        W31619   0.765  17.753  12.218  0.1451 -0.0905  0.0979
15486W        W31620   1.147  10.342  14.160 -0.2881 -0.0332 -0.3690
15487W        W31621  14.409   0.048   1.658  0.0565 -0.1551 -0.0139
15488W        W31622  14.670  12.005   5.052 -0.0197 -0.0551 -0.2396
15489W        W31623   3.158  17.231  11.683 -0.1618  0.0854 -0.0510
15490W        W31624   5.884  10.919   1.650 -0.2553 -0.2033 -0.3033
15491W        W31625   8.871  17.770  14.700 -0.1827  0.0282  0.0305
15492W        W31626  15.356  15.710   2.291 -0.0531  0.1017 -0.1063
15493W        W31627   1.709   2.212  12.252  0.0525  0.1041 -0.1522
15494W        W31628   4.035  10.955   4.713 -0.0223  0.0841 -0.0003
15495W        W31629   5.975  11.564   1.058  0.0846  0.0526  0.0149
15496W        W31630   5.000   5.035  11.153 -0.2659  0.0807  0.1488
15497W        W31631   6.135   6.110  13.310 -0.2984  0.2119  0.1786
15498W        W31632   0.052   9.729  13.285 -0.0734 -0.0708  0.0964
15499W        W31633  15.298   3.203  12.359 -0.1624 -0.0299  0.0317
15500W        W31634   2.190   7.432   1.339 -0.0905 -0.1939 -0.0081
15501W        W31635  13.427   1.411   0.424 -0.2263  0.0186 -0.1717
15502W        W31636  15.652  18.041   6.160 -0.2304 -0.0511  0.3741
15503W        W31637   8.969  12.411   1.666  0.0488 -0.0651  0.0345
15504W        W31638  14.843  15.088   2.326 -0.0245 -0.3211 -0.2668
15505W        W31639   1.047   7.128  15.367  0.1393 -0.1468  0.0602
15506W        W31640  15.815   8.500  14.838  0.1351  0.1251  0.3424
15507W        W31641  16.839  14.933   0.281  0.0683  0.0995 -0.2880
15508W        W31642   1.358   5.613   4.953  0.0283  0.3055 -0.0191
15509W        W31643  12.423  14.819  12.514 -0.2759 -0.2312  0.0859
15510W        W31644  10.687   6.791   5.968 -0.0749  0.1148 -0.1608
15511W        W31645   5.357  15.351  11.797 -0.0487 -0.3240  0.1693
15512W        W31646   7.284   7.988  15.863  0.2276 -0.4022 -0.1897
15513W        W31647  11.775   7.251  13.186  0.1854 -0.2302  0.3023
15514W        W31648   9.992  10.964  13.155  0.0551  0.0490 -0.1571
15515W        W31649   3.617   5.538   5.342 -0.0111  0.1319 -0.1491
15516W        W31650  16.914  16.947  14.575  0.0428  0.0865  0.0055
15517W        W31651   6.270   0.039   1.431  0.0137 -0.1231  0.2654
15518W        W31652   9.367   0.863   2.803 -0.3885 -0.0500 -0.2128
15519W        W31653   1.152  10.753   3.299 -0.0232 -0.2157 -0.0113
15520W        W31654   7.014   1.027   3.112  0.1669 -0.0991 -0.2557
15521W        W31655  13.957   5.542  13.019 -0.1351 -0.0905 -0.1095
15522W        W31656  13.411  15.191   4.626 -0.0781  0.0910 -0.2585
15523W        W31657   5.364   0.165  12.078 -0.2157 -0.1115  0.0400
15524W        W31658   2.940  16.546   4.257 -0.2815 -0.0670 -0.0121
15525W        W31659   4.788   6.325  16.233  0.2153 -0.1109  0.0509
15526W        W31660   4.009   1.593   1.274 -0.0475  0.0656  0.0343
15527W        W31661   4.015  13.662  15.619  0.1695 -0.3124  0.0240
15528W        W31662   8.574  12.251  12.567  0.1287 -0.2850 -0.0126
15529W        W31663   7.068   1.917  11.386  0.1669  0.0836 -0.0681
15530W        W31664  14.137   6.697  12.959 -0.0825 -0.2653 -0.0913
15531W        W31665  11.399  16.898   3.208 -0.1040 -0.0233 -0.1599
15532W        W31666   3.848  11.190  12.793 -0.0182 -0.1992  0.1540
15533W        W31667  15.686   7.117   4.957 -0.0741 -0.0617  0.1269
15534W        W31668  12.878   6.886  12.539  0.2637 -0.4300  0.0959
15535W        W31669   1.656  11.449  11.297 -0.1090  0.1924 -0.1275
15536W        W31670   4.638   1.457  15.208 -0.0922  0.0554 -0.3898
15537W        W31671   5.912  17.982   6.022  0.0465 -0.1256 -0.0533
15538W        W31672  15.592   9.298   5.309  0.2680  0.0508 -0.2320
15539W        W31673   9.524   9.610   1.029 -0.1295  0.2184  0.1960
15540W        W31674   1.843   0.610  11.584  0.2172 -0.1063 -0.2609
15541W        W31675  12.531   9.624  16.397 -0.3088 -0.2629  0.0288
15542W        W31676  18.024  10.513  15.106 -0.1313  0.1634 -0.0477
15543W        W31677   0.391   3.039   4.020  0.1935 -0.0533 -0.3307
15544W        W31678   5.756  16.118  13.523 -0.2148  0.1956  0.0197
15545W        W31679   0.622  11.552   2.299 -0.1216 -0.0576  0.4068
15546W        W31680   6.954   5.020   1.088  0.2282  0.1571  0.0125
15547W        W31681  17.788  12.287  13.392 -0.1345 -0.0851 -0.0281
15548W        W31682  11.086   8.539  13.714  0.1089 -0.0948 -0.3729
15549W        W31683   8.475  12.497   4.292 -0.1512 -0.4064 -0.1862
15550W        W31684   9.500  13.698   0.907 -0.1702  0.0397  0.0349
15551W        W31685  12.907   7.997   3.544  0.0344 -0.3609  0.0164
15552W        W31686   9.751  11.380  12.811  0.0117 -0.3237  0.0785
15553W        W31687   9.251  14.238   5.685  0.2437  0.1666 -0.2246
15554W        W31688  15.037  17.403   0.501 -0.0802 -0.1258  0.2531
15555W        W31689   5.355  11.128   3.272  0.1048 -0.0372 -0.1772
15556W        W31690   2.957   1.736   0.351  0.0011 -0.2791  0.2772
15557W        W31691   2.805   2.772  15.173 -0.0958 -0.1680 -0.0362
15558W        W31692   3.140  16.964   4.081 -0.2726 -0.1317 -0.1247
15559W        W31693  16.443   3.985   3.736  0.0527  0.0159 -0.0069
15560W        W31694   3.519  17.873  14.651  0.3104 -0.2593  0.1590
15561W        W31695   3.206   9.522   4.341 -0.1664  0.0873  0.0205
15562W        W31696   2.200  11.055   1.843 -0.1187  0.0332  0.1417
15563W        W31697  14.335  11.084   4.206  0.1127  0.0890  0.3130
15564W        W31698   4.401   8.093   2.747 -0.0148 -0.4621  0.2207
15565W        W31699   1.237  13.043   1.264  0.0305 -0.0129  0.0890
15566W        W31700   3.901   2.893   3.825 -0.0312 -0.1376  0.0734
15567W        W31701  17.745  14.009   0.390 -0.2687  0.0618 -0.0600
15568W        W31702   3.033  10.296  14.964  0.1773  0.0298 -0.2747
15569W        W31703   5.762   8.499   5.117  0.0980 -0.1566  0.0730
15570W        W31704   9.389   0.122   4.434 -0.0967 -0.1622 -0.0329
15571W        W31705   5.344   3.738  11.949 -0.1543  0.0447 -0.3621
15572W        W31706  15.464  12.273   3.430 -0.0944  0.1876 -0.1928
15573W        W31707  13.808  17.794   2.204 -0.0774 -0.0083 -0.1004
15574W        W31708   6.609   4.144  14.599  0.0252 -0.1790  0.1724
15575W        W31709  13.770   0.550   3.895 -0.1019 -0.3616  0.1483
15576W        W31710  13.813   3.804   2.072  0.0944  0.0180 -0.1112
15577W        W31711   7.144   6.418   1.368 -0.1973 -0.0939  0.2142
15578W        W31712  11.004  11.799   4.004  0.0520 -0.0593  0.0282
15579W        W31713   6.795  12.454   3.723 -0.1416  0.1644 -0.3148
15580W        W31714   9.330   2.994  15.141 -0.1080  0.1070 -0.2808
15581W        W31715  16.659  15.465   5.238  0.0101  0.3128 -0.3076
15582W        W31716   7.353   8.805   3.653  0.1016  0.0890  0.0877
15583W        W31717   3.176  13.082   4.450 -0.2085  0.3211  0.0168
15584W        W31718   3.581   0.600   2.488 -0.2505 -0.0411 -0.0962
15585W        W31719   3.381   6.545   4.326  0.0407  0.1873 -0.2093
15586W        W31720   6.035  13.522  15.886  0.0452 -0.1696  0.0533
15587W        W31721   4.562   9.649   3.818 -0.0946  0.1525 -0.3825
15588W        W31722   4.736  17.311   4.537  0.2980 -0.1041  0.0287
15589W        W31723  16.206  10.409  15.104 -0.1953  0.0128 -0.0343
15590W        W31724  10.346  15.046   4.928  0.2111 -0.7487  0.0154
15591W        W31725   6.242  10.169  15.732  0.0645  0.4062  0.1175
15592W        W31726  13.069   0.852   3.366 -0.3656 -0.0138 -0.0711
15593W        W31727   1.754  10.449   5.947 -0.1182  0.0732  0.2355
15594W        W31728   8.484  12.069  15.204 -0.1684 -0.1844 -0.1181
15595W        W31729  15.952   4.407   0.876  0.4496 -0.1752  0.0511
15596W        W31730  14.842   7.825   1.130  0.3802 -0.2497 -0.0528
15597W        W31731  12.142   5.866  12.616 -0.1587 -0.2219  0.2146
15598W        W31732  12.917   6.159  16.216 -0.0546  0.0303  0.3835
15599W        W31733  12.447   5.794  16.340 -0.0167  0.0223  0.1617
15600W        W31734   1.145   1.442  12.270  0.1219 -0.0445  0.0581
15601W        W31735  12.066   8.037   5.447 -0.3947  0.2379 -0.3349
15602W        W31736  11.710  17.664  10.992 -0.1290  0.0663  0.0783
15603W        W31737  16.476   3.222  14.746  0.0138  0.1587 -0.0453
15604W        W31738   0.846   5.014   3.419  0.3313 -0.0537 -0.3937
15605W        W31739   2.615  18.009   5.291 -0.1692  0.0363  0.1100
15606W        W31740   5.991   7.632  11.446 -0.0753  0.3729  0.0583
15607W        W31741   5.120  17.653  13.125  0.1931  0.1283  0.0420
15608W        W31742  11.227  14.787   2.413  0.1850  0.0247 -0.0368
15609W        W31743   5.060  12.865  13.095  0.2349 -0.3038 -0.3405
15610W        W31744   0.434  12.093   0.409 -0.1252 -0.1298  0.1987
15611W        W31745  14.104  10.504   0.453 -0.0215 -0.2372  0.2275
15612W        W31746  15.519   8.974  11.333  0.1365 -0.1662 -0.1034
15613W        W31747   7.185  12.603  14.069 -0.1104 -0.0710 -0.3099
15614W        W31748   3.054  13.304  15.920  0.0725 -0.0059 -0.0196
15615W        W31749   9.367  14.609  14.644  0.1586  0.2091  0.0980
15616W        W31750  10.642  15.530   5.405 -0.1314  0.0901 -0.3808
15617W        W31751  17.056  11.943   2.404  0.1486 -0.0898 -0.2684
15618W        W31752   3.729   0.383  13.538 -0.0902  0.0897 -0.2374
15619W        W31753  17.958  13.330   4.903  0.3603 -0.0159 -0.1581
15620W        W31754   5.079   8.046  13.841  0.0595 -0.3217  0.1495
15621W        W31755  12.469   7.150   0.205 -0.0164  0.0456  0.1374
15622W        W31756  10.219  17.897  16.399  0.0564  0.1431 -0.2723
15623W        W31757  16.274   6.866  12.461  0.0175 -0.2137 -0.1983
15624W        W31758   3.747  12.559   2.967  0.0237 -0.2689 -0.1690
15625W        W31759  16.064  11.851  10.951  0.1460  0.0845  0.0509
15626W        W31760   4.838  12.020  14.575 -0.0377  0.1901 -0.0313
15627W        W31761   7.853   0.668  16.318  0.1763 -0.1265  0.5159
15628W        W31762   0.255  14.451  10.752  0.0185 -0.1333 -0.0554
15629W        W31763  15.971   2.276   0.219  0.2410  0.3162  0.2873
15630W        W31764  17.914   5.467   5.258 -0.2467  0.1616 -0.0124
15631W        W31765   0.624  10.563   3.058  0.2227  0.0080 -0.2047
15632W        W31766  16.174  16.637   1.680  0.1783  0.1640 -0.3559
15633W        W31767  16.779  18.042   2.279 -0.1255 -0.0997  0.1828
15634W        W31768  16.494  17.957  13.859 -0.0819  0.1455 -0.0141
15635W        W31769  15.058   8.919   2.793  0.3116 -0.2162  0.2870
15636W        W31770   2.280   2.640  13.987 -0.0762  0.2127 -0.2431
15637W        W31771   6.324   8.002   2.008 -0.3753  0.0878  0.0850
15638W        W31772   2.797   3.749   1.800 -0.2063 -0.0728 -0.1283
15639W        W31773   6.046   1.928  14.044 -0.0339 -0.2467 -0.1146
15640W        W31774  10.384   0.262   0.731 -0.2877  0.1570  0.1795
15641W        W31775   7.204  13.188   2.002  0.1395  0.1364  0.1254
15642W        W31776   1.973   1.482  11.842 -0.3841 -0.1431  0.0947
15643W        W31777  17.320  10.033  15.543  0.1135 -0.2025  0.2025
15644W        W31778   3.185  17.142  13.003  0.1579  0.2140 -0.2630
15645W        W31779   3.121   1.150  11.282 -0.1670  0.2827 -0.0817
15646W        W31780  14.101   5.850   1.562 -0.1403  0.3003 -0.0046
15647W        W31781  17.333  14.433   2.363 -0.1883 -0.1370  0.0904
15648W        W31782   6.236  14.196   4.900 -0.0031 -0.1742  0.4618
15649W        W31783  13.607   9.931   0.583 -0.2441 -0.3238 -0.0856
15650W        W31784   9.603  13.690  13.192 -0.1272  0.1521 -0.1473
15651W        W31785   9.299   8.395  14.091 -0.1391  0.2542  0.2800
15652W        W31786   3.175  12.837   5.929  0.1561 -0.1828  0.2513
15653W        W31787   3.511   6.927   0.291  0.1653  0.0397 -0.4791
15654W        W31788   7.579   8.022   1.263 -0.1883  0.1963 -0.0878
15655W        W31789  13.252   3.552  12.906 -0.0215  0.0091 -0.1419
15656W        W31790   3.967   5.834  15.255 -0.0227  0.1056 -0.0396
15657W        W31791   3.865   0.549  12.805  0.3215  0.1770  0.0750
15658W        W31792  16.390  16.940  12.424 -0.1135 -0.2928 -0.1751
15659W        W31793   7.519  11.573  12.770  0.0879  0.0942  0.0714
15660W        W31794   0.586   4.184  11.516 -0.2142 -0.1885 -0.2174
15661W        W31795   2.968   6.431  16.165  0.3646 -0.1893 -0.1069
15662W        W31796  11.423  15.071   1.418 -0.2329  0.0177  0.1364
15663W        W31797   9.339   4.735  12.734 -0.2144  0.2197 -0.0084
15664W        W31798   4.312   6.662   1.386  0.1671  0.0516 -0.0895
15665W        W31799   7.395  10.064  11.814 -0.0794 -0.2225 -0.0766
15666W        W31800   7.384   6.842  10.495  0.0345 -0.2443  0.1497
15667W        W31801  10.708   7.870  14.997  0.1130 -0.0092 -0.0673
15668W        W31802   3.558   6.502  12.761  0.2879 -0.0218  0.0647
15669W        W31803   9.452  10.052  13.673  0.0601  0.0380 -0.0882
15670W        W31804  10.331   8.596   4.882  0.0685 -0.0290 -0.2318
15671W        W31805   0.208   9.270   1.438 -0.1302 -0.3165  0.0701
15672W        W31806   9.835  13.989  11.345 -0.0828 -0.0892 -0.1373
15673W        W31807   2.086  12.101   1.082  0.0328  0.0524  0.4007
15674W        W31808   3.717   9.170  15.911 -0.1813 -0.0485 -0.1325
15675W        W31809  16.644   3.657  14.508  0.1524  0.0406 -0.1801
15676W        W31810   1.226  17.416  14.683 -0.0072 -0.0358  0.0058
15677W        W31811   6.564   0.737  14.087  0.2911 -0.0657  0.2520
15678W        W31812   6.711  17.995   1.216 -0.2140 -0.3637  0.0705
15679W        W31813   2.031   6.194   3.559 -0.1869 -0.0622 -0.0012
15680W        W31814   7.642   9.712   0.004 -0.0654 -0.1740  0.0010
15681W        W31815   6.810  17.669  12.521 -0.1716  0.2694 -0.0631
15682W        W31816   5.918   4.072  13.068  0.2836 -0.2186  0.0728
15683W        W31817   9.413  10.521  12.654  0.0028  0.2027  0.1960
15684W        W31818  16.826  11.588  14.675 -0.1928  0.1012 -0.0887
15685W        W31819   2.257   1.465  12.328  0.0260 -0.1338 -0.4006
15686W        W31820   3.628   9.602   3.062 -0.1430 -0.0069  0.0470
15687W        W31821   0.188   7.297  10.595  0.2193  0.1034 -0.0736
15688W        W31822   6.759   3.256   0.617 -0.0985  0.1615 -0.2267
15689W        W31823  11.086   3.831  15.514 -0.2226  0.1236  0.1718
15690W        W31824  17.572  16.008   5.797 -0.0269 -0.1935  0.1027
15691W        W31825   1.542   5.754  13.133  0.0220  0.1477  0.0519
15692W        W31826  14.482   4.362  14.646  0.0285  0.0501  0.1784
15693W        W31827   7.876   5.480  11.568 -0.0768  0.0705  0.1790
15694W        W31828  12.913  10.003   5.098  0.1239 -0.1329  0.2943
15695W        W31829   3.224   5.243  13.218 -0.0366  0.1025 -0.0840
15696W        W31830   5.071   3.772  13.186 -0.1916  0.1373  0.0403
15697W        W31831   7.083  15.342   0.933 -0.1067 -0.0143  0.0465
15698W        W31832  10.648   4.768  14.866 -0.0831 -0.1566 -0.0894
15699W        W31833   1.074   4.310   4.794  0.1235 -0.1758 -0.1042
15700W        W31834   5.146  11.502   3.033 -0.1269  0.2579  0.0638
15701W        W31835   8.565   1.624   0.198 -0.0887 -0.1455 -0.0644
15702W        W31836   0.270  10.037  11.852  0.3283 -0.1622  0.0259
15703W        W31837   1.591   2.036   5.053  0.1416 -0.0376 -0.2855
15704W        W31838   7.526  10.931  15.355  0.2314 -0.3223 -0.0346
15705W        W31839   3.499  13.457  13.978 -0.3444  0.1632 -0.1906
15706W        W31840   7.704   3.147  12.600  0.1395  0.0745 -0.3125
15707W        W31841  13.444   4.137   5.306 -0.1638 -0.0031 -0.1129
15708W        W31842   2.706   8.263  12.122 -0.2015 -0.3022  0.0519
15709W        W31843   8.996  16.692  14.914 -0.1891 -0.1941  0.0043
15710W        W31844   2.488  10.690  12.787 -0.2022  0.2710 -0.0417
15711W        W31845   4.953  16.794  15.333  0.0616 -0.0785  0.1423
15712W        W31846   7.041   9.095  12.897 -0.0823  0.2123  0.0632
15713W        W31847   2.824   2.010   4.274 -0.0947 -0.0446  0.0299
15714W        W31848   1.264   3.440   3.652  0.0652 -0.0323 -0.0203
15715W        W31849  16.007   9.947   3.358  0.1017 -0.2461 -0.0692
15716W        W31850  16.884   0.023   5.192  0.0927 -0.1247 -0.0391
15717W        W31851   9.496   3.616   2.106 -0.1837  0.1364 -0.0402
15718W        W31852  14.826  16.095  12.750  0.2406 -0.3792  0.0683
15719W        W31853  16.474   0.666   2.466 -0.0800 -0.2296 -0.0731
15720W        W31854  14.430   6.592  12.264  0.0200 -0.1876 -0.2245
15721W        W31855   3.640   6.243  14.230  0.1168 -0.0034  0.0132
15722W        W31856   2.899   5.019  13.877  0.2541 -0.1890  0.2742
15723W        W31857   4.184  15.693  11.901 -0.1806  0.2839  0.1308
15724W        W31858   9.447   2.422   0.191 -0.1870  0.0351 -0.0855
15725W        W31859  13.787   6.349   1.919  0.0048 -0.0511  0.2459
15726W        W31860   9.194  12.327  11.610 -0.1314  0.2680  0.1053
15727W        W31861  16.245  10.237   0.459  0.0181  0.2048  0.0298
15728W        W31862  16.041  13.428  11.047 -0.3596 -0.4038 -0.4083
15729W        W31863   2.984   5.354   1.866  0.2675 -0.0606  0.3505
15730W        W31864  11.569   3.997  15.308  0.1402 -0.1352  0.2300
15731W        W31865  11.115  14.004   4.313 -0.3159 -0.0002  0.0068
15732W        W31866   8.159   3.368   0.863 -0.0057  0.1651  0.3180
15733W        W31867   7.759  14.453  11.959 -0.1175  0.2275 -0.2832
15734W        W31868   4.390   9.403   4.405 -0.2321  0.0427 -0.0025
15735W        W31869   1.248  13.324  14.380 -0.0348  0.0323 -0.1753
15736W        W31870  12.241   6.109   0.258  0.0594  0.1492  0.1815
15737W        W31871   5.062   9.088  15.889  0.1354  0.0010 -0.1567
15738W        W31872  11.499   7.600  12.637 -0.2556 -0.1488  0.1887
15739W        W31873  15.502  13.576   3.385  0.2647 -0.0262 -0.1038
15740W        W31874   8.813   4.727  14.033 -0.1533 -0.1576 -0.1151
15741W        W31875  17.315   5.641   2.336  0.1259 -0.0628 -0.1063
15742W        W31876  14.597   6.233   0.790  0.4383 -0.1914 -0.0462
15743W        W31877  15.011  17.532  14.752 -0.1496 -0.0051  0.0137
15744W        W31878   0.239  10.738  12.514 -0.0022  0.1003 -0.1745
15745W        W31879   2.389   4.012   2.681  0.3071  0.0261 -0.0884
15746W        W31880   0.403  13.310  13.737  0.0429 -0.1364 -0.0882
15747W        W31881   9.349   2.213  13.715 -0.0218 -0.0396 -0.0848
15748W        W31882  10.407   7.079   0.740  0.0446  0.0400 -0.1887
15749W        W31883  16.590   7.972   3.179  0.1231 -0.1459 -0.1693
15750W        W31884  13.073  18.009  14.055  0.0314 -0.3005  0.1346
15751W        W31885   2.122   5.424  16.182  0.0766  0.1776 -0.3429
15752W        W31886   1.239  16.790  13.473 -0.1729 -0.0384 -0.1852
15753W        W31887   2.522   3.165  15.762  0.3407  0.2739 -0.0399
15754W        W31888  13.570   5.455   2.876  0.3243  0.0027  0.1824
15755W        W31889   9.842   3.253   2.046  0.2839 -0.5418 -0.0647
15756W        W31890  10.496  15.493  14.010 -0.0933  0.0392 -0.0508
15757W        W31891   3.902   6.368   3.155 -0.0779 -0.3009  0.1917
15758W        W31892   4.914  16.563   1.907  0.0179  0.0122  0.1083
15759W        W31893   5.360   2.884  11.712  0.1933  0.0466 -0.0189
15760W        W31894   7.540   4.798   2.433  0.1467 -0.3747  0.0311
15761W        W31895  17.903  12.839  13.188 -0.0306  0.2569  0.1394
15762W        W31896  16.292   2.531   3.729  0.4020 -0.0281 -0.2004
15763W        W31897  15.057   9.901   4.336 -0.0221  0.2330 -0.0556
15764W        W31898  16.758  14.004   3.213 -0.0741 -0.5969 -0.1757
15765W        W31899  13.692   5.070  13.066 -0.1140 -0.0654  0.0797
15766W        W31900   1.502   3.969  13.419  0.2133  0.0993  0.1999
15767W        W31901   0.451   0.569  14.770  0.0056 -0.1599  0.0632
15768W        W31902  12.903   1.563  14.699  0.1439  0.0847 -0.0918
15769W        W31903  16.505   2.573   2.012  0.0506 -0.1428 -0.0884
15770W        W31904   8.202   2.798   3.906  0.1828 -0.2828 -0.0754
15771W        W31905  11.158  14.882   4.932  0.1456  0.2222 -0.1252
15772W        W31906  15.916  14.438   4.835  0.3408  0.3944 -0.0133
15773W        W31907   6.934   2.087  16.297  0.1786  0.3067 -0.1331
15774W        W31908   3.056  10.801   5.768  0.1716 -0.1735 -0.1136
15775W        W31909  18.057   2.078  12.909 -0.1521 -0.4307 -0.0339
15776W        W31910   2.021   1.647   1.736  0.0042  0.0850 -0.3179
15777W        W31911   8.949   3.172   0.462  0.0806 -0.1777 -0.0208
15778W        W31912  16.279   4.244  12.414 -0.1674 -0.0731 -0.0122
15779W        W31913   1.962   9.504   3.268  0.3332 -0.1499  0.2704
15780W        W31914  12.311   2.331  14.423  0.0766  0.2380  0.0732
15781W        W31915   2.910   6.919   3.218 -0.0061 -0.0375 -0.1166
15782W        W31916  10.724   6.165  12.238  0.0096 -0.1395 -0.0645
15783W        W31917  18.012   9.961  15.055 -0.0800  0.0883  0.1602
15784W        W31918  11.064  14.422   2.048 -0.1437 -0.2031  0.1376
15785W        W31919  16.406   0.097   2.613  0.0766  0.0865  0.0630
15786W        W31920   2.826   1.651   3.891  0.3110 -0.0851  0.1993
15787W        W31921   7.628  11.697   4.391 -0.1194  0.1892 -0.3125
15788W        W31922   4.374  17.471   6.535  0.0035 -0.0320  0.1587
15789W        W31923   8.626   4.260   4.129  0.1096 -0.2685  0.0053
15790W        W31924  12.909   2.158  15.782 -0.2277  0.0647 -0.1089
15791W        W31925   7.220   3.206   1.716  0.0012  0.1036  0.1891
15792W        W31926  16.265   1.944  11.334 -0.0461 -0.3217 -0.2770
15793W        W31927  15.419  12.636   5.258  0.1087 -0.0772 -0.1886
15794W        W31928   7.465   2.102   0.925 -0.2405  0.2499  0.0585
15795W        W31929   9.635  17.221  11.581  0.0766  0.1215  0.0599
15796W        W31930  16.451  17.333   4.816 -0.1817  0.0423 -0.1945
15797W        W31931   7.314  11.801   3.066  0.0263  0.0499  0.0372
15798W        W31932   5.376  17.866  14.957  0.0831 -0.0095 -0.2195
15799W        W31933   9.291   7.386   4.941  0.1824  0.1858 -0.0154
15800W        W31934   6.768   0.806   4.477  0.0717 -0.2005 -0.0957
15801W        W31935   2.174  10.341  16.344  0.0491  0.0859  0.0054
15802W        W31936  16.396   2.317   2.567 -0.0480 -0.0713 -0.0013
15803W        W31937   1.580   2.844   0.297 -0.0286  0.1072 -0.2083
15804W        W31938  13.511   5.233   3.399  0.1495 -0.0746 -0.0144
15805W        W31939   1.460   4.276  12.936  0.1909  0.1150  0.1456
15806W        W31940  14.895   5.655   4.690  0.1429  0.1760  0.0092
15807W        W31941   1.819   8.530  12.039 -0.0770  0.2402 -0.1030
15808W        W31942  17.422   9.338  16.210  0.2206 -0.0729  0.1126
15809W        W31943  15.969   8.503   3.352 -0.3217 -0.0137  0.2031
15810W        W31944  11.541  10.997  13.188 -0.0368 -0.1926 -0.4956
15811W        W31945  14.213  15.731   2.790  0.0617 -0.2731 -0.1480
15812W        W31946   8.383   7.995   3.247 -0.2112 -0.1019 -0.0566
15813W        W31947  10.437  13.504  16.158 -0.0419  0.2563  0.0102
15814W        W31948   8.564   4.590  13.037  0.0272  0.1759  0.0914
15815W        W31949  10.330   9.625   1.439  0.4960  0.0866  0.0597
15816W        W31950  17.796   3.113  13.604  0.0406 -0.0076  0.6128
15817W        W31951   7.196  14.077   5.141 -0.1946 -0.0848  0.2037
15818W        W31952  15.186  17.074   1.944  0.0077  0.0777  0.0823
15819W        W31953  12.149   5.369   2.789 -0.1286  0.2892  0.4047
15820W        W31954   3.626  17.646   2.981  0.0889 -0.0892 -0.1447
15821W        W31955   8.269   8.449   2.169 -0.0936  0.1348  0.0627
15822W        W31956  14.154  12.684  11.862 -0.0761  0.0025  0.1343
15823W        W31957   0.439  10.966  15.474 -0.0217  0.0765  0.2856
15824W        W31958   5.901   2.570  13.261  0.1992  0.3324  0.3520
15825W        W31959   8.999  12.061  12.689 -0.0200  0.0043  0.0189
15826W        W31960   1.176  14.843  15.939 -0.1530 -0.2419 -0.3918
15827W        W31961   5.661   6.664   1.920  0.2410  0.0766 -0.1912
15828W        W31962   1.413   6.427   5.569  0.0861  0.1322  0.1739
15829W        W31963   0.737   2.158   3.734  0.5437 -0.1107 -0.2721
15830W        W31964   4.766  15.760   0.611  0.3453  0.0460  0.3204
15831W        W31965  11.457  16.418   5.113 -0.0516  0.0148 -0.2297
15832W        W31966  11.218   8.823   1.631 -0.0248  0.0211 -0.0498
15833W        W31967  16.261  15.675  12.254 -0.1682  0.1201 -0.0601
15834W        W31968  10.578   1.683  12.034  0.2989  0.1838  0.1222
15835W        W31969   5.943   5.678   5.641 -0.0921 -0.2055 -0.1934
15836W        W31970  11.239   8.408   3.850  0.0799 -0.2203 -0.4526
15837W        W31971   5.139   1.345  13.759  0.1341  0.0042  0.1016
15838W        W31972   6.630  11.412   5.276 -0.0714 -0.0086 -0.0578
15839W        W31973   8.197   4.082   4.405 -0.1600 -0.4643 -0.1904
15840W        W31974  15.252  12.536  12.674  0.1433  0.2220 -0.0099
15841W        W31975   8.595  14.258  15.959 -0.1245  0.0601 -0.0752
15842W        W31976  12.259  15.265   0.254  0.1285  0.0481  0.1118
15843W        W31977   5.873   2.384  15.219  0.3381  0.0585  0.1177
15844W        W31978  15.530  15.829  10.703  0.3087  0.1075  0.3377
15845W        W31979  14.588   2.371  13.696  0.3737  0.2949 -0.2597
15846W        W31980  12.746   7.491  13.072 -0.2922 -0.0594 -0.1370
15847W        W31981  11.599   2.563   5.882 -0.2912  0.2907  0.2780
15848W        W31982  14.159   8.276  12.269 -0.0974 -0.1196 -0.0271
15849W        W31983   5.669  12.390  12.191 -0.1948 -0.0837  0.0026
15850W        W31984  16.840  13.917  12.975  0.3333 -0.3262 -0.3283
15851W        W31985  10.014  12.629   5.435 -0.2649  0.1121  0.1827
15852W        W31986  11.732   6.209   0.323  0.1986  0.1469  0.0418
15853W        W31987  14.289  16.259  11.594 -0.0674  0.2565  0.0779
15854W        W31988   9.182   7.959  11.378  0.3716 -0.2735  0.0875
15855W        W31989   6.071  10.652  11.594  0.1517 -0.0926  0.0612
15856W        W31990   6.436  12.797   4.801 -0.3396 -0.1919 -0.1439
15857W        W31991  14.592   8.475   1.636  0.3648 -0.0189 -0.0244
15858W        W31992  14.327  12.463  15.094 -0.0589 -0.2518 -0.3014
15859W        W31993   5.836   9.058  15.137 -0.0569 -0.0158  0.3161
15860W        W31994  15.091   0.844  16.055  0.1120  0.3188 -0.0689
15861W        W31995  13.114   5.290  11.875  0.1573 -0.2941 -0.2162
15862W        W31996  12.719  14.488   4.147 -0.0730 -0.1102  0.1367
15863W        W31997   1.698   8.636  15.553 -0.1248  0.0300  0.2532
15864W        W31998  12.582  12.298  13.629  0.0402  0.2129 -0.4571
15865W        W31999  16.115  13.967   1.301  0.1327  0.1341 -0.2497
15866W        W32000   4.588   1.222   3.121  0.1992  0.0233 -0.0503
15867W        W32001   7.458   4.397  11.510 -0.2162 -0.0005  0.0780
15868W        W32002   3.988  13.912  13.034  0.0858  0.1450 -0.1085
15869W        W32003  12.060   5.107  13.851  0.0271  0.0381 -0.0922
15870W        W32004   0.206   5.878  14.743 -0.1381 -0.1159 -0.1150
15871W        W32005   6.079   6.225  16.275 -0.2311 -0.2766 -0.0019
15872W        W32006   3.859  11.560   1.680  0.0634  0.0234  0.3021
15873W        W32007   5.974   4.070  12.535 -0.2182  0.0719 -0.0013
15874W        W32008  15.692   0.917  11.628  0.1161  0.0670 -0.3788
15875W        W32009   5.358   7.835  16.243 -0.1426  0.1955 -0.1385
15876W        W32010  12.245   8.555   5.398 -0.0737  0.1128 -0.3326
15877W        W32011  16.784   8.479  12.923  0.0388  0.3115  0.1980
15878W        W32012  12.453   9.980  14.358  0.2663  0.1268  0.0452
15879W        W32013   7.639  12.512  14.285  0.0732  0.1507 -0.2579
15880W        W32014   5.137   2.324   5.524  0.1756 -0.0523 -0.3362
15881W        W32015  10.156  14.899  12.458  0.0643  0.1799 -0.0600
15882W        W32016  10.226  15.673   1.512 -0.1388 -0.0575 -0.0503
15883W        W32017  18.020  14.499   2.300  0.0196 -0.1791 -0.0286
15884W        W32018  14.220  13.235  12.735  0.1879  0.1873  0.2241
15885W        W32019  12.653   6.658   0.362  0.0796  0.0748  0.0843
15886W        W32020   7.228   3.872  12.667 -0.1364 -0.0011 -0.0693
15887W        W32021   9.195  12.393   2.197 -0.0246 -0.0634 -0.0256
15888W        W32022   3.108   8.196   5.749 -0.0912  0.2056 -0.0691
15889W        W32023  11.724  12.752  12.811 -0.2839 -0.0624 -0.2598
15890W        W32024   9.978  13.252  12.467  0.0975 -0.2810  0.1226
15891W        W32025   8.653  13.853  12.653  0.0969  0.1204  0.2973
15892W        W32026  13.472   0.873  13.231  0.0116  0.2111 -0.1235
15893W        W32027  17.777   7.123  12.307  0.1388  0.4016 -0.2822
15894W        W32028   1.730  16.944   5.149  0.1976  0.3206  0.0068
15895W        W32029  12.319   5.934  12.110  0.0302 -0.1225 -0.0034
15896W        W32030  12.760  13.341   4.191  0.3308  0.1888 -0.0816
15897W        W32031   3.886  17.749   0.861 -0.2637 -0.2192 -0.1086
15898W        W32032  16.316   0.061  13.359  0.1120 -0.1804  0.1120
15899W        W32033   6.215  16.987   0.453 -0.1006  0.0224 -0.0916
15900W        W32034   5.711   2.186  12.796 -0.1996  0.0992 -0.0744
15901W        W32035   0.577   1.427  12.320 -0.4464 -0.0804 -0.2361
15902W        W32036  15.516  11.121   5.228 -0.1925 -0.0217 -0.0316
15903W        W32037   5.856   1.783   0.410  0.1700 -0.1854  0.0162
15904W        W32038  14.071  12.192  11.984 -0.0411 -0.1794 -0.1550
15905W        W32039  11.523  17.539  14.808 -0.0757 -0.0601 -0.0527
15906W        W32040   0.127   6.649   0.952 -0.0801 -0.0608  0.0095
15907W        W32041   0.163   6.290   3.043 -0.0568  0.0695 -0.0322
15908W        W32042  16.615  17.574   2.601 -0.0405  0.1353 -0.1076
15909W        W32043  11.863   0.331   1.025  0.0593 -0.1438  0.2067
15910W        W32044  10.605   0.496   2.387 -0.0265 -0.0700 -0.0563
15911W        W32045   0.150   7.588  12.193 -0.0972 -0.1424 -0.1419
15912W        W32046   4.537   4.247  15.703  0.0073  0.2193 -0.1804
15913W        W32047  11.537   0.504   2.424  0.0982 -0.1821 -0.0621
15914W        W32048   9.611   8.647  12.799 -0.0352 -0.0442  0.0371
15915W        W32049  16.487   5.108  11.810  0.0161  0.1220 -0.0048
15916W        W32050   5.184  17.999  11.206 -0.0735 -0.2558 -0.4149
15917W        W32051   8.092  10.099   3.323  0.1910  0.2731 -0.3561
15918W        W32052  11.882   5.927  13.673  0.1021 -0.0591  0.2281
15919W        W32053   7.277  12.810  14.529  0.1592  0.1374  0.3106
15920W        W32054   7.197  17.501  14.589  0.3751  0.1191 -0.0252
15921W        W32055   4.625   8.542  15.073  0.1297 -0.1092  0.2942
15922W        W32056  12.428   1.635   5.221  0.0225  0.2346  0.2451
15923W        W32057   0.979  15.937   2.494  0.1419 -0.0201 -0.3613
15924W        W32058   0.695   7.527  14.254  0.0033 -0.1017 -0.4681
15925W        W32059   3.457  16.656   0.172  0.0141 -0.1287  0.1145
15926W        W32060  15.072  18.075  12.740  0.0323 -0.0304  0.3814
15927W        W32061   7.408   3.016   1.283 -0.0735 -0.1412  0.1119
15928W        W32062  16.200  14.167   0.190 -0.2598 -0.0228  0.0263
15929W        W32063   5.660   1.066   2.091 -0.1885  0.1552 -0.0459
15930W        W32064   2.512  16.078   4.113 -0.3417 -0.2304 -0.0394
15931W        W32065  12.751  16.517  15.763 -0.0153 -0.1191  0.3957
15932W        W32066   9.699   5.328   4.006 -0.2842 -0.0636 -0.5344
15933W        W32067   9.836   0.405   4.846  0.0816 -0.1046  0.1414
15934W        W32068  10.311  10.442   2.402  0.1466  0.1065 -0.1637
15935W        W32069  10.366   6.776   0.288  0.2084  0.0339 -0.3909
15936W        W32070   9.433  13.242   0.988  0.0634  0.2142 -0.4394
15937W        W32071   2.437  13.327   3.755  0.0363 -0.0712 -0.0386
15938W        W32072  11.898   7.268   4.662 -0.2005 -0.2091 -0.1033
15939W        W32073  17.795  13.444   0.715 -0.1503 -0.0705 -0.1914
15940W        W32074  10.602   0.726   0.579  0.1014  0.0973 -0.1334
15941W        W32075   6.043   6.579   4.081 -0.0259 -0.1999  0.1231
15942W        W32076  13.657   5.147   4.961 -0.0680 -0.0013 -0.0260
15943W        W32077   1.561   1.124  12.376  0.1906  0.3400 -0.0840
15944W        W32078   7.267   8.254  13.229  0.2183 -0.4306  0.0262
15945W        W32079   7.386  14.790  13.589  0.2884  0.0183  0.1860
15946W        W32080  10.793  17.554  13.335 -0.0162  0.0850 -0.2923
15947W        W32081  10.973   2.381   1.577 -0.1699  0.0399 -0.1709
15948W        W32082  15.807  14.159   0.544  0.2452 -0.3018 -0.0969
15949W        W32083   4.250   3.671   1.424  0.1441  0.0742 -0.4113
15950W        W32084  11.005   0.428  14.362 -0.0046  0.1299 -0.0490
15951W        W32085   1.921   8.958  14.534  0.1057  0.0547 -0.1329
15952W        W32086  16.451   5.840  15.924  0.0063 -0.1962  0.1142
15953W        W32087  13.732   2.602   3.192  0.2756 -0.3227 -0.4363
15954W        W32088   6.576  12.418  11.877  0.0157  0.2705 -0.3808
15955W        W32089  13.223   2.834  11.383 -0.1030  0.1797 -0.0566
15956W        W32090  11.516  14.211   0.303 -0.2441  0.1225 -0.1959
15957W        W32091   0.025   4.074  12.490 -0.0180  0.0311  0.0512
15958W        W32092   0.594  15.571  10.884 -0.0077 -0.1487  0.0501
15959W        W32093   8.229   9.165  13.011  0.0734 -0.2020 -0.5746
15960W        W32094   1.279   2.536  15.703  0.3360 -0.2648 -0.0257
15961W        W32095   6.852   1.441  14.909  0.0857 -0.0833  0.0333
15962W        W32096   5.110   0.228  16.152 -0.0454  0.0922  0.0625
15963W        W32097   9.739   7.107  15.409  0.1260 -0.1261 -0.0571
15964W        W32098  14.340   7.803   3.497 -0.2628  0.0372  0.0640
15965W        W32099   5.279   3.496  12.391 -0.2056 -0.0286  0.0765
15966W        W32100  14.963  17.989  16.265  0.0941 -0.1455  0.2327
15967W        W32101  13.601   8.770  13.288 -0.2064  0.0395  0.0428
15968W        W32102  17.604   6.858  12.856 -0.1141  0.1439  0.1286
15969W        W32103  14.201   6.058  13.960 -0.1365 -0.1983  0.0052
15970W        W32104   4.788   9.581   1.073 -0.0253  0.0704 -0.2826
15971W        W32105  16.434   6.651   1.247 -0.0818  0.0544 -0.2637
15972W        W32106   8.391   0.472  13.051 -0.1421 -0.2382  0.0540
15973W        W32107   6.067   3.030   4.879 -0.0863  0.4821 -0.2270
15974W        W32108   9.301   2.995  13.237  0.2026  0.0715  0.1837
15975W        W32109  17.221  13.904   4.520 -0.1112 -0.0499  0.0304
15976W        W32110  17.483  11.282  12.319 -0.1066  0.0351  0.3149
15977W        W32111   7.058   0.705  13.365 -0.0081  0.0423 -0.3023
15978W        W32112   2.552   3.453   0.417 -0.2379  0.1732  0.0837
15979W        W32113  15.307   8.637  14.266  0.1703  0.3649 -0.1192
15980W        W32114  12.547  17.764   4.121  0.1770  0.1337 -0.3038
15981W        W32115  14.798  17.799   2.340  0.0775 -0.4619 -0.0653
15982W        W32116   3.512  11.457   1.296  0.2511 -0.5449 -0.0761
15983W        W32117   6.474   9.936  15.368 -0.1072 -0.3030 -0.0547
15984W        W32118   9.525   4.707  13.190  0.2861  0.0910  0.2880
15985W        W32119   5.080   6.620   4.440 -0.1346 -0.0668 -0.0228
15986W        W32120   5.432  17.453  12.008  0.0808 -0.1926 -0.1645
15987W        W32121  15.181   8.038  13.187  0.0663 -0.0609 -0.0171
15988W        W32122  11.592   2.347  16.347 -0.3404 -0.0260  0.4588
15989W        W32123   6.482   1.808   6.108  0.0182 -0.2868 -0.0625
15990W        W32124  18.043   2.275   0.373  0.0839  0.2666  0.1997
15991W        W32125  10.259  14.826   1.906 -0.0703 -0.0539 -0.1891
15992W        W32126  13.259  16.300  16.170 -0.0971  0.1138  0.3246
15993W        W32127  15.886  15.038   3.265 -0.0013 -0.0346 -0.0726
15994W        W32128   3.672   9.998   2.002 -0.1927  0.1546 -0.1099
15995W        W32129  17.325   5.958  14.507 -0.0772 -0.0984  0.0668
15996W        W32130   9.884  11.719   5.674  0.2249  0.2253  0.1215
15997W        W32131   3.783   9.572  13.347 -0.1776  0.1101 -0.2738
15998W        W32132   6.528  17.496   3.480 -0.0056 -0.0943  0.1670
15999W        W32133   8.132  17.897   2.904 -0.1017 -0.0594 -0.1977
16000W        W32134   8.507   8.545   1.186 -0.1773  0.1290 -0.1613
16001W        W32135   9.837   8.687   4.594  0.1797  0.0546 -0.0821
16002W        W32136  16.057   2.575   2.263  0.0958  0.1855  0.3038
16003W        W32137   7.063  10.388   0.044  0.0523 -0.0299  0.0443
16004W        W32138   1.847  16.528   4.356 -0.2322  0.0682  0.2326
16005W        W32139   8.239   5.944   2.914 -0.1760 -0.2863  0.2158
16006W        W32140   4.237   1.659  11.523 -0.0347 -0.1370  0.0429
16007W        W32141  12.121  13.734  12.442  0.2815  0.0412  0.1497
16008W        W32142  10.717  14.509  15.027 -0.1960 -0.1697 -0.4104
16009W        W32143  15.406   4.857   3.797  0.0457  0.1618  0.2643
16010W        W32144   9.937   9.810   3.182 -0.2092  0.0178 -0.2405
16011W        W32145   5.310  13.123  15.217 -0.0049 -0.2231 -0.1756
16012W        W32146  12.433  12.786   3.362 -0.2264 -0.1820 -0.0395
16013W        W32147   3.772   0.170  14.950  0.1263 -0.1231  0.1547
16014W        W32148   7.026  17.275   0.741  0.0464  0.0387 -0.0446
16015W        W32149   5.677  13.106   3.461 -0.3681  0.1222 -0.1070
16016W        W32150   3.786   3.693  11.228 -0.1229 -0.0144  0.3965
16017W        W32151  14.570   8.019   0.342 -0.1075 -0.2535  0.1497
16018W        W32152   8.860  16.827  14.453 -0.0195  0.1360  0.2021
16019W        W32153   7.361   4.342  13.508 -0.0538  0.2006 -0.1512
16020W        W32154   9.926   9.950  14.102 -0.0139  0.1401  0.0347
16021W        W32155   9.182   3.585   3.409  0.4053  0.0432  0.2715
16022W        W32156   4.695  10.651   4.540 -0.0784 -0.2833  0.1854
16023W        W32157   3.620  15.443  14.248 -0.1093  0.1027  0.1201
16024W        W32158   1.955   8.895   4.000 -0.0405 -0.1378 -0.0559
16025W        W32159   1.237   4.382  15.182 -0.0505  0.2438 -0.0252
16026W        W32160  12.466   6.404  15.433  0.1311 -0.2961  0.3297
16027W        W32161  11.031   1.687  11.093 -0.2396  0.1606  0.0310
16028W        W32162   0.211   7.455  12.738 -0.0815 -0.0519  0.1487
16029W        W32163   0.611   1.939  13.611  0.3189 -0.1125  0.0032
16030W        W32164  17.078  13.154   4.599  0.0059  0.1219  0.3480
16031W        W32165   5.212  11.365  13.840 -0.0691  0.1014 -0.1162
16032W        W32166   5.165  15.738   5.543  0.1296  0.2230  0.1728
16033W        W32167   3.430   7.407   4.067  0.2237 -0.0468 -0.0261
16034W        W32168  16.331  16.430  15.268  0.1202  0.0704  0.1242
16035W        W32169   9.636   0.352  12.436 -0.4712 -0.0773 -0.0371
16036W        W32170  17.671  13.044   3.757 -0.1078 -0.1204 -0.1110
16037W        W32171  14.765  12.414   2.322 -0.0736  0.0698 -0.1186
16038W        W32172  16.692   0.443   5.451  0.0942 -0.0959 -0.0324
16039W        W32173  14.653  13.302  12.027  0.2431 -0.2161  0.0636
16040W        W32174   0.940   6.497   4.237  0.1614 -0.0793 -0.0634
16041W        W32175   6.100   1.596  14.416 -0.2009 -0.1579 -0.1454
16042W        W32176  13.824  11.771   0.447  0.1242 -0.0379  0.0932
16043W        W32177   7.191   6.835   2.928 -0.3509  0.0896 -0.1995
16044W        W32178  15.230   9.847  14.214 -0.0319 -0.4088 -0.0020
16045W        W32179   1.190   5.067  12.215 -0.2349  0.2641  0.1849
16046W        W32180  12.666  15.598  16.378 -0.2142 -0.0403 -0.2442
16047W        W32181   0.843  17.406   0.113 -0.2679 -0.0356  0.0543
16048W        W32182  11.043   9.802  12.402  0.0579 -0.1944  0.1671
16049W        W32183   7.534  10.127  16.117 -0.0285 -0.1038  0.0665
16050W        W32184  10.918  13.705  14.514 -0.1031  0.1903  0.3844
16051W        W32185   5.622   6.426   3.762 -0.0953  0.1048  0.0352
16052W        W32186  17.473  17.843   2.003  0.0041  0.1179  0.1631
16053W        W32187  12.799  15.340  11.282 -0.2643  0.3185  0.3296
16054W        W32188   0.556   2.748  14.654 -0.4349 -0.0775 -0.0705
16055W        W32189  15.919  17.888  15.045 -0.3176  0.0576 -0.0681
16056W        W32190  11.133   3.101  14.608 -0.0426  0.0573  0.0624
16057W        W32191  16.298  12.128   5.157 -0.0778  0.2177 -0.0513
16058W        W32192  16.357  10.318  15.576  0.2425  0.1235 -0.1999
16059W        W32193   0.281  16.368   0.930 -0.3571  0.0465  0.2220
16060W        W32194   1.898   7.662  12.291 -0.2566 -0.0753 -0.1232
16061W        W32195   0.984   7.519   2.138  0.1700  0.2316 -0.0656
16062W        W32196  15.326   2.034   4.562  0.0024  0.2633 -0.0091
16063W        W32197  12.197  12.598  12.982  0.2443 -0.1381 -0.2573
16064W        W32198   7.786   7.935   4.105  0.2100 -0.0633 -0.0355
16065W        W32199   0.315   8.878  15.962 -0.1386 -0.0566 -0.3658
16066W        W32200   5.487   2.833  12.968 -0.2911 -0.3104 -0.0352
16067W        W32201   4.969  16.086   1.630  0.1755  0.2187  0.0001
16068W        W32202   3.114   8.697  11.496 -0.0180  0.0865 -0.0085
16069W        W32203   1.689  15.232   3.632  0.0150  0.0003 -0.0613
16070W        W32204   7.654   6.730   2.067  0.0854  0.3016 -0.0597
16071W        W32205  15.030   7.879   0.148  0.1111  0.0291  0.3202
16072W        W32206  13.054   1.200  15.864 -0.0671  0.4103 -0.1151
16073W        W32207   1.788   5.559   0.544 -0.0083 -0.4496  0.0629
16074W        W32208  15.341  10.691  10.588  0.1144 -0.0128  0.3933
16075W        W32209  17.126  11.592   4.223 -0.2334  0.1701 -0.0338
16076W        W32210   8.759   7.062  16.103 -0.1230  0.6771 -0.0391
16077W        W32211   7.226  16.017   2.266 -0.2149 -0.1507  0.2329
16078W        W32212   7.963  13.203  15.029  0.0628 -0.0732 -0.3238
16079W        W32213   1.909  14.004  15.534 -0.0290  0.0259  0.3073
16080W        W32214  11.216  13.294  12.908  0.1174 -0.1047 -0.1445
16081W        W32215  17.923  11.731  14.024  0.0384 -0.1227  0.0093
16082W        W32216   9.674   4.963  15.740 -0.0224  0.3412 -0.3260
16083W        W32217  12.303  17.011  13.105  0.0538  0.1283 -0.0443
16084W        W32218   6.608  17.204   4.353 -0.1195  0.1378 -0.0974
16085W        W32219  12.936  17.742  16.390 -0.2040 -0.2736  0.0354
16086W        W32220  15.614   5.314  13.910  0.2796 -0.0064  0.0573
16087W        W32221  10.499  15.181   5.760 -0.0553 -0.0864 -0.2281
16088W        W32222   1.850  16.990   6.087 -0.1548  0.2074 -0.3078
16089W        W32223   7.433  13.197  15.008  0.0846 -0.2044 -0.0189
16090W        W32224  16.774  16.316   4.784  0.1719  0.2394 -0.0279
16091W        W32225   3.140   0.347   2.600  0.4379  0.0480 -0.1783
16092W        W32226   1.697   9.301   1.522  0.0926  0.0649 -0.3558
16093W        W32227   5.821  14.913   5.525 -0.1011 -0.0411 -0.0353
16094W        W32228   6.296   6.288   0.928  0.3494  0.1301 -0.1229
16095W        W32229   2.744   0.338   3.436 -0.1541  0.1311 -0.2689
16096W        W32230   1.117  14.582  13.631 -0.0376 -0.4814 -0.4428
16097W        W32231  17.536  11.544  14.992 -0.0588 -0.2281  0.1611
16098W        W32232  16.810  13.409  13.749 -0.0546  0.0065  0.0905
16099W        W32233  15.564   4.028   3.407 -0.0186  0.3243 -0.4162
16100W        W32234   0.989  13.269   1.701  0.0045  0.2755  0.2884
16101W        W32235  13.658  15.258   5.015  0.0156  0.2132 -0.2264
16102W        W32236   0.307   7.655   0.576  0.0380  0.1187 -0.0135
16103W        W32237   8.131   9.960   1.976  0.0723  0.1379 -0.0748
16104W        W32238  10.273  13.382   1.411  0.3350 -0.6962  0.0278
16105W        W32239   0.310   2.874  15.515 -0.1965 -0.0118  0.0007
16106W        W32240   1.676   2.267   2.356  0.0024 -0.0102  0.1362
16107W        W32241   2.463  12.449  15.396 -0.0465 -0.1726 -0.1974
16108W        W32242   6.474  11.201   2.161  0.1558  0.0393  0.0457
16109W        W32243  17.260  13.496   4.102  0.3264  0.1849  0.0496
16110W        W32244   9.608   9.608  12.696  0.0898  0.0797  0.1144
16111W        W32245  12.621   5.645  15.082  0.1538  0.2974  0.0788
16112W        W32246  15.784   9.801   6.008  0.1054  0.0106  0.1118
16113W        W32247   5.936  12.362   6.473  0.1007  0.0307  0.1974
16114W        W32248  12.594  11.720  14.039  0.1834 -0.2532 -0.1846
16115W        W32249   5.914  14.541  11.708 -0.0579  0.1526 -0.0784
16116W        W32250   5.068   5.102  12.727 -0.1946  0.2058  0.2671
16117W        W32251   0.823   1.253  11.246  0.3257 -0.0587  0.1833
16118W        W32252  15.497   5.863  16.352 -0.0145 -0.1698  0.3191
16119W        W32253  13.921   0.542  15.829 -0.1503 -0.1694 -0.3213
16120W        W32254  13.071  11.679  11.592  0.1208 -0.2533 -0.0357
16121W        W32255   1.439  13.101   1.820 -0.1776  0.0052  0.1971
16122W        W32256   4.477   2.969   3.724  0.2279  0.0115 -0.1124
16123W        W32257  11.710   6.438  13.245  0.2173 -0.3210  0.1071
16124W        W32258  16.589  12.422   4.903  0.0024 -0.3175 -0.0466
16125W        W32259   2.461   3.271  12.741 -0.0061 -0.1051 -0.1930
16126W        W32260   5.136  11.554  14.719 -0.1323 -0.1447  0.0776
16127W        W32261  15.873  13.360  16.012 -0.3849  0.0263  0.1725
16128W        W32262  16.855  10.057  11.685  0.1393  0.0732 -0.0064
16129W        W32263   9.207   6.760  16.225  0.1828  0.2195  0.0986
16130W        W32264   9.990   3.869  11.294  0.1103 -0.2078  0.1464
16131W        W32265  13.950   9.517   3.608  0.2680 -0.1066 -0.0204
16132W        W32266  10.575  10.887   3.141 -0.1791  0.1620  0.0370
16133W        W32267  17.456   6.552   3.655  0.3249 -0.2492  0.0611
16134W        W32268  10.370  16.301  11.122  0.2215 -0.0364 -0.1182
16135W        W32269   1.258   4.938  14.694 -0.2713 -0.1019 -0.0384
16136W        W32270   7.205   6.787  16.338 -0.2645 -0.1161  0.1008
16137W        W32271  11.080   0.861   1.446  0.0055  0.3092 -0.1833
16138W        W32272  14.230   5.108   2.739 -0.0449 -0.0753  0.1043
16139W        W32273   6.799   4.606   2.759 -0.2258 -0.1143  0.4250
16140W        W32274  14.847   6.628   3.802 -0.0614 -0.0299 -0.1331
16141W        W32275  12.127  12.464   9.718  0.0276 -0.0183 -0.0694
16142W        W32276  12.445   2.474  13.177  0.0989  0.1551  0.0783
16143W        W32277   4.351  11.089  14.751 -0.1869  0.0663  0.1247
16144W        W32278  17.951   5.819   1.030  0.1660  0.2671 -0.0884
16145W        W32279   2.252   5.889   2.345  0.1729  0.1691  0.2002
16146W        W32280  13.431  12.326   2.885 -0.1278  0.0132 -0.2745
16147W        W32281  12.675   1.088  11.579 -0.0976 -0.2229 -0.2810
16148W        W32282  11.255  14.986  13.769 -0.0766  0.1309  0.0326
16149W        W32283   7.620   7.615   1.549  0.2026 -0.0868  0.0671
16150W        W32284  10.768  10.571   5.876  0.1706  0.3919  0.0480
16151W        W32285  10.216   2.374   4.804  0.0537 -0.0476  0.1797
16152W        W32286  13.221  14.116   1.178  0.1968  0.0914  0.1642
16153W        W32287   8.042  12.863   3.712 -0.0154 -0.0853 -0.1665
16154W        W32288   6.053  15.387   4.245  0.4119  0.2092  0.0066
16155W        W32289   3.130  15.268   5.343 -0.1077 -0.0258  0.3049
16156W        W32290   9.458  14.526  16.386 -0.3564 -0.1765  0.3247
16157W        W32291   6.174   7.810  10.912  0.1321 -0.0646 -0.3040
16158W        W32292  12.900   9.872   3.252  0.0651 -0.0247 -0.0314
16159W        W32293   2.076   9.886   0.401  0.1862 -0.1338 -0.0959
16160W        W32294   9.819  13.349  15.195  0.1271  0.1518 -0.0644
16161W        W32295   5.263  12.036  14.861 -0.1218 -0.0709 -0.0401
16162W        W32296   7.535  17.574   5.750  0.3054 -0.2666 -0.2697
16163W        W32297  16.686   9.130   5.503  0.1185  0.1561 -0.0870
16164W        W32298   9.282   0.939   0.163 -0.1903 -0.2023  0.1028
16165W        W32299   2.484  10.871   1.494  0.2475 -0.0245  0.2898
16166W        W32300  13.477   1.289  11.761  0.0875 -0.0139 -0.1924
16167W        W32301   9.430  10.378   0.486 -0.0320  0.0604  0.0275
16168W        W32302   2.138   2.999   1.898  0.0059  0.1535  0.0767
16169W        W32303   3.824   3.506   0.007 -0.0272 -0.2458 -0.1917
16170W        W32304  13.032   8.544  14.503  0.4566 -0.0329  0.1677
16171W        W32305  12.779  15.846  11.337  0.1084  0.2761 -0.0222
16172W        W32306  15.639  12.427  16.187 -0.0094  0.2485  0.2529
16173W        W32307  11.967  15.886  15.990 -0.1467 -0.3547 -0.1936
16174W        W32308   6.478   0.748   3.211  0.0029 -0.3062 -0.0845
16175W        W32309   6.100   5.235   4.806 -0.0715 -0.0721 -0.2206
16176W        W32310  16.004  17.066  14.770  0.1718  0.3555  0.2233
16177W        W32311   0.917   1.363  14.312 -0.4102 -0.0061 -0.0429
16178W        W32312   2.792   3.678   2.331  0.1648  0.1475 -0.3166
16179W        W32313  10.268   0.190  15.056  0.1612 -0.3570  0.3983
16180W        W32314  13.679   7.441  13.262  0.0335 -0.2151  0.0890
16181W        W32315  11.141   2.502  12.107 -0.0986 -0.2017  0.0132
16182W        W32316  11.987   6.492   1.526  0.2289 -0.0313 -0.0513
16183W        W32317   6.057   6.447   1.740 -0.2527 -0.0852  0.2354
16184W        W32318  13.511  10.673   0.822 -0.2637 -0.1197 -0.3691
16185W        W32319  13.383  11.906  13.328  0.1771  0.1204  0.2605
16186W        W32320   9.492  10.425  13.229 -0.1982 -0.3533 -0.0659
16187W        W32321  16.606  12.261  15.326 -0.1889 -0.0603  0.1721
16188W        W32322  14.593   0.143  11.975  0.2156  0.1154  0.0902
16189W        W32323   6.247   7.186   2.579 -0.0526 -0.1775 -0.1419
16190W        W32324   0.421  10.609  13.577  0.3919 -0.3295  0.1404
16191W        W32325   0.989  10.717   4.557  0.3456  0.0257  0.2214
16192W        W32326  15.800   7.384  16.105 -0.4831 -0.2519  0.3153
16193W        W32327   8.594   6.102  11.092  0.1878 -0.0937 -0.0758
16194W        W32328   7.297   7.390  10.765  0.0059  0.0674 -0.0432
16195W        W32329  15.160  16.167  14.447 -0.2494  0.1341  0.0240
16196W        W32330   8.159   3.933  13.972 -0.2149  0.4109  0.3030
16197W        W32331  13.650  10.759  15.032 -0.1908  0.0759 -0.1006
16198W        W32332  11.926   2.098   5.797 -0.1647 -0.3050  0.0360
16199W        W32333   3.583   4.394   2.756 -0.0865 -0.1550  0.1096
16200W        W32334   8.013   2.821  13.555  0.0011 -0.3310  0.1191
16201W        W32335  12.292   1.659   2.644  0.1198 -0.1018  0.0572
16202W        W32336   1.549   1.029   0.666  0.1183  0.1549  0.0176
16203W        W32337   3.087   2.947   1.977 -0.1057 -0.2013 -0.2789
16204W        W32338   0.862  12.758   3.684 -0.0922 -0.1376  0.2436
16205W        W32339  11.769   5.072   2.909 -0.2208  0.0323  0.2353
16206W        W32340  12.874  13.875  13.171  0.0736  0.0684  0.2733
16207W        W32341   3.893  16.703   1.808  0.1049  0.2611 -0.1569
16208W        W32342   7.036   6.357  12.903  0.2551  0.2190 -0.1595
16209W        W32343  13.908   1.895   2.599 -0.3139 -0.1417  0.1821
16210W        W32344  15.354   6.794   0.260  0.1456  0.0297 -0.2597
16211W        W32345  13.275   8.626   1.941 -0.0683  0.0449 -0.0027
16212W        W32346  11.546   9.753   1.341  0.0397  0.2253  0.1143
16213W        W32347  17.120   2.303  12.445 -0.0056 -0.0681 -0.0385
16214W        W32348   1.798   0.267   5.321  0.0770  0.0236  0.3088
16215W        W32349   8.112   5.685  14.931  0.0406 -0.1260  0.0886
16216W        W32350  17.337  10.697   4.839  0.0819  0.0327 -0.1756
16217W        W32351   7.277   2.199   3.988  0.0042  0.1156 -0.0163
16218W        W32352   9.004  16.462  16.140  0.3719  0.2737 -0.0081
16219W        W32353  10.786   0.127   4.881 -0.1835  0.2288 -0.2899
16220W        W32354   2.512  10.247   3.817 -0.2133 -0.0887 -0.0026
16221W        W32355  13.971  10.819   0.830 -0.0830 -0.2402  0.1396
16222W        W32356  15.071   7.312   2.229 -0.1557  0.1324  0.1360
16223W        W32357   3.394   3.166   1.706 -0.2319  0.0625  0.0947
16224W        W32358  13.878   5.260  12.617 -0.0854 -0.0242 -0.0427
16225W        W32359   6.156  11.902   4.736  0.0568 -0.0192  0.0159
16226W        W32360  12.536   7.467   1.909 -0.2099 -0.1295 -0.1668
16227W        W32361   3.894   1.958   4.321 -0.2222  0.2339  0.3463
16228W        W32362   8.488  12.727  12.751  0.1518  0.0936  0.1034
16229W        W32363   4.883  15.147  13.791 -0.2830  0.0453  0.0351
16230W        W32364   8.215  17.643   4.601 -0.2732 -0.1876  0.3654
16231W        W32365   5.568   6.470   5.689 -0.0128  0.1371  0.4391
16232W        W32366  14.146   1.016   2.347 -0.1472  0.2021 -0.1465
16233W        W32367  14.461  12.186   1.959 -0.0072 -0.1038  0.0447
16234W        W32368   1.460  12.055   3.220  0.0580  0.1970  0.0800
16235W        W32369   0.110   0.463   2.869  0.4721 -0.3550 -0.1053
16236W        W32370   6.124   0.336   0.141  0.0773  0.1360 -0.0963
16237W        W32371   4.759   8.878   3.173 -0.3479  0.5485  0.1750
16238W        W32372   3.673   5.415  12.498 -0.1831  0.2455 -0.1357
16239W        W32373   9.198   4.684   5.340  0.1508 -0.1294  0.1238
16240W        W32374  17.778   8.851  14.509 -0.0452 -0.0164  0.0712
16241W        W32375   6.433   5.884  15.656 -0.5177  0.1558 -0.0654
16242W        W32376   6.275   8.255  12.756  0.0921  0.3106  0.2074
16243W        W32377   6.614  14.168   4.404  0.1380 -0.0454 -0.1378
16244W        W32378   6.516  16.543   0.404 -0.0743 -0.2041 -0.2837
16245W        W32379  14.133  12.805   5.318  0.0989 -0.0452  0.1533
16246W        W32380   7.486  17.204  15.419  0.2513 -0.3856  0.0715
16247W        W32381  11.266  10.508  11.656 -0.0616 -0.0150 -0.2316
16248W        W32382  14.506  16.700   4.287 -0.0505  0.0396 -0.1488
16249W        W32383   2.213  14.098  12.057 -0.4088 -0.2295 -0.1318
16250W        W32384   1.187   0.185  13.522  0.1461 -0.0926 -0.1098
16251W        W32385  14.321  13.897   0.282 -0.1337  0.2748 -0.0500
16252W        W32386   5.236  14.187   0.745 -0.0955 -0.2388  0.4667
16253W        W32387   6.107  13.970  11.448  0.0178 -0.0783  0.1785
16254W        W32388  10.651  17.428  14.274  0.2848  0.0195 -0.2754
16255W        W32389   1.757   8.480  13.172 -0.0293 -0.0725 -0.1124
16256W        W32390   4.741  10.620  11.717 -0.1792 -0.1432 -0.1387
16257W        W32391  14.200  13.130   0.697 -0.4376  0.1902 -0.0007
16258W        W32392   8.005   1.256  14.953 -0.2862  0.0564 -0.0672
16259W        W32393  11.976  16.995   1.267  0.3515  0.2299 -0.0987
16260W        W32394  12.443  16.256  11.280 -0.0303 -0.0902 -0.0518
16261W        W32395   1.309  13.111  11.163 -0.2353 -0.2796  0.0510
16262W        W32396   9.930  14.907  11.948 -0.4185  0.0609 -0.1096
16263W        W32397  15.449  17.183   5.193  0.5744  0.2957 -0.0643
16264W        W32398  16.235  13.407  13.752  0.1958 -0.1961 -0.1083
16265W        W32399  12.666   7.514  14.114 -0.0484 -0.3824 -0.2232
16266W        W32400   3.597  15.355   4.610 -0.1405 -0.1471  0.1194
16267W        W32401  10.916   5.273   5.241  0.3023 -0.1942 -0.1019
16268W        W32402  15.509  15.436  16.323 -0.0893 -0.2144  0.0279
16269W        W32403   8.782   2.760  13.206  0.0477 -0.0603  0.0840
16270W        W32404   1.442  18.013  14.772  0.0405  0.2067 -0.0899
16271W        W32405   5.238   4.056   5.965  0.3747 -0.1505  0.4269
16272W        W32406  14.242  17.418  13.563  0.0528 -0.2093  0.2550
16273W        W32407   1.211  10.382   1.288 -0.0848  0.2146 -0.1973
16274W        W32408  13.439   0.848  15.031 -0.0304 -0.2229  0.0970
16275W        W32409  16.263   4.858  16.100  0.0833  0.4547  0.0127
16276W        W32410  12.191   5.225  14.622 -0.3293  0.0653 -0.4200
16277W        W32411  15.169  11.335   4.615 -0.1499 -0.1558 -0.0813
16278W        W32412  13.548   0.826   0.277  0.0238 -0.2543 -0.0138
16279W        W32413  13.891  14.870   2.943 -0.2702 -0.1929  0.0672
16280W        W32414   7.370   0.508  14.203  0.0657 -0.1971  0.2608
16281W        W32415   4.223   5.056   4.729 -0.0013 -0.0292 -0.1094
16282W        W32416   8.909  17.268   2.217  0.1859 -0.0257  0.2667
16283W        W32417  10.988   8.183   1.832  0.0498  0.1734  0.1456
16284W        W32418   1.676   0.249   4.830  0.1968 -0.0590 -0.0448
16285W        W32419   0.657  16.641  12.901 -0.0574  0.0292 -0.2264
16286W        W32420  13.438   2.883  14.445  0.0736 -0.0104  0.0016
16287W        W32421   3.124   0.611   5.169 -0.0190  0.0171 -0.3476
16288W        W32422   3.579   9.729   0.918 -0.2024  0.5209  0.0050
16289W        W32423  16.276   6.073  16.383 -0.1136 -0.0249 -0.0273
16290W        W32424  14.454  11.552  14.371 -0.1084  0.0252 -0.0329
16291W        W32425  10.848   0.802  11.613  0.0664  0.0603 -0.0397
16292W        W32426  12.490  14.937   4.872 -0.1162 -0.0069  0.0695
16293W        W32427   6.519   3.250   1.102  0.2290  0.5499 -0.2036
16294W        W32428  12.833   0.361  15.707 -0.0611  0.0052  0.1668
16295W        W32429   3.239  15.834   5.375 -0.1656 -0.2098  0.0486
16296W        W32430   1.623   8.446   4.516 -0.0478 -0.1187  0.0461
16297W        W32431   4.669  15.400   5.140  0.0457  0.0364 -0.2063
16298W        W32432  15.460   4.700   5.505 -0.0862  0.2482 -0.0082
16299W        W32433  12.323   8.623   2.830 -0.0035 -0.1318 -0.1558
16300W        W32434  13.228   0.352   5.588 -0.0815  0.1699 -0.0607
16301W        W32435   8.391  14.943  15.072 -0.1036  0.1290 -0.0018
16302W        W32436   0.262   5.035  14.586  0.0672 -0.1017 -0.0641
16303W        W32437   1.421   3.651  15.050 -0.1720 -0.0162  0.4204
16304W        W32438  16.162  17.294   2.666 -0.1929  0.2211  0.0269
16305W        W32439   9.526   9.899   0.604  0.1619 -0.1532  0.1517
16306W        W32440  16.354  10.200   0.943  0.2126  0.0985  0.2989
16307W        W32441  14.903   3.366   0.547 -0.0309  0.0238  0.1074
16308W        W32442   0.968   5.348   3.980 -0.1377  0.1421 -0.1336
16309W        W32443  15.035   8.758   3.290  0.0689  0.1437  0.0605
16310W        W32444   0.963  17.337   5.615  0.0013 -0.0966  0.0294
16311W        W32445   1.902   7.838   5.248  0.3813  0.1336 -0.1680
16312W        W32446  14.086   3.074   2.108 -0.1745 -0.1116 -0.0806
16313W        W32447  17.210  17.937  12.074 -0.0703 -0.2331 -0.1320
16314W        W32448   3.591   6.113  15.358 -0.0982 -0.3391 -0.3142
16315W        W32449  15.176   9.026   3.725  0.0252 -0.1973  0.0673
16316W        W32450  14.763   0.032   3.982  0.0992  0.2001 -0.2447
16317W        W32451   8.172   8.611  15.646  0.0745  0.4044  0.2194
16318W        W32452   8.081   3.187   1.306 -0.2036 -0.3413 -0.1101
16319W        W32453   7.667  15.122   4.477  0.3536 -0.0107 -0.0132
16320W        W32454   4.648   3.280  14.039 -0.1599 -0.1930  0.3689
16321W        W32455  16.274  15.147  15.564  0.0259 -0.3686 -0.0203
16322W        W32456   2.909  15.099   1.271 -0.0581  0.0277 -0.0623
16323W        W32457   2.045  16.103   3.945  0.2049 -0.0413  0.2834
16324W        W32458   6.225  16.776  11.563  0.1641  0.2825 -0.1354
16325W        W32459   1.277  13.402   0.874 -0.2930  0.3853  0.2013
16326W        W32460   0.120   7.052   1.340  0.1161 -0.1612 -0.0960
16327W        W32461  16.063   1.217  11.394 -0.1248 -0.1121  0.1763
16328W        W32462   1.789   9.708   1.191  0.0818  0.0972 -0.0523
16329W        W32463  15.420  14.765   5.195 -0.2292 -0.0880  0.0106
16330W        W32464   4.614  12.447  15.465  0.1582  0.2882 -0.0591
16331W        W32465   3.549   7.220  14.925  0.0144 -0.3053  0.1530
16332W        W32466   8.679  17.296  11.202 -0.2766  0.3020  0.0334
16333W        W32467   5.301   0.195   1.014 -0.1056  0.0297  0.2606
16334W        W32468  12.388  12.974   4.135 -0.4426  0.2561 -0.1680
16335W        W32469   4.243  12.789  15.618  0.1190  0.1562 -0.0079
16336W        W32470  12.849   7.886   1.765 -0.1602 -0.0407  0.2516
16337W        W32471  13.965  10.536   5.089  0.3126  0.0473 -0.3367
16338W        W32472   9.428   8.955   4.649  0.1380 -0.0800  0.0749
16339W        W32473   4.260  17.124  16.300  0.0380 -0.3072 -0.0692
16340W        W32474  17.655   6.127  12.219 -0.3770 -0.0952  0.3160
16341W        W32475   1.205   6.032   3.276  0.2069  0.0249 -0.0394
16342W        W32476   8.537  13.603  12.264  0.1389  0.2218 -0.3154
16343W        W32477  15.457   0.374   2.056 -0.0519  0.0494  0.1994
16344W        W32478   1.699   2.956  14.325  0.2416  0.3658 -0.1339
16345W        W32479   3.477  13.000   2.711  0.1348 -0.0997  0.1357
16346W        W32480  12.890   7.263  15.091 -0.1070 -0.2247  0.0144
16347W        W32481  12.850   9.366   3.406 -0.0286  0.1181 -0.1337
16348W        W32482  10.775  10.280   4.195  0.4021  0.0568  0.0374
16349W        W32483  10.163  14.348   1.898 -0.1320  0.0165 -0.2068
16350W        W32484  10.597  17.842   3.802  0.1634 -0.2065  0.0662
16351W        W32485   9.696   9.139   3.773 -0.1368  0.2657 -0.0216
16352W        W32486   9.719   9.356   2.019  0.1565 -0.0732 -0.1265
16353W        W32487  17.853  14.775   0.102 -0.3211  0.0773  0.2036
16354W        W32488   3.977  11.768  15.889  0.0293 -0.0141 -0.1911
16355W        W32489  18.083  13.081  13.998 -0.3216  0.1797  0.1290
16356W        W32490  17.120   4.811   5.176  0.1660 -0.0246  0.1089
16357W        W32491  14.648   1.663   0.108 -0.2035  0.1337 -0.0420
16358W        W32492  14.471  16.221  16.257  0.0154  0.3548  0.1086
16359W        W32493  12.670  17.715  12.122 -0.0461  0.1151  0.1440
16360W        W32494   2.582  15.084  16.086 -0.1757  0.1242  0.0890
16361W        W32495  17.981  15.301  12.728  0.1803  0.2891 -0.2254
16362W        W32496   9.493   4.959   4.998 -0.0070  0.1925  0.4252
16363W        W32497   0.783  13.492  12.713 -0.0587  0.0332 -0.0070
16364W        W32498   3.842  14.333   2.087 -0.0518  0.1505  0.2567
16365W        W32499  14.266   8.159   1.828  0.1090  0.1954  0.2328
16366W        W32500   8.640  11.277   3.360  0.2647 -0.0805  0.0327
16367W        W32501   3.069  18.019   0.911  0.0764  0.1542  0.2402
16368W        W32502   7.757   4.677  10.585  0.0666  0.1086  0.0914
16369W        W32503  15.415   8.032   2.638 -0.2837 -0.0793 -0.3287
16370W        W32504   1.434   1.997  13.180 -0.1804  0.1170  0.0799
16371W        W32505  13.867  10.202  12.216 -0.1349  0.1355 -0.5115
16372W        W32506  14.535  10.886  12.305  0.1223 -0.4043 -0.0492
16373W        W32507  14.063   9.015  13.425 -0.1594 -0.1581  0.1578
16374W        W32508   8.419   3.294   3.294  0.1182 -0.0159 -0.1264
16375W        W32509  14.867   2.929   0.320 -0.0521 -0.1482 -0.4058
16376W        W32510   1.258   5.323  15.048 -0.0168 -0.0217 -0.0788
16377W        W32511  16.713   2.127  13.580 -0.2282  0.2860 -0.1327
16378W        W32512  14.639  14.495   4.103 -0.1538 -0.0315  0.0125
16379W        W32513  13.616   3.054   0.759 -0.1746  0.1169 -0.1200
16380W        W32514   1.640   7.398   3.045 -0.0215 -0.1016  0.4331
16381W        W32515   3.872   9.175   3.186  0.1857 -0.1835 -0.2161
16382W        W32516   8.776   9.595  14.276 -0.1749  0.1889 -0.0501
16383W        W32517  14.519   7.721   4.008 -0.1403  0.1590 -0.0761
16384W        W32518   4.866   0.062  14.037 -0.1189  0.2973 -0.0899
16385W        W32519   1.216   7.566  14.937  0.1147 -0.1332  0.1887
16386W        W32520  14.819   9.177   1.278 -0.2110  0.1633  0.0766
16387W        W32521   8.269  14.090   5.098 -0.3024  0.1354  0.1194
16388W        W32522  17.658  17.487  13.673  0.1344  0.0595  0.0801
16389W        W32523  14.269   0.073   3.374 -0.1267  0.0421 -0.0073
16390W        W32524  13.575  14.374  15.903  0.2293  0.1085  0.0045
16391W        W32525   9.253   7.769  16.391  0.0920 -0.1086 -0.0756
16392W        W32526   8.701   6.833  13.309 -0.2420 -0.0631  0.0605
16393W        W32527  15.377  10.959  15.041 -0.0499  0.4040 -0.0413
16394W        W32528  12.312  10.220   1.929 -0.3770  0.5620 -0.4434
16395W        W32529  10.928   1.266  11.364 -0.1496 -0.1108 -0.2517
16396W        W32530   8.865   0.701  12.749  0.1090 -0.1030 -0.1159
16397W        W32531   9.932   3.974  13.188  0.3629  0.1607  0.0364
16398W        W32532   0.120   8.448  15.061  0.0641  0.2181 -0.4088
16399W        W32533   5.132   0.537   5.556  0.4895 -0.1446 -0.1436
16400W        W32534   1.666   1.546  11.470  0.1059  0.1058  0.2227
16401W        W32535   2.530   7.936  13.961 -0.1998  0.0425 -0.1149
16402W        W32536   9.075  13.444  13.401  0.0435 -0.2388 -0.2036
16403W        W32537  17.409  10.448  15.801 -0.2199  0.0192  0.2345
16404W        W32538  16.246   8.046   2.225 -0.2118 -0.0328 -0.1389
16405W        W32539   8.766   0.312  15.440  0.1631 -0.0808 -0.1026
16406W        W32540   5.015   3.301  12.050  0.2446  0.1265 -0.0226
16407W        W32541   2.200   9.790  13.320 -0.1369 -0.1096 -0.2464
16408W        W32542  12.641  16.371  14.915 -0.0615 -0.2536 -0.0538
16409W        W32543  10.037  17.919  12.772 -0.0315 -0.1961  0.0282
16410W        W32544   6.837  12.145  10.510 -0.1960 -0.0786 -0.2265
16411W        W32545   2.692   3.540  13.112 -0.0494 -0.2536 -0.0886
16412W        W32546   5.667   5.476   0.749  0.2017 -0.1061  0.1587
16413W        W32547  12.537  17.006  16.082  0.2331  0.1912 -0.0024
16414W        W32548   3.216   0.511  14.870 -0.3775 -0.1205  0.1976
16415W        W32549  17.618  16.234   1.379 -0.0084  0.1829 -0.1694
16416W        W32550  13.786   1.230   4.965 -0.3323 -0.5313 -0.0124
16417W        W32551  14.442  15.313   0.455  0.0722  0.0355 -0.2239
16418W        W32552   6.847  15.085  15.411  0.0954  0.2900  0.2249
16419W        W32553  11.806  15.261  12.867 -0.3269 -0.0499 -0.0843
16420W        W32554   6.583   8.738  12.123  0.1335  0.0534 -0.0341
16421W        W32555  16.935  10.980  11.961  0.1134  0.0519  0.1221
16422W        W32556   5.779  12.554   1.158 -0.1044 -0.3080 -0.1774
16423W        W32557  11.124  13.423  15.468  0.1083 -0.0528  0.2288
16424W        W32558   8.144  15.146   3.659  0.0935 -0.0865 -0.1153
16425W        W32559   4.289  10.114   3.761  0.0118  0.4924  0.5628
16426W        W32560  12.874  16.757  10.695  0.2340  0.1421  0.1005
16427W        W32561  15.635  11.881   5.431  0.2007  0.0028 -0.1669
16428W        W32562  14.565   8.667   2.106  0.0679 -0.2169 -0.0646
16429W        W32563  12.549  13.648   4.641 -0.0140  0.1470  0.3365
16430W        W32564  10.061   6.860  12.036 -0.0219  0.1475 -0.2403
16431W        W32565   7.671   7.009   5.813 -0.2184 -0.0842  0.2450
16432W        W32566   8.973   3.441  13.358 -0.1124 -0.1115  0.4202
16433W        W32567   3.833  14.779  13.843  0.1006  0.0047  0.1419
16434W        W32568   2.673   3.779  16.239  0.1288 -0.2503 -0.0382
16435W        W32569  15.921  17.479   5.023 -0.3843  0.0124 -0.0529
16436W        W32570   7.961   2.650   0.506 -0.2908  0.0114  0.0334
16437W        W32571  15.559  12.947   1.460  0.2379  0.1099  0.0820
16438W        W32572  12.070   9.046  15.446  0.2913  0.0314 -0.0817
16439W        W32573  12.866  15.996  16.102 -0.0421  0.2110  0.1801
16440W        W32574  11.526   7.979  11.496 -0.1903 -0.1237 -0.0251
16441W        W32575  17.863  13.507  15.271 -0.1749  0.2781 -0.2106
16442W        W32576   2.926   1.449  16.124 -0.2909 -0.2568  0.0256
16443W        W32577   5.609  10.415   4.040  0.0736  0.1846 -0.0626
16444W        W32578  13.467   7.211   0.901  0.1333 -0.1256  0.0737
16445W        W32579  16.678   9.850   3.917  0.1265  0.1361  0.0951
16446W        W32580   3.033   6.097  15.246 -0.0392 -0.0399  0.0019
16447W        W32581   0.937   3.992  12.141  0.1696 -0.1455  0.2148
16448W        W32582  11.161   0.332  14.888  0.1747 -0.2225  0.2440
16449W        W32583  13.471   0.807  11.554 -0.1903  0.0935 -0.1441
16450W        W32584   4.365  17.447  12.933 -0.0400 -0.0335 -0.1927
16451W        W32585  10.919   3.568  12.703 -0.1875 -0.0388 -0.0434
16452W        W32586  13.395   4.561   2.742  0.0422 -0.3183 -0.4256
16453W        W32587  12.296   7.481  13.229 -0.0826  0.3758 -0.3219
16454W        W32588  10.271   9.349  14.835 -0.2123  0.2127  0.0362
16455W        W32589   5.380   2.867   1.181 -0.2825  0.1643 -0.0428
16456W        W32590  10.790   4.199  15.626  0.1476  0.0590 -0.4223
16457W        W32591   6.599   6.564  15.053  0.0576 -0.1361  0.2039
16458W        W32592   4.577   3.645  11.298 -0.1173 -0.1175 -0.0544
16459W        W32593  11.903  13.256  12.656 -0.2401  0.1521  0.0423
16460W        W32594  16.289   4.730   2.360  0.1939 -0.0356 -0.2156
16461W        W32595   2.068   5.784  12.352  0.2753  0.1164 -0.0206
16462W        W32596  13.644  13.680  13.559  0.1476  0.1440 -0.0530
16463W        W32597   4.336  14.254   0.200 -0.0120  0.2156 -0.2228
16464W        W32598  11.202  11.543   0.012 -0.0784  0.2022 -0.0858
16465W        W32599  15.317   1.971  12.893  0.1567  0.0429  0.2844
16466W        W32600  11.067  13.192   1.578  0.1723  0.0748 -0.3790
16467W        W32601  16.323   2.972   4.039 -0.0413 -0.0750  0.1867
16468W        W32602   0.750   6.832   3.942 -0.1981 -0.1564 -0.0125
16469W        W32603   7.238   0.208  15.108  0.1958 -0.1635  0.0464
16470W        W32604   3.467   7.575   1.043 -0.0762  0.0438  0.0754
16471W        W32605  16.777   9.849   4.437 -0.1906  0.2351 -0.1602
16472W        W32606   8.267   3.696  15.435  0.0288  0.0478  0.0037
16473W        W32607  17.574  17.421  14.507 -0.0360  0.0890 -0.0161
16474W        W32608   9.633   2.036   2.169 -0.1964 -0.0412  0.0571
16475W        W32609   7.669   7.060   5.213  0.3057 -0.2509  0.0467
16476W        W32610   0.478   0.183   0.231 -0.1038  0.0136 -0.1218
16477W        W32611  10.234   5.730   4.280 -0.0728 -0.2560 -0.1153
16478W        W32612  10.977   7.821  14.274  0.2825 -0.1802  0.1861
16479W        W32613   0.474   6.251  13.486 -0.0382  0.0727 -0.1435
16480W        W32614   4.366   1.797  13.546  0.0013 -0.3279 -0.0888
16481W        W32615   6.503  17.570  12.103  0.0162  0.1568 -0.1230
16482W        W32616  10.812  11.111  16.284 -0.0319  0.1200  0.1005
16483W        W32617  10.866   9.959   0.870 -0.2938 -0.2306  0.0868
16484W        W32618  12.551   4.980  14.847 -0.1722 -0.3535 -0.0061
16485W        W32619   6.619  14.165  13.474  0.2714  0.2743 -0.2850
16486W        W32620  14.903  16.596  14.500 -0.1416 -0.3144  0.1476
16487W        W32621  12.262  14.460   3.923  0.0335 -0.3068  0.1462
16488W        W32622   0.272   0.915   4.804 -0.0293  0.0776  0.1050
16489W        W32623  15.939   6.781  15.837 -0.0365  0.0896  0.1097
16490W        W32624   6.516  10.119   5.233  0.3215  0.2887 -0.1591
16491W        W32625  13.697  10.200  13.651 -0.0980  0.1767  0.0231
16492W        W32626  13.294   9.899  13.655 -0.1798  0.0632 -0.0865
16493W        W32627   5.526   5.814   1.596 -0.3513 -0.0004 -0.2994
16494W        W32628   0.465  17.434   0.464 -0.3102 -0.1982 -0.1004
16495W        W32629   7.220  10.866  16.316  0.1691  0.0103  0.0297
16496W        W32630  17.861  10.412  12.437  0.0279 -0.2455 -0.0758
16497W        W32631   5.121   7.726  11.637 -0.0581 -0.0889  0.4403
16498W        W32632   3.816  16.811   4.624  0.4343  0.1440  0.1136
16499W        W32633   8.268  11.402   3.019 -0.0112  0.0129  0.0206
16500W        W32634  10.087   9.403   0.996  0.0195 -0.0146  0.0490
16501W        W32635   4.441  16.888  13.606  0.2878 -0.1368  0.0423
16502W        W32636   8.531   4.138  15.497  0.2259 -0.1924  0.0023
16503W        W32637  13.231   4.671  12.668  0.1744  0.0802 -0.2578
16504W        W32638  17.276  12.273   0.925 -0.2040  0.1604 -0.1717
16505W        W32639  13.696   1.663   1.326 -0.1228 -0.3417 -0.2630
16506W        W32640  16.538  17.538  11.782  0.1371 -0.4584  0.1304
16507W        W32641   1.388   9.455  11.981  0.1653 -0.0191  0.1264
16508W        W32642   9.190   2.647  14.016  0.0358  0.0843  0.0634
16509W        W32643   8.126  10.604   0.792 -0.0369 -0.1172 -0.1155
16510W        W32644  13.833   2.607   4.990  0.1971  0.1520 -0.1148
16511W        W32645  15.228  12.326   2.617 -0.0540 -0.0368  0.1107
16512W        W32646  17.136   4.593   0.078  0.0312 -0.0123 -0.1869
16513W        W32647   7.029  13.562   5.936 -0.1524  0.0980 -0.0350
16514W        W32648   3.411   8.642   2.028 -0.0385  0.1688  0.3936
16515W        W32649   2.967  17.760   5.919 -0.0380  0.1102  0.1007
16516W        W32650   7.789   2.342   4.039 -0.1000 -0.2174  0.1382
16517W        W32651  11.657   6.095   1.633  0.0229 -0.2528  0.3109
16518W        W32652  15.935  13.319   0.108  0.0943  0.3485  0.1768
16519W        W32653   4.132  10.775   3.382  0.0400 -0.1324  0.0408
16520W        W32654   1.762  11.930  11.595 -0.2842  0.1097 -0.1104
16521W        W32655   6.251   0.497   4.509  0.0374 -0.1878 -0.1904
16522W        W32656  17.825   7.167   2.262  0.0498 -0.0020 -0.1588
16523W        W32657   5.340  15.275   3.017 -0.0137 -0.2075 -0.3507
16524W        W32658   0.891   8.639   3.823  0.0279 -0.4039  0.1616
16525W        W32659   0.636   6.773  11.227 -0.0033  0.1985 -0.1834
16526W        W32660  10.064  10.630  12.328 -0.1770  0.1086  0.1330
16527W        W32661  12.621   0.675  13.866 -0.1055 -0.0596  0.1214
16528W        W32662   6.935  11.424  12.137 -0.1611  0.0993  0.2231
16529W        W32663   4.396   5.711  12.073 -0.0381  0.1683 -0.0265
16530W        W32664  17.499   1.507   0.942  0.3448  0.0101  0.0793
16531W        W32665   6.864  17.166   2.722 -0.0135  0.4465 -0.1675
16532W        W32666   2.767   7.164  13.707  0.1343 -0.3270  0.0134
16533W        W32667   1.573  13.839  12.471  0.1410 -0.1452  0.2852
16534W        W32668  11.279   3.854   2.504  0.0384  0.1461  0.0917
16535W        W32669   6.184   0.336   6.220 -0.0500 -0.2138  0.2143
16536W        W32670  18.037   9.646   0.166  0.0519  0.0609  0.0669
16537W        W32671  10.409   8.880  12.632  0.0841  0.1643  0.1093
16538W        W32672  16.360   1.474   1.898  0.1029 -0.1147  0.2820
16539W        W32673  13.123   4.535   5.099 -0.1201  0.4315 -0.1915
16540W        W32674   7.679   1.753   4.729 -0.1986 -0.1459 -0.0742
16541W        W32675  14.894   3.143   3.909 -0.2292 -0.0182 -0.0752
16542W        W32676   5.092   0.547  12.268  0.5264  0.0798 -0.0761
16543W        W32677   9.985   8.840   1.272  0.0674  0.0580  0.0507
16544W        W32678  10.061  11.662   5.113  0.0494  0.0053 -0.1263
16545W        W32679   3.559   8.363   0.288  0.4494 -0.2490  0.0124
16546W        W32680  16.468  16.764  14.790 -0.0310  0.1327  0.0961
16547W        W32681  12.504  12.558   4.699 -0.1294 -0.2211  0.1084
16548W        W32682   1.224   6.842   5.424 -0.0540  0.0818  0.2632
16549W        W32683   7.966  10.686   2.372  0.2167 -0.2018  0.2050
16550W        W32684  11.907   2.656  10.015  0.2913 -0.1581  0.0023
16551W        W32685  15.231   3.031  16.354  0.3332  0.0954  0.1618
16552W        W32686  16.773  14.896  14.982  0.3260 -0.0238 -0.2463
16553W        W32687  17.140  17.955  14.989 -0.1970  0.0096 -0.0310
16554W        W32688  12.217  15.101  15.382  0.0352  0.0750 -0.3164
16555W        W32689   6.175  17.826   2.322 -0.2366  0.2156 -0.1396
16556W        W32690   3.958  16.722   2.289 -0.1919 -0.3093 -0.3215
16557W        W32691  15.362   4.819   4.683  0.2396  0.1031  0.1228
16558W        W32692  16.913  17.269  15.850  0.1102 -0.1471 -0.1031
16559W        W32693   1.165   4.603   0.273  0.0233 -0.0668 -0.3398
16560W        W32694  13.516   1.749   3.321  0.1175  0.1399  0.3923
16561W        W32695  16.192  16.697  13.005  0.0734  0.0746  0.1058
16562W        W32696   7.373  12.548  12.317 -0.1788  0.2640 -0.2663
16563W        W32697  10.394   1.143  13.388 -0.0283 -0.0087 -0.2638
16564W        W32698   8.601  12.836  13.544  0.2055 -0.2338  0.0718
16565W        W32699  14.205   9.091  12.931  0.0849  0.1301 -0.0007
16566W        W32700  17.157  17.944  16.134 -0.2730 -0.0895 -0.0376
16567W        W32701   8.957  15.428  11.632  0.0503 -0.2434 -0.0283
16568W        W32702   7.863   8.454  11.859 -0.1882 -0.0056  0.0344
16569W        W32703   5.525   7.634  13.066  0.0383 -0.3900  0.0402
16570W        W32704   9.989   4.874  13.777  0.0423  0.2035 -0.0297
16571W        W32705  11.135  10.054   1.266 -0.1814  0.0160  0.0458
16572W        W32706   9.844  17.318   4.324 -0.1089  0.1209 -0.1990
16573W        W32707   2.194  10.017   1.463 -0.2451  0.0361 -0.2786
16574W        W32708  12.943   0.909   2.895 -0.2628  0.1078 -0.1152
16575W        W32709   0.623  17.945  15.897  0.2393 -0.4367 -0.4109
16576W        W32710   7.965   3.933   2.098  0.1315  0.1362  0.0837
16577W        W32711   2.740   8.646   5.189 -0.0688 -0.1666 -0.1100
16578W        W32712  16.997   7.435   1.797 -0.0579 -0.0126 -0.2179
16579W        W32713   2.852  11.000  14.444 -0.2842 -0.0050 -0.2987
16580W        W32714   9.412  14.409  12.363  0.2464  0.1661 -0.0087
16581W        W32715   7.985   7.382  14.048  0.3725 -0.1958 -0.1109
16582W        W32716  12.159  14.785   2.418 -0.1631 -0.1389 -0.0694
16583W        W32717   4.118  14.222  15.415 -0.0094 -0.0505 -0.0148
16584W        W32718   3.406  11.373  11.928  0.2771  0.1272  0.2313
16585W        W32719   0.835   8.961  14.056  0.1875 -0.2911  0.2560
16586W        W32720   9.441  12.356  12.787  0.3367 -0.3383  0.0407
16587W        W32721  10.266   0.176  13.101  0.1522 -0.0606  0.4491
16588W        W32722   6.945   7.716   4.199  0.0514  0.0773 -0.3476
16589W        W32723   6.130   3.240  15.260 -0.1868  0.2715 -0.0479
16590W        W32724   3.816   1.670  12.974 -0.2329  0.2277 -0.0919
16591W        W32725   1.790   7.610   3.912 -0.0604 -0.0884  0.0552
16592W        W32726   8.185  11.332  14.044 -0.1381  0.1703  0.0175
16593W        W32727   5.816   3.271   3.975  0.1760  0.2481  0.0030
16594W        W32728   7.901  12.504   3.007 -0.0329 -0.1641  0.0965
16595W        W32729   2.715   7.734   0.517  0.1212  0.0900  0.0188
16596W        W32730   1.078   2.624   4.657  0.0008  0.2781  0.0206
16597W        W32731   1.888  13.469  12.768  0.0329  0.0597  0.0304
16598W        W32732   7.139  10.859   3.669 -0.0673  0.1185  0.4791
16599W        W32733  14.079  15.172  16.011 -0.0660 -0.1085  0.5034
16600W        W32734   8.653   5.092  15.803  0.1808 -0.0168 -0.1427
16601W        W32735  11.633   0.015   2.848  0.2988 -0.3586  0.1855
16602W        W32736  15.592  12.166   3.956  0.1914  0.0054  0.0824
16603W        W32737  10.662   3.317   5.399  0.0382  0.0813  0.1493
16604W        W32738   9.030  10.538   4.785  0.0190  0.2310 -0.0839
16605W        W32739  13.072   3.716   2.692 -0.1436  0.1371  0.0265
16606W        W32740  13.861   0.770  12.455  0.2756  0.2117  0.0281
16607W        W32741  13.736   4.297   4.853 -0.0262 -0.4684  0.1066
16608W        W32742   5.619  11.365   4.911  0.0160  0.3972  0.2406
16609W        W32743   5.936   7.306  14.633 -0.1569 -0.2689 -0.2270
16610W        W32744  12.477  16.234  14.470 -0.1508  0.1252 -0.0088
16611W        W32745  12.095  14.514   5.642  0.4968  0.0404 -0.0350
16612W        W32746   0.113   5.167  11.176  0.2259  0.0028  0.0841
16613W        W32747  17.314  12.169  11.741  0.0685 -0.0912  0.0598
16614W        W32748   3.688  13.062   1.626 -0.0056  0.0944  0.1658
16615W        W32749  11.153  14.661   3.722 -0.2612  0.0780 -0.0409
16616W        W32750  11.789   6.825  11.976 -0.2291  0.2316 -0.2104
16617W        W32751   8.289   4.768   4.864 -0.2580  0.2674 -0.0481
16618W        W32752  16.984  11.822   0.661  0.1851 -0.1686 -0.3437
16619W        W32753  14.051   8.077   3.033  0.0089  0.1493  0.3001
16620W        W32754   5.747  16.056   4.070  0.0060  0.0680 -0.2038
16621W        W32755   8.571   2.607  11.610 -0.1518  0.0216 -0.1370
16622W        W32756  16.543  11.187  12.451 -0.1777 -0.1480  0.2110
16623W        W32757   6.799   5.130   0.145 -0.0312  0.2568 -0.1344
16624W        W32758  17.191   6.145   2.416  0.1107  0.1794  0.0481
16625W        W32759   1.533  17.934  12.831  0.1045 -0.2762  0.1878
16626W        W32760  16.176   3.420  15.767 -0.1831  0.3013 -0.0749
16627W        W32761  13.089   9.709   3.827 -0.1158  0.2882  0.1599
16628W        W32762  14.068   6.346   0.731 -0.1586 -0.2003  0.2327
16629W        W32763  16.198   5.510  11.964  0.3661 -0.4322  0.2209
16630W        W32764   4.314   5.213  11.943 -0.1204 -0.0001  0.4115
16631W        W32765   3.072   5.310   1.366  0.0151 -0.1582 -0.1707
16632W        W32766  11.117  13.842  11.762 -0.1924 -0.2850 -0.2593
16633W        W32767  13.476   9.073  15.664 -0.1097  0.1874 -0.0179
16634W        W32768   6.523   9.277   0.622  0.1727  0.1475 -0.2633
16635W        W32769  10.973  14.526  11.831 -0.4747 -0.3768 -0.3157
16636W        W32770  13.161  10.572   4.406 -0.1617  0.0901 -0.1885
16637W        W32771   6.772   7.196  12.011 -0.0798  0.0095 -0.0461
16638W        W32772   7.601   3.821   0.409 -0.0390 -0.3178 -0.0412
16639W        W32773   8.939  10.885  15.632 -0.0490 -0.0236 -0.1540
16640W        W32774   1.651   3.368  15.956  0.0947  0.1458  0.3393
16641W        W32775  14.648   2.492  14.683  0.3130  0.1511 -0.2996
16642W        W32776   3.344  15.837   2.574  0.2165 -0.0726  0.1341
16643W        W32777   7.596  15.471   0.701  0.1871 -0.1988  0.1085
16644W        W32778  13.130  11.061   5.366  0.1407 -0.2329 -0.0875
16645W        W32779  11.988  15.998   5.617 -0.1891 -0.1063  0.0987
16646W        W32780   7.068  14.665   0.224  0.0057 -0.1719 -0.0492
16647W        W32781  10.978   8.695  15.781 -0.1858 -0.0082 -0.1259
16648W        W32782  11.025  13.178   6.438  0.1538  0.1403 -0.2763
16649W        W32783   1.303  12.830  14.133 -0.0330 -0.2132 -0.0299
16650W        W32784   4.657  16.262   4.974  0.1798  0.0556 -0.1305
16651W        W32785   4.075   8.750  11.161  0.1440 -0.1252  0.3650
16652W        W32786  11.117   3.905  16.192  0.0630 -0.0509 -0.0710
16653W        W32787   7.842   7.336   4.101 -0.1595  0.1329 -0.1787
16654W        W32788   8.778   5.011   1.327  0.1370 -0.0089 -0.2111
16655W        W32789   1.575  11.424   2.081 -0.4152 -0.1675  0.0343
16656W        W32790  10.746   2.786   0.397  0.0746 -0.1611 -0.1909
16657W        W32791   7.750   4.371  12.807  0.1395 -0.2247 -0.0719
16658W        W32792   3.931   6.629  14.045 -0.2287  0.2663  0.1465
16659W        W32793   8.903   7.160   4.718 -0.2785  0.3243 -0.2566
16660W        W32794  13.020  13.656   4.440 -0.0490  0.2781  0.1226
16661W        W32795  17.058   9.889   1.488 -0.1080 -0.0757  0.1003
16662W        W32796  10.299  10.270  11.514  0.1179 -0.1345 -0.0674
16663W        W32797  17.936   9.317  14.489  0.0950 -0.0441  0.0486
16664W        W32798   8.670   2.248  15.546 -0.1904 -0.1030 -0.0116
16665W        W32799  16.939  10.671  14.504  0.0544 -0.2331 -0.0813
16666W        W32800   8.022  14.850  11.969  0.1680 -0.3124 -0.2311
16667W        W32801  11.605  17.789   3.407 -0.1347  0.2313 -0.0449
16668W        W32802  14.963   5.150  12.065  0.1345  0.1922  0.1302
16669W        W32803   8.290  13.748   2.496  0.0556 -0.1813 -0.3810
16670W        W32804   9.623  16.351   0.871 -0.1870  0.0987 -0.3510
16671W        W32805   4.535   0.817  16.054  0.2361  0.1605  0.1262
16672W        W32806   4.343  10.725   3.800 -0.1261 -0.1332  0.0259
16673W        W32807   0.388  14.846  16.367 -0.1123  0.0482  0.2726
16674W        W32808  15.252  11.204  10.847  0.1461  0.0601 -0.1357
16675W        W32809  17.792  17.038   2.864  0.1842  0.0243  0.0128
16676W        W32810   4.841   6.919  12.836  0.2457  0.4008 -0.0140
16677W        W32811   4.508   4.053   1.588  0.0392  0.1007  0.1085
16678W        W32812  10.104  11.577   3.993  0.2031 -0.0022 -0.2523
16679W        W32813   4.281  10.469  13.711  0.4116 -0.0106  0.3975
16680W        W32814   7.324  17.227   3.762 -0.1461  0.1238 -0.0069
16681W        W32815   4.579   4.725   3.859  0.0054 -0.1509  0.0426
16682W        W32816   1.342  15.771   4.189  0.0611 -0.1018 -0.0851
16683W        W32817   0.033  18.041   0.214 -0.1358 -0.2566 -0.0408
16684W        W32818   6.597  11.824   3.651 -0.1026  0.0234 -0.0198
16685W        W32819   8.000   2.364  15.947 -0.2573 -0.1889  0.1548
16686W        W32820   2.993   4.950   0.310 -0.1383 -0.1020  0.0215
16687W        W32821  10.470  16.024   3.177 -0.4267  0.0273  0.2303
16688W        W32822  17.204   7.446   5.306  0.1250 -0.2216  0.1576
16689W        W32823   6.567  12.392   5.320 -0.3003 -0.0411  0.1607
16690W        W32824   8.528  14.630  14.703  0.3553 -0.0077 -0.2706
16691W        W32825  14.482   7.884  14.180  0.1547 -0.1371 -0.3220
16692W        W32826   9.702  11.117  11.876  0.1370 -0.2946  0.0663
16693W        W32827   4.152  11.942   5.067 -0.0380  0.1103  0.1660
16694W        W32828   7.645   4.370   0.339 -0.1066 -0.0127 -0.0375
16695W        W32829   8.860  16.149  11.286 -0.1544 -0.0729  0.0053
16696W        W32830   0.205  10.369   1.847 -0.1681 -0.1452  0.0837
16697W        W32831   7.050   2.763  14.571  0.1077  0.1530 -0.1227
16698W        W32832   2.695  14.412  14.064 -0.0265 -0.0143  0.1302
16699W        W32833  16.997   8.546   3.911 -0.1028 -0.5253 -0.2294
16700W        W32834  16.362   4.632   5.652 -0.2894 -0.1973 -0.0305
16701W        W32835  17.635   4.721  15.153 -0.1155 -0.0562  0.0494
16702W        W32836  14.789   9.154   4.981 -0.3991 -0.3796 -0.0580
16703W        W32837   2.105   6.303  12.534 -0.2374 -0.1533 -0.0392
16704W        W32838  14.296  14.195  11.724 -0.0900 -0.1110  0.1593
16705W        W32839  11.529   9.738  12.304 -0.0870 -0.1352  0.2621
16706W        W32840  12.172   6.973  15.611  0.0303 -0.0390 -0.0458
16707W        W32841  13.901   6.785   4.556 -0.0027 -0.2716  0.1999
16708W        W32842  16.710   8.482   3.467 -0.3419 -0.1495 -0.0886
16709W        W32843   0.773   8.249  12.541  0.0026 -0.0507 -0.0035
16710W        W32844   3.300   8.627  10.501  0.2627 -0.1896 -0.2208
16711W        W32845  15.599  16.792   3.429 -0.0988  0.0965  0.3783
16712W        W32846   0.065  16.333   2.911 -0.1030 -0.0701 -0.2627
16713W        W32847  15.922  15.205   1.484 -0.0437 -0.5288 -0.1005
16714W        W32848   4.434   4.185   3.880  0.3042  0.1098  0.0646
16715W        W32849  13.749   0.165  12.390 -0.5001 -0.2040  0.0951
16716W        W32850   2.428  11.122   0.976 -0.1741  0.1186  0.0632
16717W        W32851   0.061   1.394  12.685 -0.2567  0.0384 -0.2965
16718W        W32852   2.143  16.293   0.583 -0.1180  0.3706  0.0487
16719W        W32853   6.506   7.788  11.332  0.1298 -0.1639 -0.0055
16720W        W32854  14.147   3.320   4.362 -0.0366 -0.0745  0.0403
16721W        W32855  16.382   9.776   0.607  0.0943 -0.1199 -0.1803
16722W        W32856  15.304   2.304   3.008  0.0548 -0.0323 -0.1961
16723W        W32857  12.282   0.048   4.436 -0.0245 -0.1170  0.0605
16724W        W32858   2.920  11.708   4.532  0.1002  0.2378  0.2280
16725W        W32859   0.906  14.977  14.346  0.1198 -0.1997  0.0968
16726W        W32860   5.807   1.085  11.811 -0.0391 -0.0179 -0.2835
16727W        W32861   7.224   1.586  15.758  0.1852  0.1685 -0.2229
16728W        W32862   4.172  13.352  12.634  0.2661  0.2508  0.0009
16729W        W32863   6.298  13.150  14.013  0.1648 -0.1552 -0.0237
16730W        W32864  11.175  11.265  16.010  0.1013  0.0429  0.3993
16731W        W32865  14.348   0.228  13.276 -0.0381  0.1650  0.0916
16732W        W32866   0.258   5.557  15.537 -0.0139 -0.1997 -0.0284
16733W        W32867  17.256   8.605   2.843 -0.1579  0.1907  0.0968
16734W        W32868   6.096  14.444  11.192 -0.0494  0.0143  0.4329
16735W        W32869  14.249  12.241  13.169  0.0461  0.2879  0.2057
16736W        W32870   1.772   2.050   2.909  0.0051 -0.1670  0.1419
16737W        W32871   2.446  17.460   6.153  0.0089  0.1230  0.0986
16738W        W32872   2.670   5.075   2.170 -0.0694 -0.0003  0.2141
16739W        W32873  13.785  11.888   4.054  0.2010  0.0505 -0.2047
16740W        W32874  12.449   7.203   1.026 -0.1068  0.0668 -0.2057
16741W        W32875   4.127  17.360   1.193 -0.0053  0.0267 -0.0017
16742W        W32876   6.301  16.694   4.389  0.1043 -0.0701 -0.0962
16743W        W32877  13.620   9.125  11.952  0.0964 -0.1763  0.1288
16744W        W32878   3.188   7.857   0.322 -0.2258 -0.0662  0.4012
16745W        W32879  11.561  17.565  13.095  0.2421 -0.1839 -0.1540
16746W        W32880   9.614  16.700   1.284  0.0899  0.2600 -0.4373
16747W        W32881  10.212   1.185  13.873  0.0120 -0.0963 -0.4994
16748W        W32882   4.840   4.721  12.140 -0.0410 -0.0198  0.1174
16749W        W32883   7.858   3.849  15.210  0.1162  0.0816 -0.1441
16750W        W32884   6.909   5.122   4.548  0.2124 -0.1805  0.0300
16751W        W32885  11.751  12.176   4.126  0.2584 -0.1810 -0.1650
16752W        W32886  14.185   1.642  12.530 -0.1433  0.3261 -0.0275
16753W        W32887   9.286  11.024   2.931  0.0278 -0.2188 -0.2216
16754W        W32888   8.884  10.495   3.010 -0.2016 -0.2087 -0.1420
16755W        W32889  10.521   7.987  14.224 -0.1608  0.1727 -0.0585
16756W        W32890  16.649  16.024   2.216  0.0663 -0.0398  0.0246
16757W        W32891   4.808  15.604  10.515  0.0889 -0.2527 -0.1625
16758W        W32892   1.876   0.894   3.341 -0.2522 -0.1656 -0.2565
16759W        W32893   5.339   6.907   5.812 -0.0901  0.1266 -0.1589
16760W        W32894   3.282   7.680   3.666  0.0750 -0.1845 -0.0239
16761W        W32895  12.980  13.939  11.481 -0.2241  0.0621 -0.1682
16762W        W32896   7.651   3.296   3.999  0.2837 -0.1661 -0.2723
16763W        W32897   4.190  15.946  14.928  0.0495 -0.2649  0.0329
16764W        W32898  17.236  13.353   1.395  0.2580 -0.0692  0.0503
16765W        W32899   6.707  15.563  12.497  0.1588  0.3650 -0.0269
16766W        W32900  16.993   3.680   2.764 -0.0511 -0.4070 -0.2391
16767W        W32901   5.318  17.448  12.532  0.1578  0.1075  0.0299
16768W        W32902  16.858   8.943   3.567 -0.0259 -0.1982 -0.1085
16769W        W32903  18.061   7.058  12.997  0.1094  0.0397  0.0891
16770W        W32904   0.633   9.240  14.839  0.1396  0.2832 -0.0507
16771W        W32905   2.140  16.081  13.123 -0.0828  0.0462  0.0517
16772W        W32906   8.407   3.194   0.066  0.0126  0.2502 -0.0156
16773W        W32907  14.829   5.131  16.310 -0.1275 -0.2052  0.1393
16774W        W32908  14.882   4.762  13.761 -0.2712  0.3042  0.0921
16775W        W32909   7.530   1.488   2.478  0.1292  0.1636 -0.1983
16776W        W32910  14.048   2.774   2.766  0.3888 -0.1488  0.0642
16777W        W32911  15.439  15.358  15.566  0.1002 -0.0657 -0.0321
16778W        W32912   6.814   7.277  13.276 -0.0909  0.0682 -0.0886
16779W        W32913   5.475   2.210  12.230  0.2295  0.1645 -0.1298
16780W        W32914  12.414  16.632   5.251  0.0180 -0.2704 -0.2060
16781W        W32915  16.044   1.658   5.120  0.4328  0.2696 -0.0658
16782W        W32916   5.541   9.351  11.500 -0.4112  0.0094 -0.0270
16783W        W32917  11.930   2.057  15.939 -0.2055 -0.2681  0.0347
16784W        W32918   3.376  13.371   3.677  0.1293 -0.1146 -0.2610
16785W        W32919   9.776  10.820   4.514 -0.2211  0.1149 -0.2930
16786W        W32920  13.548   1.062  10.914 -0.1561 -0.1262 -0.1844
16787W        W32921   3.216   3.464   2.545  0.0353 -0.1785  0.0083
16788W        W32922   9.775  15.365   3.136  0.0507 -0.3001  0.0580
16789W        W32923  15.089   3.400   4.532  0.0900  0.1200  0.0977
16790W        W32924   5.786   5.063   1.759 -0.0181  0.1243  0.1705
16791W        W32925  16.027   1.231   4.223 -0.0412  0.1455 -0.0495
16792W        W32926   5.997   5.131   5.311  0.1048 -0.2400 -0.0451
16793W        W32927   4.377  16.461  11.941 -0.1567  0.1059  0.0283
16794W        W32928  17.318  17.822   5.200 -0.2189 -0.2121  0.0181
16795W        W32929  10.234   1.260  12.036  0.0854 -0.0749  0.0677
16796W        W32930  12.880   8.475  13.992 -0.3670 -0.0871  0.1045
16797W        W32931   3.391  16.414  11.855  0.1185  0.3642 -0.1057
16798W        W32932  16.351  13.239  12.949 -0.1732  0.1798  0.0555
16799W        W32933   9.750  17.592  10.873  0.2086  0.1971 -0.1846
16800W        W32934  11.933  10.152  12.011 -0.1171  0.0987 -0.0426
16801W        W32935  10.475   3.045  12.661  0.2204  0.2279 -0.0711
16802W        W32936   8.005  13.258   2.467 -0.3344  0.0375 -0.0550
16803W        W32937  11.557   4.948   4.846  0.0358  0.2037 -0.1346
16804W        W32938   0.708   3.913   4.914 -0.0483  0.1811  0.1327
16805W        W32939   5.036  15.071   4.001 -0.0406  0.1267 -0.2616
16806W        W32940   9.773   1.805   1.523  0.2350  0.1088  0.2304
16807W        W32941   2.172  11.216  10.592 -0.0077 -0.1065  0.0543
16808W        W32942  16.893   2.296   2.220  0.2725 -0.2086 -0.2593
16809W        W32943   2.281  12.989  13.924 -0.1786 -0.0088  0.2300
16810W        W32944   9.836  17.320   1.169  0.1045 -0.2103  0.3704
16811W        W32945  10.475  11.245  13.828 -0.1424 -0.1053  0.0652
16812W        W32946   0.662  10.849   1.271 -0.0632 -0.1513  0.2186
16813W        W32947  16.585   7.724   0.306 -0.1985 -0.3383  0.0548
16814W        W32948   6.092   9.667   2.589  0.0603  0.1337  0.1205
16815W        W32949  15.016   5.418  10.235 -0.0437  0.0669  0.0599
16816W        W32950   5.697  16.586  14.386  0.0366  0.2204 -0.2019
16817W        W32951   7.805   6.643  13.838  0.4386  0.4100  0.1193
16818W        W32952  16.738   9.169   6.022  0.0101 -0.0024  0.1561
16819W        W32953  17.834  13.699   3.132  0.1480  0.1714 -0.1693
16820W        W32954   3.043   5.610  12.486 -0.2627 -0.2375  0.1322
16821W        W32955   4.828  14.269   4.412 -0.0531  0.0620 -0.3346
16822W        W32956   5.893   4.443   4.237  0.1897 -0.0017 -0.0166
16823W        W32957   1.551  15.545  15.055 -0.2767  0.3913 -0.0934
16824W        W32958   2.371  11.631  14.930 -0.0414 -0.1829 -0.0466
16825W        W32959   2.118   9.511   1.763  0.0916  0.1504  0.0544
16826W        W32960   5.530   2.417  14.455  0.0007 -0.0402 -0.0143
16827W        W32961   0.880   9.922   1.227 -0.1845  0.0484  0.1220
16828W        W32962  12.706  11.080   3.007 -0.3408  0.1847  0.0191
16829W        W32963   7.247   6.037  15.133 -0.0219 -0.0956 -0.3473
16830W        W32964   0.902   4.541   3.243 -0.4005 -0.1533  0.3351
16831W        W32965  12.646  17.314  15.188 -0.2995  0.0873  0.0473
16832W        W32966  15.043   7.501   5.682 -0.1357  0.1588  0.0309
16833W        W32967   0.972   3.778  14.776  0.0686  0.1628  0.0981
16834W        W32968   5.109   3.074  13.874 -0.2045  0.0729 -0.2299
16835W        W32969   4.112   4.012   0.106 -0.0304 -0.2746 -0.3205
16836W        W32970   0.209   3.821  11.576 -0.2844  0.1789  0.0400
16837W        W32971  18.074  13.883   4.920  0.0798  0.1752  0.0519
16838W        W32972   0.179  14.588   0.303 -0.0964  0.1203  0.1900
16839W        W32973   1.069  13.200   3.565 -0.2219  0.2001 -0.2291
16840W        W32974   4.429  16.547   1.050 -0.2784 -0.0120  0.0426
16841W        W32975  12.276  18.002   4.987 -0.1282 -0.1967  0.1251
16842W        W32976  17.248   6.889  14.675 -0.2236 -0.1442 -0.0008
16843W        W32977   5.126   1.461  13.270 -0.1977 -0.2077 -0.0983
16844W        W32978   5.093  14.941  11.930 -0.1555 -0.0022 -0.1419
16845W        W32979   4.137  12.374  15.290 -0.2393 -0.0724  0.0357
16846W        W32980  16.681  13.998  12.491  0.1846 -0.2596  0.0465
16847W        W32981   3.808   9.667  11.758  0.0663  0.0599  0.0096
16848W        W32982  12.907   0.906  12.330  0.0109  0.0364 -0.2241
16849W        W32983  15.607   3.127  11.651 -0.1554  0.3104 -0.0187
16850W        W32984  15.121   2.756  11.474 -0.0800 -0.0226 -0.1188
16851W        W32985   7.403   8.165  13.688  0.0344  0.2765 -0.1617
16852W        W32986   2.192   8.238  14.944 -0.2702  0.0542 -0.2677
16853W        W32987   5.210  16.640   6.074 -0.0432 -0.0997 -0.2654
16854W        W32988   6.258   6.655  16.398  0.0464  0.3216 -0.0690
16855W        W32989   7.732  11.566   3.455  0.1825 -0.1913  0.1595
16856W        W32990   0.911   9.794  16.108 -0.1258 -0.2250 -0.1085
16857W        W32991   3.720  10.427  13.763  0.1170 -0.0231 -0.0446
16858W        W32992  16.411   3.751  12.523  0.4406 -0.0893 -0.1704
16859W        W32993   2.823  16.015   1.259  0.3111 -0.0516 -0.1451
16860W        W32994  17.648  11.282   4.859  0.1155 -0.1462 -0.0286
16861W        W32995   7.707   5.735  16.250  0.1221 -0.0853  0.2982
16862W        W32996   3.590  12.079   2.855 -0.0921  0.1336  0.0052
16863W        W32997   0.810   9.350  14.375 -0.0559  0.2200 -0.1168
16864W        W32998   0.698   1.299   3.850 -0.0964  0.0327  0.3011
16865W        W32999   2.195   1.257   2.486 -0.0383 -0.0228 -0.1330
16866W        W33000   7.651   5.201  15.806  0.2650  0.1292  0.0287
16867W        W33001   7.181   3.497  11.304  0.0580 -0.2462  0.0946
16868W        W33002   7.920  13.516   4.488  0.1784 -0.4230  0.2084
16869W        W33003   1.214   7.620   1.203 -0.0335  0.0634 -0.0331
16870W        W33004   2.289  14.397   3.218  0.2227  0.1689  0.1671
16871W        W33005   6.188  12.339   3.017  0.2895 -0.0958  0.0811
16872W        W33006   1.014  13.755  13.090  0.0899 -0.0585 -0.0654
16873W        W33007   7.756   2.199  15.450  0.0851 -0.2037  0.3173
16874W        W33008  14.912  11.577  13.380 -0.1042 -0.0983 -0.1794
16875W        W33009  12.887   1.649   1.834 -0.0621 -0.1775 -0.0002
16876W        W33010  14.155   3.321  11.342 -0.1339 -0.2027 -0.0477
16877W        W33011   4.090   7.212   3.359  0.1409  0.2331 -0.2827
16878W        W33012   9.013   5.734  16.098  0.0741  0.1166  0.3561
16879W        W33013   1.398  17.622   2.027  0.0529  0.1288  0.1595
16880W        W33014   7.560   9.112   1.080 -0.1720  0.0306  0.5116
16881W        W33015   8.636  10.006  14.604 -0.0591 -0.1842  0.0465
16882W        W33016   4.522  16.158   3.675  0.0782  0.4540 -0.0110
16883W        W33017  13.744   2.670  11.319  0.0925  0.0700 -0.1152
16884W        W33018  13.156   5.019  12.313 -0.2015 -0.0821 -0.2766
16885W        W33019   7.018   9.137   2.393  0.0276  0.0730  0.0773
16886W        W33020  16.017  14.804  11.878 -0.0750 -0.2067 -0.1556
16887W        W33021  17.742  14.929  12.982  0.1842 -0.1418 -0.0281
16888W        W33022  18.013   7.020  10.955 -0.3473 -0.3149 -0.2272
16889W        W33023   0.978   0.410  12.664 -0.1918 -0.2201 -0.1445
16890W        W33024   4.433   8.411   3.585 -0.1710 -0.1829 -0.2912
16891W        W33025   9.475   4.084  14.017  0.4085  0.0699  0.3105
16892W        W33026  16.010  11.644   1.303 -0.1913  0.1828 -0.0465
16893W        W33027   7.431   6.054   2.640 -0.0991 -0.2031 -0.0282
16894W        W33028   5.068   2.455  14.513  0.1174 -0.0537  0.0600
16895W        W33029  17.648  14.853  15.213 -0.0938 -0.2262 -0.0812
16896W        W33030   0.727  16.653   0.984 -0.0382 -0.0490 -0.0837
16897W        W33031   8.307   6.402  13.835 -0.0733  0.1335  0.2336
16898W        W33032  17.253   9.745   4.740  0.0541 -0.6375  0.0062
16899W        W33033  14.081   7.387   3.645  0.0606  0.1414  0.0818
16900W        W33034  14.754   8.307  13.995  0.1157 -0.0369 -0.1362
16901W        W33035   1.778   6.329  14.810 -0.2462 -0.2440 -0.1393
16902W        W33036  16.254  15.543   3.503 -0.1064 -0.1633 -0.2408
16903W        W33037   9.520   1.379  13.709  0.3300  0.0147  0.0950
16904W        W33038   6.862  16.722   0.760  0.2679  0.1532 -0.0049
16905W        W33039   6.499  11.088  12.298  0.0065 -0.0597 -0.3821
16906W        W33040   9.303   5.477   0.343  0.1502  0.0079 -0.1897
16907W        W33041  16.357   7.631   3.479  0.0154 -0.0106  0.1506
16908W        W33042   0.940   2.247  13.972 -0.0558  0.2131 -0.0209
16909W        W33043   2.547   7.478   2.210 -0.1834  0.1077  0.3894
16910W        W33044  15.709  15.112  14.924  0.0779 -0.0788 -0.0133
16911W        W33045  10.237   4.628  14.501  0.1774  0.1962 -0.0281
16912W        W33046   4.168   0.424  13.204 -0.2578  0.0014  0.0402
16913W        W33047  16.972   0.359   3.456 -0.1843 -0.0678 -0.0809
16914W        W33048  13.921   4.627  14.091  0.0466  0.0890  0.0607
16915W        W33049  15.686   1.503   3.046  0.1388 -0.2821  0.2561
16916W        W33050   5.087   3.276   1.491  0.1281  0.3160  0.0950
16917W        W33051   2.609  11.474  16.273 -0.0609  0.4944  0.4227
16918W        W33052   2.551  12.219  12.268  0.3197  0.1620  0.0383
16919W        W33053   4.920  16.213   2.948 -0.1568 -0.2590  0.1050
16920W        W33054  14.913  15.672   6.314 -0.0898  0.2123 -0.0678
16921W        W33055  14.707   6.858   4.213  0.1375  0.1164 -0.1225
16922W        W33056   2.668  10.734  14.849  0.0388 -0.1840 -0.0944
16923W        W33057   7.148  15.149   2.195 -0.0857  0.0407  0.1087
16924W        W33058  14.642  14.939   1.173  0.2208 -0.0656 -0.1922
16925W        W33059  11.494   7.165  14.698 -0.1228 -0.0938  0.1993
16926W        W33060  12.004  17.348  10.610  0.0680  0.2947  0.0108
16927W        W33061   9.910   6.326   0.921  0.5189 -0.1370  0.2653
16928W        W33062  16.366   0.568   3.972 -0.0767 -0.2246  0.0969
16929W        W33063   3.643   8.298   5.671  0.0397  0.3240  0.1105
16930W        W33064  13.075  11.901  10.291  0.1151 -0.0640  0.2549
16931W        W33065   8.018  12.469  12.957  0.1717 -0.2439  0.0976
16932W        W33066  13.795   2.200  11.970 -0.3136 -0.0479 -0.0873
16933W        W33067   6.889   8.389  10.715 -0.0064  0.3034 -0.1214
16934W        W33068  18.031   5.045  13.447 -0.1265  0.1460 -0.0372
16935W        W33069   2.024   1.963   4.081 -0.1991 -0.3209  0.1357
16936W        W33070  12.243   7.883  16.175  0.2153 -0.1140  0.2625
16937W        W33071  13.110   4.908   4.056  0.0004  0.2353  0.0060
16938W        W33072  16.053   8.511   0.131 -0.0993 -0.0532 -0.1948
16939W        W33073   3.668   8.705   2.793 -0.1530 -0.0155  0.2078
16940W        W33074  11.748  11.888   1.822  0.0684  0.0247 -0.1043
16941W        W33075  10.572  17.242   3.111  0.0760  0.0059  0.2448
16942W        W33076   3.324  12.251  11.988 -0.0615 -0.0073  0.0580
16943W        W33077   6.715   5.429   0.940  0.2904 -0.0721  0.1114
16944W        W33078   9.956   7.918  14.072 -0.1565  0.0404  0.1853
16945W        W33079  11.854   2.991   4.763 -0.0762  0.2245  0.1938
16946W        W33080   7.646   8.756  13.269  0.4314  0.1740 -0.0101
16947W        W33081   8.386   5.184   4.551  0.1512  0.2437 -0.2029
16948W        W33082  16.542  10.031  15.007 -0.1252  0.2725 -0.0268
16949W        W33083   4.757  13.422   4.098  0.0046  0.0786 -0.0265
16950W        W33084  14.905  13.356  11.312 -0.0687 -0.1640 -0.3627
16951W        W33085   2.894   5.128  11.174 -0.2244 -0.0035  0.1610
16952W        W33086   3.479  11.833  11.633 -0.2102  0.1343  0.1682
16953W        W33087  12.724   0.794   5.338  0.0451 -0.0470  0.1200
16954W        W33088  14.882  17.011  11.881 -0.1869 -0.1303  0.2321
16955W        W33089   8.678   6.318   3.817 -0.0944  0.0481 -0.0079
16956W        W33090   2.987  10.631  10.812  0.1209 -0.2258  0.2024
16957W        W33091   2.808   5.211   0.666 -0.0604  0.1495  0.0178
16958W        W33092   0.479  10.097  15.999 -0.2202 -0.0616  0.0324
16959W        W33093   3.464   6.593  13.218 -0.0495 -0.3577  0.0178
16960W        W33094  17.010  13.593  14.503  0.2518  0.1333  0.1309
16961W        W33095  11.623  16.603  12.171  0.0112 -0.1039 -0.2106
16962W        W33096   7.751  14.886  15.845  0.3274 -0.0031 -0.1526
16963W        W33097   4.848   4.299   4.144 -0.5696 -0.1066 -0.0310
16964W        W33098  10.458   9.774  13.034  0.0684  0.0499 -0.1148
16965W        W33099   6.532  14.989  15.012  0.1167 -0.3303 -0.3758
16966W        W33100  15.605   6.287   1.782  0.1558  0.0285 -0.2184
16967W        W33101   8.073  12.803  16.242 -0.3332 -0.2769 -0.0726
16968W        W33102  12.363  13.855  11.171 -0.2743 -0.0828 -0.2911
16969W        W33103  14.403   5.571   1.304 -0.1550  0.1535  0.5461
16970W        W33104   7.829   7.746   2.890 -0.4054  0.0664 -0.1436
16971W        W33105  15.892   9.287  11.383  0.0724 -0.1193  0.1036
16972W        W33106   2.018  11.176  15.938  0.0307 -0.3895 -0.0112
16973W        W33107  16.114  11.224  13.495 -0.0883 -0.0603  0.0387
16974W        W33108   0.621   2.033   2.139  0.2823  0.2529 -0.1460
16975W        W33109   1.230  16.975  13.011 -0.0627 -0.1380 -0.0474
16976W        W33110   0.832   6.356  14.245  0.0948 -0.1321 -0.3261
16977W        W33111   9.622  17.403  15.249  0.0294  0.0682  0.0156
16978W        W33112  14.042   7.515   1.287  0.0843 -0.2366 -0.0593
16979W        W33113  12.373   8.869  14.024 -0.3894  0.2188 -0.1699
16980W        W33114  14.293  15.283   5.275 -0.2057  0.2764  0.2441
16981W        W33115   5.990   0.401  14.543 -0.2129 -0.3572 -0.1993
16982W        W33116   4.560  11.630  13.262  0.1199  0.2109 -0.0865
16983W        W33117   1.392   8.793   3.757 -0.4240  0.1371 -0.0323
16984W        W33118  17.765  11.444   0.423 -0.1173 -0.0757 -0.1845
16985W        W33119  16.001   1.491  13.465 -0.1437  0.2395 -0.0861
16986W        W33120  16.900  14.827   3.599 -0.1243  0.0614 -0.0114
16987W        W33121  12.108   4.678   2.900  0.1919 -0.3048 -0.2034
16988W        W33122   5.672  15.620  12.115  0.0406  0.1474 -0.0468
16989W        W33123  16.401  17.084  11.660  0.1721  0.1447  0.1013
16990W        W33124  15.558   8.430  13.840  0.0028  0.1291  0.2206
16991W        W33125   2.183  10.708  15.061  0.0068 -0.0771  0.2204
16992W        W33126   6.931   4.346  15.666  0.1504  0.0409  0.1569
16993W        W33127  11.921   5.391   0.671  0.2157  0.0833 -0.1032
16994W        W33128   5.858  15.968   5.891 -0.1725 -0.5158  0.0040
16995W        W33129   0.963   8.836   1.880 -0.3233  0.0222 -0.1029
16996W        W33130  15.809   4.770  14.265  0.3352 -0.0150  0.1328
16997W        W33131  13.908   0.956   4.614 -0.0181 -0.0174 -0.1521
16998W        W33132  12.707   0.413   5.778  0.0186 -0.0049 -0.3254
16999W        W33133  17.226   0.785  11.080 -0.0662 -0.2395  0.3260
17000W        W33134   1.754   4.133   4.005 -0.2080  0.0271  0.2388
17001W        W33135   2.958   2.799  12.381 -0.3547 -0.1226 -0.2854
17002W        W33136   0.872  10.038  13.130  0.0521 -0.0785 -0.0788
17003W        W33137   2.222  13.824   1.245  0.0130 -0.0670  0.0745
17004W        W33138   8.743   2.283   3.834  0.1635 -0.1215  0.1392
17005W        W33139   9.639   3.962   5.917  0.1453  0.1245 -0.1720
17006W        W33140  10.477   9.084   2.690  0.2200  0.0644 -0.0622
17007W        W33141   3.356  15.013   0.970 -0.1902 -0.0070  0.0442
17008W        W33142   2.247   6.933  16.373 -0.0795  0.1017 -0.0383
17009W        W33143  15.317  16.667  13.293  0.2050 -0.0806  0.0133
17010W        W33144  14.604  14.628   2.284 -0.0560  0.0632 -0.2047
17011W        W33145   2.092   9.462   2.762  0.1533  0.1615 -0.0338
17012W        W33146   6.707   6.340   0.636 -0.0176  0.0373  0.0870
17013W        W33147   3.131   9.009   6.138  0.0712 -0.1224  0.3377
17014W        W33148   3.746  12.955   5.147  0.1782  0.0110  0.0465
17015W        W33149  10.230   1.223  12.886  0.0866 -0.2410  0.0724
17016W        W33150  12.592  11.673   1.362 -0.1250 -0.2530 -0.0263
17017W        W33151   8.560   1.162  15.771 -0.1429 -0.2397 -0.0417
17018W        W33152   8.241  16.202   2.527 -0.0748  0.4805 -0.1678
17019W        W33153  12.662   7.413   4.180  0.0718 -0.2212  0.1614
17020W        W33154  11.054  12.587  16.404  0.2891 -0.1397 -0.0149
17021W        W33155  13.293  14.377  11.311 -0.0281  0.1785  0.0391
17022W        W33156   1.198  11.343  11.215  0.0353 -0.2943  0.2664
17023W        W33157   9.446  12.011   5.674 -0.2565  0.0863  0.1263
17024W        W33158  13.730  16.046   0.702  0.0314 -0.1436 -0.1944
17025W        W33159  16.126   9.840   1.953 -0.3772 -0.1562  0.0983
17026W        W33160   0.645   7.402  12.436  0.0590 -0.0770  0.1557
17027W        W33161   4.751   9.106  13.571  0.0602  0.0172 -0.1098
17028W        W33162  11.020   1.032   2.954 -0.0215 -0.1203  0.1546
17029W        W33163  15.636   2.360  12.944  0.1562 -0.0506  0.2418
17030W        W33164   3.198  15.757   0.604 -0.0655 -0.3208  0.0954
17031W        W33165   6.692  12.011  12.716 -0.0971  0.0323  0.3519
17032W        W33166   4.222   6.041   1.622  0.0424  0.0479  0.1893
17033W        W33167  17.136   8.270   4.283 -0.0229 -0.4385  0.0166
17034W        W33168   3.121   1.843  12.295 -0.2783  0.1113  0.2322
17035W        W33169  14.920   0.807   0.528  0.0646 -0.0470  0.1426
17036W        W33170   7.969  14.245   3.287 -0.1422  0.2137 -0.1071
17037W        W33171   2.571   6.834   5.257  0.0930  0.2508  0.4002
17038W        W33172  17.781   6.786   1.448 -0.1861 -0.0299 -0.0269
17039W        W33173   8.302  17.551   0.352 -0.1319 -0.1417  0.2150
17040W        W33174   9.011   2.941  13.643 -0.0158  0.2563  0.6075
17041W        W33175  10.976   2.479  13.037  0.3481 -0.1531  0.1395
17042W        W33176   5.993  16.655   5.514 -0.0570 -0.1267 -0.1690
17043W        W33177   6.607   8.921   1.296 -0.3610 -0.0086  0.1015
17044W        W33178  10.190  13.269   4.528  0.2007  0.2472 -0.1132
17045W        W33179  11.469  12.953   4.603  0.3371 -0.0466 -0.1487
17046W        W33180   5.065  15.437   0.964 -0.1882 -0.0263  0.1558
17047W        W33181   1.516   3.251  12.044  0.1035 -0.1713  0.0146
17048W        W33182   6.498   7.864  16.323 -0.1097 -0.1629 -0.0225
17049W        W33183   8.320  11.618   2.508  0.1552  0.1112 -0.1282
17050W        W33184  11.765  16.787  12.601 -0.2073  0.0030  0.2432
17051W        W33185  16.733   7.022  12.332 -0.1421 -0.1223 -0.0614
17052W        W33186  10.179  13.209   3.475 -0.0392 -0.1557 -0.1205
17053W        W33187   3.762  12.715  15.479  0.1911 -0.0769 -0.2803
17054W        W33188  12.507  10.647   1.062  0.0201 -0.4060  0.1933
17055W        W33189   5.683   4.128   4.580  0.0213 -0.0381  0.0070
17056W        W33190  17.031  10.169  13.196 -0.1646  0.1132  0.0561
17057W        W33191   3.707   2.451  15.309 -0.3341 -0.3199  0.3036
17058W        W33192   3.067  11.950   3.705 -0.1325 -0.2924  0.0728
17059W        W33193  10.985   7.287  12.045 -0.0605  0.2764 -0.1754
17060W        W33194  15.270  17.269  15.203 -0.0800 -0.1088  0.0153
17061W        W33195  15.428   2.985   0.451  0.0756  0.1547 -0.0735
17062W        W33196   2.074   5.129   1.218  0.1114  0.2105 -0.1086
17063W        W33197   0.055  18.059   1.523 -0.2120 -0.1309  0.2706
17064W        W33198   7.587   0.832   2.584  0.2009  0.1697  0.0707
17065W        W33199   7.069  17.732  11.489  0.0368  0.0601  0.1551
17066W        W33200   2.703  10.207  14.458  0.0635 -0.1138  0.0082
17067W        W33201   0.413  16.980   4.339 -0.0127 -0.2638 -0.0159
17068W        W33202  10.506  13.026   5.710 -0.2741  0.2044 -0.1707
17069W        W33203  13.985   1.789  11.201  0.3106 -0.0211 -0.2285
17070W        W33204   0.887  14.793  15.568 -0.1682  0.0801  0.0392
17071W        W33205   4.178   5.364  12.448 -0.0229 -0.5180  0.0346
17072W        W33206  17.757  10.930   4.505 -0.1586  0.4226 -0.0534
17073W        W33207  11.475  12.534  14.908  0.1299 -0.0638 -0.1136
17074W        W33208   0.812   0.830  12.803 -0.2480  0.2268  0.2437
17075W        W33209  13.262  12.016  12.422  0.0049 -0.0581  0.0139
17076W        W33210   8.443   0.742  15.512 -0.0007  0.0806 -0.0639
17077W        W33211  11.220   9.389   3.361  0.2220 -0.2771  0.2927
17078W        W33212  16.088  13.830  16.252  0.3190  0.0993 -0.0405
17079W        W33213  15.461   7.166  12.817  0.0546  0.1488 -0.1900
17080W        W33214   6.493  16.980  12.269  0.2515 -0.1557  0.0202
17081W        W33215  18.010  13.205  11.377  0.1924 -0.0738  0.0094
17082W        W33216   2.092   0.564   1.764  0.1146 -0.1192 -0.0277
17083W        W33217  14.196  13.741   6.101  0.0651  0.0298  0.1581
17084W        W33218  17.301   5.652  16.306  0.0383 -0.3212 -0.0760
17085W        W33219   1.466   0.709   1.079  0.1065 -0.1178  0.4029
17086W        W33220   1.298   9.581   0.012  0.2732 -0.0162  0.0013
17087W        W33221   1.732   7.866  15.697  0.0729  0.2719 -0.0640
17088W        W33222   3.085   4.532   0.539  0.0149  0.1100  0.4407
17089W        W33223   2.998  12.208   0.797 -0.1846  0.3984  0.0533
17090W        W33224   3.976   0.733   0.578  0.0657  0.0344  0.0788
17091W        W33225  12.235   0.545  14.199  0.0880  0.0703 -0.0495
17092W        W33226   4.534   3.599   3.617 -0.1443  0.1111  0.1061
17093W        W33227  15.566   3.599   2.436  0.1470 -0.0373  0.2178
17094W        W33228   6.624   2.821   0.473  0.0224  0.1609  0.0164
17095W        W33229   0.973   6.528  14.829 -0.0158  0.3411  0.1920
17096W        W33230  12.700  17.679   2.800 -0.0157 -0.1455  0.0894
17097W        W33231   1.782   1.963   4.613 -0.5698 -0.1436 -0.0102
17098W        W33232   6.711   5.232  11.744  0.2891  0.0622  0.0718
17099W        W33233   6.236   9.624   4.001  0.0708 -0.2899  0.1476
17100W        W33234   7.014   9.280  12.402  0.1424  0.2276  0.0968
17101W        W33235   9.232  17.275   4.407 -0.1538 -0.1523  0.2340
17102W        W33236  12.113  13.665   5.166 -0.0471  0.1871 -0.0609
17103W        W33237   7.436   9.448   4.466 -0.1370  0.0276 -0.1476
17104W        W33238   5.082   3.719  11.433  0.1647 -0.1728 -0.2398
17105W        W33239   7.044   4.954   2.447 -0.1119 -0.0006  0.1049
17106W        W33240  15.759   6.098   4.958 -0.3048 -0.3910  0.1525
17107W        W33241   6.278   1.131   1.134 -0.0602 -0.0469 -0.1249
17108W        W33242  13.461   8.015  12.071 -0.0836  0.1267  0.0166
17109W        W33243   5.461  15.148   4.224 -0.4411 -0.0660  0.1036
17110W        W33244  10.931   5.770  10.579 -0.0770 -0.1848  0.1279
17111W        W33245  17.931   0.908  11.641  0.0192 -0.0778  0.1942
17112W        W33246  15.682  12.197  13.518  0.2918  0.1628 -0.1410
17113W        W33247  11.774   9.388  14.749  0.3271  0.0237 -0.2363
17114W        W33248  16.161   7.029  14.581 -0.1453  0.0762 -0.0664
17115W        W33249   9.227   5.121  13.141  0.0400  0.1626 -0.2419
17116W        W33250   2.263   3.497   1.202  0.2181  0.1439 -0.2306
17117W        W33251   3.427   9.160   3.057  0.3788  0.0366  0.1595
17118W        W33252   5.840  18.006  11.788  0.0144 -0.0498 -0.0095
17119W        W33253  13.561  13.170   1.020  0.0162 -0.0393  0.1855
17120W        W33254  14.528  13.203   5.148 -0.2189 -0.1020 -0.4821
17121W        W33255   2.340  15.657  15.050  0.0109 -0.1128  0.0902
17122W        W33256   5.224   2.163  12.764  0.0447 -0.0353  0.0977
17123W        W33257   1.688   6.077   3.152  0.0452  0.0291 -0.0878
17124W        W33258   1.822   6.715   5.585 -0.0382  0.0986  0.1773
17125W        W33259  10.360  15.254  13.433  0.1895 -0.1260  0.3657
17126W        W33260  11.807   6.428   2.456  0.1640 -0.1729  0.0757
17127W        W33261   0.480  11.323   1.014  0.1585 -0.0247 -0.0577
17128W        W33262   7.878  10.720   3.841  0.0260  0.1438 -0.0873
17129W        W33263   1.943   2.330   0.733  0.4349 -0.1431  0.2212
17130W        W33264  11.271   3.282  14.120  0.2894  0.2435  0.0914
17131W        W33265  17.104   7.105   3.131  0.1526 -0.0413  0.0273
17132W        W33266   7.856  11.687  11.257  0.0916 -0.0695 -0.1075
17133W        W33267   8.559   7.497   5.454 -0.0678  0.0270  0.0212
17134W        W33268  17.707   3.594   0.089 -0.0311  0.0784 -0.0350
17135W        W33269   7.453  17.264   4.667  0.0499 -0.0431  0.0919
17136W        W33270   6.189  16.847  15.048  0.0370 -0.1670 -0.2928
17137W        W33271   1.961   1.009   4.316 -0.0078  0.4554  0.0442
17138W        W33272  15.414   9.650   4.630  0.1424 -0.1474 -0.0955
17139W        W33273  11.427   9.301   1.562  0.0048 -0.1844 -0.2592
17140W        W33274   5.944  10.134   4.473 -0.4299 -0.0806  0.2812
17141W        W33275   6.900  11.779  15.800 -0.1006  0.1275 -0.2857
17142W        W33276   7.185   7.186   5.220  0.0645  0.1033 -0.3267
17143W        W33277  17.497   0.767   5.069  0.1269  0.2366 -0.1055
17144W        W33278  15.494  14.669   3.991 -0.4603  0.1347  0.2845
17145W        W33279  11.691   4.286   0.826 -0.0835  0.0448  0.3228
17146W        W33280   9.242  10.158  12.251 -0.0913 -0.0586 -0.1504
17147W        W33281   2.128   2.867   3.004  0.1828  0.1672  0.0780
17148W        W33282  17.700  15.229   4.275  0.0010  0.2921  0.1066
17149W        W33283   9.773   4.511  15.396 -0.0963  0.3138  0.0817
17150W        W33284   0.815  16.142   0.220  0.1277  0.0661  0.3343
17151W        W33285  11.143  16.234  14.477  0.4853  0.2939  0.0353
17152W        W33286   0.597   6.677   5.503 -0.0252  0.0717 -0.1864
17153W        W33287   9.592   1.538   0.636 -0.3102  0.1249  0.1013
17154W        W33288  11.848  14.267   1.565 -0.0301  0.0640  0.0073
17155W        W33289  14.581  14.049   4.322  0.0301  0.0599  0.1436
17156W        W33290  15.991   0.937   2.603 -0.2632 -0.0266 -0.0065
17157W        W33291   9.944  14.620  13.790 -0.1182 -0.0805  0.6013
17158W        W33292   8.635  13.463   0.515 -0.0319  0.0938 -0.0079
17159W        W33293   1.878  14.667  15.240 -0.3015 -0.0746  0.0734
17160W        W33294   7.509   0.751  12.002  0.2808 -0.0005 -0.0768
17161W        W33295  11.790  13.275   1.050  0.1713 -0.2344  0.0633
17162W        W33296  15.140   2.585   0.121 -0.0818  0.3256 -0.2280
17163W        W33297  16.312   7.942   4.462 -0.3712 -0.0821  0.0550
17164W        W33298  16.026  14.543  15.484 -0.1433  0.2393  0.1779
17165W        W33299  10.348   7.707   2.362  0.0335  0.1962  0.0764
17166W        W33300  13.348   2.540   4.970 -0.3227 -0.0422  0.0942
17167W        W33301   8.535   7.851   2.349  0.1970  0.0355  0.1877
17168W        W33302  12.466   1.033  12.085  0.0853  0.1141  0.1233
17169W        W33303  15.035   0.782   3.008 -0.1403  0.1857  0.1616
17170W        W33304   6.731   6.200  14.193  0.0967 -0.1497  0.0489
17171W        W33305   2.220   7.617   0.627  0.1494 -0.3096  0.0100
17172W        W33306   3.254  12.599   3.010  0.1506 -0.1731 -0.3499
17173W        W33307   8.462  14.184   3.443 -0.1127 -0.1247 -0.3141
17174W        W33308   1.852   0.485   4.134  0.0150 -0.1927  0.4616
17175W        W33309  12.160   8.873   2.445  0.2452  0.0448 -0.0198
17176W        W33310   0.271  13.840   2.115 -0.0565  0.3057  0.0046
17177W        W33311  11.874   6.058   2.834  0.2331  0.2874  0.1432
17178W        W33312  17.595  17.415   0.707 -0.1752  0.0557  0.1506
17179W        W33313   0.739   3.630   1.168 -0.1210 -0.1308  0.2295
17180W        W33314  18.034  11.239  12.518  0.2278  0.0877  0.0909
17181W        W33315  11.309  10.037   4.355 -0.0542  0.1304 -0.0483
17182W        W33316  11.049  16.634   4.574  0.1261  0.2006 -0.1854
17183W        W33317   3.818  13.467   3.449  0.3074 -0.0310 -0.2468
17184W        W33318  10.155   5.742   3.291 -0.1259  0.1170  0.1030
17185W        W33319  13.695  17.227  15.660  0.1736 -0.1103 -0.0861
17186W        W33320   7.980  13.312  12.262 -0.0700  0.0113  0.2043
17187W        W33321   8.130   7.089   0.532 -0.0653 -0.1576 -0.3033
17188W        W33322   6.317  14.084  14.961  0.0579  0.1351  0.3719
17189W        W33323  16.349   2.801  14.541 -0.0225 -0.2658  0.0875
17190W        W33324  17.891  16.256   3.323 -0.2242  0.1494  0.0433
17191W        W33325   7.628   3.950  13.039 -0.2040  0.0190 -0.1038
17192W        W33326   9.474  10.911  12.933  0.5604 -0.3266 -0.1625
17193W        W33327   6.627  13.234   2.046 -0.2113  0.0544  0.0932
17194W        W33328  17.020  10.909   1.703 -0.3139  0.0754 -0.0009
17195W        W33329   2.913  13.822  11.100  0.0546  0.2322  0.1344
17196W        W33330   9.062  15.892  16.139 -0.0835 -0.2360  0.2332
17197W        W33331  12.358   8.888  13.164  0.1906  0.0687 -0.0628
17198W        W33332   6.540   5.834  13.581  0.0978 -0.0204  0.1467
17199W        W33333  10.522   4.574   3.269  0.0918  0.0161 -0.2169
17200W        W33334   2.399  13.709  11.838  0.0928 -0.2929  0.0402
17201W        W33335   0.138   9.119   3.811 -0.0570  0.1158  0.1878
17202W        W33336  13.571   8.187  13.440  0.0727 -0.1197  0.0339
17203W        W33337  10.983  10.402  15.440 -0.4153 -0.1095 -0.2359
17204W        W33338   6.948   3.179  12.198 -0.2289  0.1700  0.2804
17205W        W33339  14.362  11.549   5.863 -0.0801  0.0691 -0.0215
17206W        W33340   6.849   6.101   3.336  0.0675  0.1411  0.0180
17207W        W33341   1.374   9.511  15.139  0.0021  0.2215 -0.1413
17208W        W33342   1.268   7.894   1.681 -0.1860  0.1631  0.0376
17209W        W33343  10.377   0.846  11.739 -0.0451 -0.2002  0.1616
17210W        W33344   4.338   7.765   4.218 -0.2552 -0.0398 -0.3056
17211W        W33345   2.071  17.232   3.391  0.1771  0.0331  0.0825
17212W        W33346   6.455   7.507   5.313 -0.0493 -0.1989 -0.1098
17213W        W33347  17.671   7.250  13.201 -0.0203 -0.1399  0.0223
17214W        W33348   0.691   6.743  13.239  0.0729  0.2007 -0.0713
17215W        W33349   6.362  11.936   1.910 -0.0092 -0.3008 -0.1115
17216W        W33350   7.047   8.642   0.021 -0.1933  0.1925  0.2117
17217W        W33351   0.094   7.001  15.616  0.3424  0.0768 -0.0546
17218W        W33352  14.279   3.857   0.892  0.0235  0.0322  0.0706
17219W        W33353   6.984   5.348  12.193 -0.1973  0.0003 -0.0804
17220W        W33354   2.166   3.653  12.594 -0.1387 -0.0587 -0.2345
17221W        W33355  10.978  10.299  15.951 -0.0235 -0.0729 -0.0019
17222W        W33356   3.111   0.983   4.761  0.4365  0.3025  0.0468
17223W        W33357  17.750   1.480   0.066  0.1756  0.0544  0.0149
17224W        W33358   8.767   1.137   0.822  0.2940  0.0326  0.0656
17225W        W33359   9.439  11.306  13.281 -0.0817  0.0168  0.1394
17226W        W33360   9.650   8.808   1.646  0.0292  0.1722  0.0797
17227W        W33361  12.182  11.854   0.591 -0.0796 -0.1126  0.1022
17228W        W33362   8.029   4.535   0.112 -0.0437 -0.0162  0.1261
17229W        W33363   6.194  10.922  14.458  0.2689 -0.1063 -0.0263
17230W        W33364   3.221   3.923   2.156 -0.3061 -0.1822 -0.1169
17231W        W33365  13.109   8.626   0.664  0.1779  0.0381 -0.1019
17232W        W33366   2.257   1.438   4.847  0.2203  0.1161  0.1669
17233W        W33367  14.237  17.225   3.471 -0.1673  0.2085  0.2297
17234W        W33368   0.982   6.466  11.570  0.2681  0.0567 -0.0823
17235W        W33369   3.919  14.319  12.648 -0.0199  0.0268  0.0141
17236W        W33370   8.696   3.387   0.906 -0.3057  0.3397  0.0140
17237W        W33371  17.598  17.192  14.047  0.1672 -0.1160 -0.0513
17238W        W33372  16.986   4.137   2.339 -0.1630 -0.0033 -0.1464
17239W        W33373  15.964   5.940  15.676  0.0950 -0.0831  0.1405
17240W        W33374   3.144  16.495   1.111 -0.1229  0.0579  0.2372
17241W        W33375   6.841  10.874   2.297  0.3104  0.0008  0.0076
17242W        W33376  17.040   7.282  14.321 -0.0156 -0.1320 -0.0373
17243W        W33377   9.442   1.088   1.221  0.2416 -0.2389  0.2129
17244W        W33378   8.610   5.725  12.230  0.1533 -0.1209  0.3721
17245W        W33379   9.286   6.291   2.203 -0.1405  0.1765  0.0760
17246W        W33380   7.483  11.842  16.321  0.0087 -0.2640  0.3675
17247W        W33381   1.174  15.217  15.372  0.1888 -0.1352 -0.1796
17248W        W33382  10.178   2.428  11.947  0.1043 -0.1664  0.2626
17249W        W33383  13.229  12.770   2.318  0.0983 -0.0290  0.0282
17250W        W33384  12.409   3.518   2.127 -0.1295 -0.1696  0.0667
17251W        W33385  14.738  15.563   5.176  0.0236 -0.1803  0.1605
17252W        W33386   0.128  12.082   1.555 -0.0639  0.0238 -0.2960
17253W        W33387   5.546   5.073  16.383 -0.0565 -0.2465 -0.2315
17254W        W33388   3.968  12.206   5.893  0.2396 -0.1443 -0.1637
17255W        W33389   4.038   2.519   4.265 -0.2494 -0.4614  0.2006
17256W        W33390   4.306  11.537   5.426  0.2892  0.4103  0.0756
17257W        W33391  14.943   0.548   0.970  0.0402 -0.2393 -0.0356
17258W        W33392  10.863   3.508   2.146  0.1006 -0.1432  0.0799
17259W        W33393   3.665  10.874   3.523 -0.1458 -0.2304 -0.0873
17260W        W33394   2.799   8.868  12.503 -0.1398  0.1777  0.0293
17261W        W33395   2.822  10.746   1.103  0.0761 -0.5251 -0.1313
17262W        W33396  12.160   1.506  12.878  0.2336  0.1525 -0.0134
17263W        W33397  14.567  12.872   3.087  0.2478 -0.1473 -0.3660
17264W        W33398   6.972  13.114  14.786  0.3899  0.0102  0.1143
17265W        W33399   0.578   1.070   1.115 -0.0121 -0.2776  0.0766
17266W        W33400   9.119   8.426  11.528  0.0116  0.0323 -0.0484
17267W        W33401   9.696   0.069  11.544 -0.0211 -0.0377 -0.2746
17268W        W33402  15.747   0.424   0.254 -0.1900  0.1443  0.1380
17269W        W33403   9.287   3.785  11.976 -0.2470 -0.2340  0.3614
17270W        W33404  17.150   8.534  11.532  0.1445 -0.2733  0.3330
17271W        W33405   3.137   8.770  12.981  0.2262 -0.2406 -0.2290
17272W        W33406  14.641  16.928   0.189  0.0381 -0.0956  0.1450
17273W        W33407  14.634   6.393   4.157  0.0413 -0.0709  0.2366
17274W        W33408   4.416   1.664   0.940 -0.0618 -0.0129  0.2204
17275W        W33409  13.541  11.458   2.328  0.1216  0.2018 -0.0722
17276W        W33410   1.031   6.484  11.074  0.1010  0.5574 -0.2152
17277W        W33411   7.009  10.953  12.274 -0.0450 -0.1358 -0.0340
17278W        W33412  10.972  12.339  12.300  0.1087  0.0509  0.1947
17279W        W33413  13.310  12.606   3.331 -0.1978  0.1014 -0.0429
17280W        W33414   2.138   6.396   1.089  0.2807  0.1740 -0.0332
17281W        W33415   7.480  13.178   0.117 -0.1318 -0.1000  0.0624
17282W        W33416  11.633   5.323   4.527  0.2232 -0.0927 -0.0310
17283W        W33417   2.913  11.843  14.893 -0.1253  0.3776  0.1320
17284W        W33418   5.389   1.047  13.059 -0.1750 -0.0112 -0.2600
17285W        W33419   9.897  13.036  15.898 -0.2076 -0.1277 -0.1213
17286W        W33420  17.088   4.933   4.666  0.0167 -0.1653 -0.0022
17287W        W33421   0.945   5.686   0.147 -0.1172  0.1613  0.1089
17288W        W33422   3.885   0.210   1.720 -0.1026  0.2068  0.0485
17289W        W33423   2.602   0.751  15.937 -0.1569  0.0045 -0.3775
17290W        W33424   0.750  14.035   1.345 -0.2966 -0.0716 -0.2231
17291W        W33425  13.144  11.683  12.927 -0.4108 -0.2294  0.1202
17292W        W33426  13.565   7.577   2.268 -0.2059 -0.2885 -0.0304
17293W        W33427  13.575   5.471  12.239  0.1989  0.1788 -0.0827
17294W        W33428   7.500   5.211   3.784 -0.0472  0.1317 -0.1265
17295W        W33429   0.812  17.009  13.298  0.1127  0.0780  0.1538
17296W        W33430   8.091  17.112   1.126 -0.1347 -0.1178  0.0832
17297W        W33431   0.432   6.881  10.769  0.1324  0.0734  0.1960
17298W        W33432  14.554   5.873   5.529  0.1957 -0.3527  0.1203
17299W        W33433  13.326  17.407  13.535  0.0745 -0.2393 -0.0104
17300W        W33434   1.987  10.656   1.597  0.0909 -0.0547 -0.2381
17301W        W33435   1.028  12.925   2.153 -0.0443 -0.0815 -0.2627
17302W        W33436  10.172  18.037  15.886 -0.0722 -0.0634  0.2300
17303W        W33437  15.496  18.076  15.225 -0.0196 -0.2696 -0.2993
17304W        W33438   7.560   8.977   0.503 -0.0377  0.1829 -0.0608
17305W        W33439  12.958   4.955   1.197 -0.0841  0.2018 -0.0022
17306W        W33440  11.065   5.816  12.174 -0.0366  0.0022  0.4367
17307W        W33441  10.836   6.636   4.215  0.3168 -0.0183  0.0439
17308W        W33442   1.412  10.769  13.285 -0.0383  0.1985  0.0935
17309W        W33443  14.309   1.508  13.589  0.0894 -0.2103 -0.0220
17310W        W33444  17.583   9.308  12.584  0.0993  0.2414 -0.2041
17311W        W33445   4.792  14.901  12.884 -0.2823 -0.0126 -0.0668
17312W        W33446   0.843  12.630   5.811 -0.0583  0.1506  0.0721
17313W        W33447   6.957  17.928  15.817 -0.3283 -0.0962 -0.2222
17314W        W33448   1.489  13.336   2.752  0.0933 -0.2221 -0.3618
17315W        W33449   0.248  11.377  13.917 -0.2610  0.0052  0.0928
17316W        W33450  16.784  10.822  16.228 -0.1490  0.0629 -0.0483
17317W        W33451   1.288  17.873  14.308  0.0024 -0.3177  0.1151
17318W        W33452  15.875  15.150  15.993 -0.1731  0.0015 -0.0319
17319W        W33453   6.103  10.450   5.041  0.0764  0.0979 -0.1535
17320W        W33454   8.597  10.351  11.552 -0.1666  0.0210  0.0658
17321W        W33455   1.597   7.283  12.587  0.2022  0.1978  0.0396
17322W        W33456   0.195  16.323   4.075 -0.0761 -0.1184  0.4617
17323W        W33457   7.241   3.335   2.204 -0.2209 -0.2680 -0.2797
17324W        W33458   3.378  10.806  11.838 -0.0582  0.1825 -0.0754
17325W        W33459   7.224   2.647   3.117  0.0021 -0.3305 -0.4208
17326W        W33460   8.499   4.050   3.054 -0.0573  0.2424  0.1928
17327W        W33461   4.681  14.139  15.850 -0.1683 -0.0041  0.0698
17328W        W33462   6.356   1.902   1.752  0.7380  0.1866 -0.4137
17329W        W33463  15.094  16.996   3.196  0.2319  0.1063  0.2581
17330W        W33464  17.720   1.764   0.515 -0.1538  0.1330 -0.0737
17331W        W33465   9.217  15.765   4.908 -0.2515  0.2976  0.0871
17332W        W33466   7.058  10.873   4.649  0.0466 -0.1777  0.0784
17333W        W33467  17.972   4.612  15.523  0.0256 -0.1199  0.1742
17334W        W33468   9.638   5.562   3.109 -0.3075 -0.0724  0.1956
17335W        W33469   8.826  16.493  15.375 -0.1959 -0.0253  0.0132
17336W        W33470   9.778  11.363   0.094 -0.1887  0.1753 -0.1145
17337W        W33471   2.102   8.417  15.391  0.0555 -0.2322  0.0177
17338W        W33472   5.005   5.435  11.441 -0.0315 -0.1309 -0.2113
17339W        W33473  10.511  17.994  13.584  0.0774 -0.1205 -0.0434
17340W        W33474   1.175  16.078   1.055  0.1629 -0.0605  0.0198
17341W        W33475  13.504  11.367   5.492 -0.0406  0.0206 -0.1641
17342W        W33476   8.177  12.111  14.409  0.2005  0.0905 -0.1640
17343W        W33477   4.730   0.443  13.798  0.0651 -0.0974 -0.2801
17344W        W33478  17.345   9.294  14.524 -0.2552  0.1028  0.0772
17345W        W33479   7.790  13.982   5.844 -0.0693  0.0858 -0.1136
17346W        W33480  13.979  13.265  13.327  0.1669 -0.0114 -0.0855
17347W        W33481   2.727   3.801  14.555  0.1617  0.1568  0.0018
17348W        W33482  16.561   0.680   1.295 -0.0109 -0.3006 -0.2076
17349W        W33483  12.007   0.703   3.734  0.0108  0.0446 -0.1080
17350W        W33484   0.781   6.238  13.027  0.4093  0.0278  0.0519
17351W        W33485   7.909   6.594  15.815  0.1301  0.0849  0.0144
17352W        W33486  17.807   8.732  10.902  0.3319  0.1862 -0.3114
17353W        W33487   8.964   1.317  14.513  0.0953 -0.1528 -0.0096
17354W        W33488   5.702  14.160   4.522 -0.1993 -0.1949  0.0024
17355W        W33489  15.068   4.364  12.794  0.1168  0.1208  0.2425
17356W        W33490   6.401   0.013  14.614  0.0145 -0.0940  0.1001
17357W        W33491   5.300   3.358   3.038 -0.1422  0.2937  0.0599
17358W        W33492   6.222  12.383  16.364  0.0155  0.1169  0.2389
17359W        W33493  10.157  16.627   3.918 -0.0751  0.2331  0.3748
17360W        W33494   8.380  12.982  11.428  0.2454  0.0969 -0.1261
17361W        W33495   8.950   1.330   0.383 -0.0695  0.0759  0.1903
17362W        W33496  13.992   5.364   5.894  0.2311 -0.0136 -0.2465
17363W        W33497   0.877  14.297   0.948  0.3215 -0.1836 -0.0305
17364W        W33498   9.422  17.496  13.890  0.2135  0.1827 -0.0066
17365W        W33499  16.247  14.174   3.294 -0.0984 -0.0703  0.2449
17366W        W33500   0.520   2.002   1.629  0.4305  0.0503  0.0073
17367W        W33501  16.640  17.748  12.638  0.1098 -0.2045  0.1280
17368W        W33502   1.952  13.913   2.201  0.3442  0.1082 -0.2281
17369W        W33503  17.160  16.022  13.688  0.2915 -0.0049  0.0415
17370W        W33504   3.603   4.411   1.438  0.0806 -0.2174  0.1758
17371W        W33505  13.308   7.375  11.109  0.0622 -0.0241 -0.0091
17372W        W33506   5.675   8.569  12.069  0.2106 -0.0406  0.1988
17373W        W33507  17.170   0.771  14.805 -0.1103 -0.1022  0.1735
17374W        W33508   0.082   1.809   1.536  0.2466  0.1138 -0.1986
17375W        W33509  11.173   3.444  11.796 -0.0177  0.2396  0.0076
17376W        W33510   9.571   6.736  13.252  0.3651 -0.2924 -0.0812
17377W        W33511  15.055  11.810   0.951  0.0444  0.0975  0.2992
17378W        W33512   3.282   9.344   1.012  0.1212 -0.2213  0.2506
17379W        W33513   3.558   0.471   0.881 -0.3570 -0.0814 -0.2449
17380W        W33514  14.193   7.075  12.202 -0.1424 -0.3458  0.1546
17381W        W33515   8.490  11.333   3.883 -0.0868  0.0300  0.2810
17382W        W33516   8.590   3.195   2.265  0.3759 -0.0369 -0.1034
17383W        W33517  12.704  18.017   1.975  0.0267  0.0458 -0.0682
17384W        W33518   1.749   9.597   0.704  0.0958 -0.1639 -0.0548
17385W        W33519  10.160   8.493   3.214 -0.3337 -0.2485  0.0547
17386W        W33520   4.326  16.896  14.455 -0.1323  0.3994  0.1071
17387W        W33521  12.600  17.975  11.069 -0.2517  0.0939  0.0613
17388W        W33522  17.425  11.723  12.034 -0.0163 -0.1664  0.2134
17389W        W33523  13.051  17.178  13.197 -0.2445 -0.0213 -0.0850
17390W        W33524  13.911   9.183   0.360  0.1206 -0.0947 -0.0631
17391W        W33525   7.081   2.202   0.627  0.4257  0.2828 -0.0966
17392W        W33526   4.118   2.992   2.830  0.2958 -0.2115  0.1020
17393W        W33527   4.540  15.320  13.457 -0.2627  0.0869 -0.1684
17394W        W33528  10.435  16.442  12.644  0.1461  0.2227  0.2223
17395W        W33529  13.678   6.073   0.882 -0.1883  0.0689 -0.2305
17396W        W33530  15.251   9.874   2.457  0.1604  0.2046  0.0602
17397W        W33531   2.642   7.476  12.316 -0.1084 -0.1606  0.0426
17398W        W33532   0.978  12.921  11.532 -0.1373 -0.3353 -0.3504
17399W        W33533  14.262  13.634  12.062  0.0708 -0.1700 -0.0690
17400W        W33534  16.102   6.977  16.264  0.3089  0.2671 -0.0927
17401W        W33535  14.053   9.141   2.879 -0.1250 -0.1284  0.0630
17402W        W33536  13.073   0.346   1.016  0.2948 -0.1012 -0.2778
17403W        W33537   7.001   6.024  13.718  0.1298 -0.0834  0.2537
17404W        W33538  10.108  16.540   1.200  0.2703 -0.1259  0.2014
17405W        W33539  12.372  11.424   4.404  0.0599  0.0154  0.0366
17406W        W33540  14.013   0.375   1.426 -0.2141 -0.1481  0.0037
17407W        W33541   8.038  15.729  13.200  0.0027  0.0519  0.0055
17408W        W33542  15.507  17.300   3.248  0.1448 -0.0223 -0.0601
17409W        W33543   8.508  10.479  11.081  0.0606 -0.1183 -0.1978
17410W        W33544   3.409   7.797  11.825  0.2235 -0.0907 -0.2597
17411W        W33545  13.897  10.337  14.094  0.0665  0.0343 -0.1059
17412W        W33546  13.052  16.924   0.418  0.1253 -0.0357 -0.0299
17413W        W33547   5.957   7.029   0.391  0.1317  0.0283  0.0771
17414W        W33548  13.056  14.611   5.768 -0.1289 -0.1038  0.0258
17415W        W33549   4.785   4.857   3.079 -0.4959 -0.0147  0.0091
17416W        W33550   7.626  17.104  15.948 -0.3507  0.1251  0.0510
17417W        W33551   9.023   3.235  11.407 -0.0703 -0.4908  0.0421
17418W        W33552   9.192   9.290   4.335 -0.1539 -0.0622  0.0866
17419W        W33553  13.341  12.370   4.734 -0.0652 -0.2385  0.0722
17420W        W33554   1.183  15.491   3.063  0.2555 -0.0969  0.1702
17421W        W33555  11.923  17.879   1.359  0.2558  0.0835  0.3386
17422W        W33556  11.998   1.179   1.254 -0.2775  0.1545  0.0297
17423W        W33557   3.033  15.433   6.197  0.2618 -0.3224 -0.0100
17424W        W33558  15.968  15.891  13.259 -0.3897 -0.0225 -0.0077
17425W        W33559   4.296   1.736   4.246 -0.3603  0.0345  0.0619
17426W        W33560   5.687  14.187   2.380  0.0335  0.0122  0.3099
17427W        W33561   7.036   7.266   2.642 -0.0358 -0.1113  0.2476
17428W        W33562   3.948   1.831   5.221  0.3111  0.1535  0.2534
17429W        W33563   2.379  12.069   4.133  0.0356  0.0788 -0.1747
17430W        W33564  15.654  16.908  15.203  0.0821 -0.0899  0.0351
17431W        W33565   1.900  14.619   4.497 -0.1721  0.0951 -0.0508
17432W        W33566   9.885   5.344  13.894 -0.1029 -0.1833  0.0100
17433W        W33567  10.142   4.622   0.980  0.0042 -0.1995  0.0025
17434W        W33568  13.826   5.896  10.620 -0.3145 -0.3731  0.0435
17435W        W33569  15.964   4.182  15.172  0.1545  0.0552 -0.0155
17436W        W33570  16.088   1.621  12.250 -0.1188 -0.1834  0.1442
17437W        W33571   8.448   3.246   4.847  0.2395  0.0167 -0.1812
17438W        W33572  15.446   9.675   0.079  0.0144 -0.3243  0.2745
17439W        W33573   9.669   1.214  12.646  0.0726 -0.3054 -0.1060
17440W        W33574   0.828   8.655  13.575  0.1592 -0.0496  0.0066
17441W        W33575   3.838   1.922   1.596 -0.3428  0.2150 -0.0709
17442W        W33576  13.288  13.279   2.705 -0.0376 -0.0586  0.1845
17443W        W33577  12.097  16.443   0.295 -0.1135  0.0395  0.1682
17444W        W33578   9.445   7.111  15.884 -0.2417 -0.1803 -0.0876
17445W        W33579   6.811  15.942  13.491  0.1379 -0.1065 -0.0238
17446W        W33580   0.035  10.641   2.249 -0.2107 -0.2403 -0.0496
17447W        W33581  14.652   4.368   0.539 -0.1621 -0.2258  0.0533
17448W        W33582   9.035   5.113   5.032  0.0834 -0.1355 -0.2319
17449W        W33583  13.855  17.171   5.367  0.1747  0.0319 -0.3549
17450W        W33584   7.594  11.187  16.306 -0.1675 -0.1479 -0.1318
17451W        W33585  15.579   6.887   5.347  0.0565  0.0209 -0.0436
17452W        W33586  16.713  17.172  13.297 -0.1561  0.0472 -0.2551
17453W        W33587   9.829   0.852  12.292  0.0379  0.4933  0.2521
17454W        W33588  16.879  13.025   1.190  0.1521 -0.1010 -0.1150
17455W        W33589   6.813  16.563  13.302  0.2575  0.1851 -0.1423
17456W        W33590   1.522   6.161  13.452 -0.0358  0.1223  0.3220
17457W        W33591   5.722  13.946  13.814  0.1175 -0.0629 -0.5359
17458W        W33592  12.128  12.120   1.237  0.0203 -0.1495  0.2420
17459W        W33593  10.660   1.993   4.463  0.2111  0.0264  0.1002
17460W        W33594   9.755  10.464   1.030  0.4736  0.1173  0.1277
17461W        W33595   9.014  17.398  13.221  0.0675  0.0777 -0.0554
17462W        W33596   7.804  15.762   1.152 -0.2397  0.3286  0.0487
17463W        W33597   0.979   7.342  13.239 -0.0502 -0.0751  0.0252
17464W        W33598  11.546   8.659   0.262  0.2686  0.1706 -0.0092
17465W        W33599   8.378  10.355   4.179 -0.2076  0.1055 -0.2271
17466W        W33600  11.094   1.811   1.296 -0.1911 -0.2322  0.0639
17467W        W33601  13.145  17.193  15.722 -0.2808  0.1178 -0.1725
17468W        W33602  16.989   3.320  14.705 -0.1300  0.1844 -0.1408
17469W        W33603   8.950  12.913  14.264 -0.0242  0.0054 -0.0245
17470W        W33604   9.981   6.639   1.662 -0.1289 -0.1811  0.1494
17471W        W33605   3.763   3.559  14.528 -0.3256 -0.0848 -0.0158
17472W        W33606  16.689  10.914  12.905  0.2681 -0.2352  0.1349
17473W        W33607  13.843   7.736   4.858  0.1986 -0.2727  0.1738
17474W        W33608  16.864   5.784  13.246  0.0667  0.1975  0.2157
17475W        W33609   0.951  12.151   0.316 -0.1186 -0.1233  0.1319
17476W        W33610   9.734   9.946  15.384 -0.1138  0.0735  0.2774
17477W        W33611   3.803   6.679  11.800  0.0563  0.2776 -0.2322
17478W        W33612   9.568   0.173   0.320  0.3879  0.2900  0.0111
17479W        W33613   6.845  13.683  16.067 -0.1157  0.0506 -0.1722
17480W        W33614   7.579   2.493  12.055  0.1528 -0.1472 -0.1949
17481W        W33615   6.642   5.690  12.491  0.1472  0.2300 -0.0065
17482W        W33616  11.697   5.708  11.526  0.2347 -0.3638  0.0198
17483W        W33617   3.362   7.080  13.024 -0.1451  0.3053  0.2776
17484W        W33618   8.909   4.797   1.754 -0.1221  0.1996 -0.2119
17485W        W33619   3.732  11.668  11.242 -0.0094  0.1215 -0.0448
17486W        W33620  14.021  14.073   4.250  0.3151  0.1899 -0.2456
17487W        W33621  15.213   2.121   0.556  0.0863  0.2373  0.1797
17488W        W33622   5.782   1.454  15.806 -0.0509 -0.2473 -0.1221
17489W        W33623  12.533  11.035   4.005 -0.0098 -0.0794 -0.1015
17490W        W33624   2.898   1.368   3.439 -0.1406 -0.2125  0.2694
17491W        W33625  13.534   9.986   2.869 -0.0208 -0.1693  0.2439
17492W        W33626   9.371   1.506   0.185 -0.1254  0.1870 -0.2885
17493W        W33627   2.186   1.893   0.907  0.0275  0.0832  0.1012
17494W        W33628  13.747  17.040  14.209 -0.0787  0.2183 -0.0496
17495W        W33629  12.752  15.305   1.449 -0.0588  0.3709 -0.0720
17496W        W33630  11.314   7.819   1.879  0.4024  0.0655 -0.0590
17497W        W33631  10.154   3.080  14.326 -0.1599  0.2527 -0.1266
17498W        W33632  11.756   0.801  13.117 -0.4255 -0.1814 -0.1647
17499W        W33633   1.120   4.610  12.444  0.0540 -0.0248 -0.5680
17500W        W33634   7.871  14.834  12.924 -0.0724  0.1843  0.2961
17501W        W33635  17.179  13.455  14.963  0.1455  0.2729 -0.1639
17502W        W33636  12.133   2.187  13.488 -0.0218  0.3694 -0.1959
17503W        W33637  15.557   0.676   1.672  0.1535  0.2699 -0.1193
17504W        W33638  13.390  15.507   5.532  0.0584  0.0795  0.1807
17505W        W33639  12.811   3.802   1.372  0.1094 -0.1909  0.0145
17506W        W33640   9.128  11.190  11.575 -0.0067  0.0109  0.4062
17507W        W33641   5.066   9.518  12.413  0.1618  0.0342 -0.0039
17508W        W33642  16.270  14.262   4.511 -0.0621 -0.0834  0.2225
17509W        W33643  16.659   0.237   2.995 -0.2102 -0.0490 -0.1792
17510W        W33644   7.954  16.182  11.582  0.1799  0.0620 -0.0717
17511W        W33645  12.030  13.917  16.135 -0.0242 -0.1172  0.0274
17512W        W33646  13.940   8.107   4.464  0.1374 -0.0272  0.1059
17513W        W33647   3.237  10.672   0.851  0.0399  0.0106  0.0115
17514W        W33648   6.860   8.866   4.825  0.0652 -0.1695  0.1189
17515W        W33649   1.638  11.237  14.017 -0.0610 -0.0689  0.0152
17516W        W33650   6.847   9.643   3.142 -0.2711 -0.1787  0.1636
17517W        W33651  10.392   0.112  12.537  0.2462  0.2084 -0.0782
17518W        W33652  11.376  11.084   2.735  0.2778 -0.0788  0.0067
17519W        W33653   1.208   0.002   4.726  0.1953 -0.1818 -0.2865
17520W        W33654   2.183  10.758  11.359 -0.0428  0.3380  0.0977
17521W        W33655   2.330   8.404   1.157 -0.0750  0.0807 -0.1325
17522W        W33656  11.097   3.927   3.888  0.0671  0.0417 -0.0651
17523W        W33657   7.221   3.089   3.902  0.0409 -0.2688  0.2517
17524W        W33658  14.490   0.853  16.002 -0.1412 -0.0569 -0.0739
17525W        W33659  12.804  14.061   4.875  0.2873  0.0739 -0.0542
17526W        W33660   8.412  17.849  16.116  0.2117  0.0450 -0.3424
17527W        W33661   9.859  11.986   1.699 -0.0172  0.2453  0.0535
17528W        W33662   3.759  15.267  13.744 -0.2330 -0.0792  0.1755
17529W        W33663   5.112  14.464   0.355 -0.1967 -0.3247 -0.0342
17530W        W33664   4.314   6.165   5.966 -0.0285 -0.0453  0.0455
17531W        W33665  11.447  11.559  15.728  0.0223 -0.3462 -0.0646
17532W        W33666   0.524   1.656  11.556 -0.1836 -0.3616 -0.2186
17533W        W33667  10.347   3.095  15.392  0.1422  0.1652  0.1065
17534W        W33668  10.974   2.369  14.390  0.0297  0.1392  0.1043
17535W        W33669   5.439   8.437   1.841 -0.2284  0.1251  0.3298
17536W        W33670  10.164  11.266   4.460 -0.3050 -0.1536 -0.0848
17537W        W33671   8.217  17.949   2.139 -0.0305 -0.0074 -0.1475
17538W        W33672   9.687  17.554   5.540  0.0843 -0.0505 -0.2027
17539W        W33673   5.941   9.829   0.587 -0.0854  0.3012 -0.0559
17540W        W33674   5.961  10.086   3.975 -0.1727 -0.1771 -0.1460
17541W        W33675  16.822  12.104   1.122  0.0484 -0.1243 -0.0227
17542W        W33676  16.085  16.176  12.169 -0.0308 -0.0459 -0.0768
17543W        W33677   3.807  14.002   5.416 -0.1564  0.0102 -0.0891
17544W        W33678   4.036  12.225  13.479  0.2679 -0.0463  0.0822
17545W        W33679  12.968   3.356  12.020  0.3167 -0.0111  0.0589
17546W        W33680   6.920  15.283   1.350 -0.1811 -0.1104 -0.0625
17547W        W33681  14.732   1.224  14.567 -0.1081  0.0192 -0.1014
17548W        W33682  11.806  13.688  11.229  0.1137 -0.1285 -0.0803
17549W        W33683   8.938   4.942   3.185  0.0219 -0.1402  0.1209
17550W        W33684  13.196   3.626  13.422  0.3422  0.1115  0.1254
17551W        W33685  11.561   7.675   2.308 -0.0614 -0.1162  0.1606
17552W        W33686  11.677   5.336   2.486 -0.0658  0.0274  0.2301
17553W        W33687   7.710   9.265   4.054  0.2245 -0.0927 -0.1798
17554W        W33688  13.427   9.767   1.358 -0.0480 -0.1605  0.0845
17555W        W33689   5.332   8.363  16.391 -0.1642  0.0966  0.1922
17556W        W33690  17.607   4.552  13.120  0.2025  0.0179  0.1707
17557W        W33691   4.877  11.854  15.096  0.0031  0.0428 -0.0406
17558W        W33692  16.582  13.525  15.481  0.0799  0.3984  0.1337
17559W        W33693  11.403   1.680   0.382  0.0583 -0.0026  0.0765
17560W        W33694  15.318  11.649  11.516  0.0606 -0.0811 -0.3427
17561W        W33695   2.543   1.562   2.611 -0.0426 -0.0925  0.0054
17562W        W33696   4.808  12.016  13.996  0.0690  0.1279  0.1190
17563W        W33697   9.258   3.874   1.681 -0.2879  0.2135 -0.1144
17564W        W33698   2.565   5.963  15.445 -0.0265  0.0125  0.1588
17565W        W33699  13.493  15.171  15.833  0.1752  0.2284 -0.0445
17566W        W33700   4.540  15.403   4.064 -0.1261  0.1278 -0.1736
17567W        W33701   7.663   5.088  12.745 -0.1502 -0.0996 -0.0502
17568W        W33702  13.976   0.760   1.776  0.1327 -0.3026  0.1723
17569W        W33703   7.521   7.452  11.209 -0.0833 -0.2873 -0.0054
17570W        W33704  10.553  11.390  14.792  0.3492  0.2017 -0.0536
17571W        W33705  14.999   8.425   0.256  0.0664  0.0941 -0.4238
17572W        W33706   3.295   3.957   0.545 -0.2091  0.0620 -0.2285
17573W        W33707  16.734  10.451  15.863  0.1866  0.1613  0.0814
17574W        W33708   2.534   7.694   1.050 -0.1139  0.0181 -0.0663
17575W        W33709   3.464   1.001   1.580  0.1328 -0.0285 -0.1081
17576W        W33710  11.992   6.796  13.024  0.0889  0.1808 -0.2987
17577W        W33711   5.177  11.040   3.765 -0.2021  0.0718  0.1837
17578W        W33712  10.333   8.241  13.171 -0.1693  0.0478 -0.3190
17579W        W33713  17.967   1.478   5.516  0.3773 -0.1758 -0.0989
17580W        W33714   3.402   6.169   3.323 -0.1436 -0.1577 -0.4227
17581W        W33715  17.109   4.852  15.126  0.1538  0.2586 -0.0963
17582W        W33716   1.548   5.251  15.732 -0.1027 -0.1200 -0.0064
17583W        W33717   4.210  15.823   3.554 -0.0495 -0.1667 -0.0423
17584W        W33718   3.663  17.436   3.492 -0.0919  0.1820 -0.1073
17585W        W33719   3.140  11.487  11.488 -0.1404 -0.0603  0.1010
17586W        W33720  13.790   6.488  12.642 -0.2774  0.1700 -0.1008
17587W        W33721  11.022  10.208  13.640 -0.1030 -0.1146 -0.0130
17588W        W33722  10.388   1.524  10.483 -0.2024  0.2265 -0.1298
17589W        W33723   9.724  14.795   2.669 -0.4295  0.0270 -0.0000
17590W        W33724  11.877  12.731   3.357 -0.0899 -0.0101  0.0674
17591W        W33725   2.934   3.815  15.060 -0.3926  0.1194  0.1429
17592W        W33726   6.343   5.860   1.668  0.1608 -0.0461 -0.0035
17593W        W33727  11.245  15.521  11.696 -0.0524 -0.1101  0.0299
17594W        W33728  16.570   7.567   4.784  0.0071 -0.5595 -0.1690
17595W        W33729  12.270  12.629   1.407  0.1294  0.2399 -0.2795
17596W        W33730   6.697  12.412  12.970 -0.0346 -0.0521 -0.0350
17597W        W33731   6.415   0.454   3.602  0.1035 -0.0480  0.0680
17598W        W33732   3.225   7.179  13.965 -0.6429 -0.1974  0.1274
17599W        W33733   6.897   4.319   5.174  0.3428  0.1897  0.0894
17600W        W33734   1.111   2.351   0.903 -0.1241  0.1057 -0.0400
17601W        W33735   5.913  13.996   5.262 -0.1758  0.0508 -0.1260
17602W        W33736  10.899  12.873  15.553  0.1007  0.1504  0.1466
17603W        W33737  15.695   0.473  16.176  0.0441 -0.1400  0.1452
17604W        W33738  12.154   3.943   2.230  0.1605 -0.0071  0.0253
17605W        W33739   7.301  13.037   5.158 -0.2127 -0.4511 -0.2408
17606W        W33740   5.693  15.958   1.075  0.1650  0.0951  0.0432
17607W        W33741   6.808   7.540  14.278 -0.1528  0.0263  0.1840
17608W        W33742  10.251   8.101   4.681  0.0912  0.1453  0.0551
17609W        W33743  14.470   5.278   3.986  0.0444  0.3524  0.2224
17610W        W33744   1.570  13.230  11.569 -0.1138 -0.4077  0.0383
17611W        W33745  11.175  15.483   1.489 -0.1620  0.3600 -0.3346
17612W        W33746  11.677  12.252   2.171 -0.1138  0.0440 -0.0375
17613W        W33747  13.661  13.703  14.919 -0.1748  0.1480  0.0385
17614W        W33748  10.068  12.367   3.547  0.2795  0.0154  0.0733
17615W        W33749   8.574   9.527   0.946 -0.2398 -0.0508  0.0215
17616W        W33750  12.340   6.857   5.604  0.2884 -0.2963 -0.0007
17617W        W33751  15.969   6.564   1.389  0.0829  0.0912  0.5490
17618W        W33752  14.502   5.950  16.303  0.4139  0.1361  0.0771
17619W        W33753   6.164  14.868  13.638  0.1728 -0.1458  0.0597
17620W        W33754  10.971   6.586   1.910  0.3591 -0.2874  0.0421
17621W        W33755   8.385   0.234   2.599 -0.0233  0.3096 -0.0122
17622W        W33756   5.481  10.852   1.268  0.3582 -0.0019 -0.2646
17623W        W33757   4.354   7.203   0.420 -0.0024  0.0505  0.0063
17624W        W33758   4.891  14.036   5.529 -0.1156  0.0428 -0.1529
17625W        W33759  17.042  14.812  12.046  0.0290 -0.1887  0.1127
17626W        W33760   1.189   5.690  10.979  0.0118 -0.0502 -0.4931
17627W        W33761  13.321   0.630  14.547  0.0689 -0.0603  0.1626
17628W        W33762   7.455  13.508   4.241 -0.2615  0.1275  0.0946
17629W        W33763  10.637   8.354  15.585 -0.1425  0.1054 -0.0576
17630W        W33764   2.377   3.942   0.329 -0.1527  0.0164 -0.1896
17631W        W33765   9.782  16.955  11.974  0.1952 -0.1069  0.0243
17632W        W33766   7.512   3.649   4.326  0.1865  0.2593  0.0386
17633W        W33767   7.545  12.321  16.031  0.0062 -0.0191 -0.1482
17634W        W33768  11.539  11.923  16.144  0.1809  0.0566  0.0280
17635W        W33769   3.156   3.365  11.502  0.0296 -0.0784  0.1326
17636W        W33770   2.326   5.248   3.781 -0.0999  0.2277  0.0375
17637W        W33771   6.335  12.610   3.560  0.0060 -0.3990 -0.0117
17638W        W33772   0.926   9.709  13.592 -0.1653 -0.0795  0.0279
17639W        W33773  12.067   4.281  13.561 -0.1635  0.0732 -0.0850
17640W        W33774   1.456   6.670  14.661 -0.2262  0.1958  0.0493
17641W        W33775  17.151   5.295  14.668  0.1371 -0.1860  0.1040
17642W        W33776   6.516  12.799  15.731 -0.1171  0.0915 -0.2378
17643W        W33777   2.467   6.073   0.931  0.0666  0.0803 -0.1835
17644W        W33778  13.712  12.897   3.611  0.0092  0.0920  0.0467
17645W        W33779   1.425  12.790  16.333 -0.0090 -0.0909 -0.0366
17646W        W33780  17.796   1.313  13.334 -0.0745  0.0524 -0.0799
17647W        W33781  13.559  16.965   3.872  0.0046  0.1081 -0.3639
17648W        W33782   4.143  14.723   5.103 -0.0443 -0.1806 -0.0996
17649W        W33783   0.020   9.208   5.054  0.0542  0.1310 -0.1957
17650W        W33784  12.015  16.069   0.617  0.1291  0.0863  0.4026
17651W        W33785   6.053   9.436   3.185 -0.1702 -0.1003 -0.1780
17652W        W33786  13.026   1.094   0.423  0.0587 -0.1464 -0.0679
17653W        W33787  15.743   8.100  11.956  0.1563  0.1602 -0.0521
17654W        W33788   1.495  12.292  15.579 -0.1940  0.0735 -0.0242
17655W        W33789  13.735  17.240   3.356  0.2123  0.0392 -0.1462
17656W        W33790   8.946   3.466  11.890  0.0560 -0.0240  0.3175
17657W        W33791   2.690   0.368   3.972 -0.0879 -0.0542  0.1095
17658W        W33792   1.276   2.423  13.029 -0.2600 -0.2167  0.1695
17659W        W33793   1.744  13.933   1.469  0.0494 -0.0453 -0.0432
17660W        W33794  17.255  15.693   5.120  0.0023 -0.0911 -0.4693
17661W        W33795  14.768   5.974  12.605  0.1601  0.1642  0.0418
17662W        W33796  12.134  13.061  13.180 -0.1793 -0.4666 -0.2645
17663W        W33797   1.098   1.843  12.849 -0.4462  0.2689  0.0729
17664W        W33798  10.621  14.705   0.143 -0.3909  0.2042  0.3259
17665W        W33799  15.286  13.870   1.804 -0.1500 -0.0800  0.0890
17666W        W33800   5.996   1.855   3.663 -0.0829 -0.2497  0.0641
17667W        W33801   1.634  16.755  11.806 -0.0301  0.0197 -0.0097
17668W        W33802  16.583  12.001   2.605 -0.0403 -0.4742  0.1031
17669W        W33803  13.894  12.055  12.561 -0.0965 -0.1262  0.0578
17670W        W33804   3.643  15.433  11.943  0.0203  0.1126 -0.0469
17671W        W33805  13.446  14.345   0.751  0.1587  0.1919  0.0834
17672W        W33806   6.229  16.227  13.567  0.1277 -0.3618  0.0490
17673W        W33807   9.346   1.025  15.675 -0.0054 -0.0072 -0.1554
17674W        W33808   6.900  11.079  15.137 -0.0949  0.3982  0.1010
17675W        W33809  15.642  10.984  10.981  0.0644  0.2789  0.1826
17676W        W33810   1.187   2.308   5.065 -0.0495 -0.0894 -0.0476
17677W        W33811  17.744   2.706   1.346  0.0969  0.0749 -0.1697
17678W        W33812  14.364  16.178  15.061 -0.3021  0.0832 -0.0755
17679W        W33813   2.696   6.690  13.533  0.0477 -0.1801 -0.2200
17680W        W33814  10.929   0.677  13.906 -0.2306  0.1135  0.0200
17681W        W33815  13.660  12.121  15.886  0.2907  0.5634 -0.1472
17682W        W33816  14.364  12.910   1.136  0.1000 -0.1959 -0.2852
17683W        W33817  17.217  13.992   0.221 -0.2057 -0.2969 -0.1733
17684W        W33818   0.777   6.532   2.530 -0.2152 -0.0673  0.1836
17685W        W33819  13.274   3.392  12.403 -0.1994  0.2693  0.0340
17686W        W33820  13.088  12.779  16.135  0.0287  0.2562 -0.2477
17687W        W33821  12.621   2.210   0.856  0.0205  0.1117 -0.0251
17688W        W33822   1.863   2.386   5.303  0.0709 -0.2359 -0.2178
17689W        W33823   2.014   6.038  13.326 -0.1675 -0.1353 -0.0519
17690W        W33824   0.060   9.417  15.097  0.0200  0.0929 -0.0811
17691W        W33825  17.849  13.147  12.750  0.1906  0.1163 -0.3834
17692W        W33826  14.187  10.769   5.443 -0.1156 -0.1421 -0.1838
17693W        W33827   7.368  15.406  11.929  0.0103 -0.1933  0.0407
17694W        W33828   7.311  15.266  13.705  0.0475  0.3348 -0.0939
17695W        W33829  16.385   9.768  15.529 -0.0893 -0.2317 -0.1139
17696W        W33830   9.530   9.696   1.581  0.0927  0.1555  0.0059
17697W        W33831   8.961  13.508   0.041 -0.1165  0.0815  0.0226
17698W        W33832   3.391   1.091  16.299  0.0599 -0.0453 -0.1108
17699W        W33833   9.089   3.058   1.454  0.0391 -0.1095 -0.0193
17700W        W33834   3.853  13.190  15.577  0.2791  0.0277 -0.1594
17701W        W33835  10.181  16.527   0.416 -0.2466  0.2271  0.2058
17702W        W33836   8.710   5.044  13.309 -0.2665  0.0698  0.2462
17703W        W33837  13.169  13.198  15.515 -0.2174  0.1003 -0.1189
17704W        W33838   8.458   7.345   4.992 -0.2195 -0.0126  0.4303
17705W        W33839   2.002  14.836   3.175  0.0138 -0.0288  0.0737
17706W        W33840   3.733  10.390  11.694 -0.1039  0.0103  0.1826
17707W        W33841   6.265  14.792  15.459 -0.1244 -0.1119 -0.3061
17708W        W33842   5.401   4.281  15.823  0.0215  0.0315 -0.0200
17709W        W33843   1.822  11.897  15.608  0.4034 -0.1601  0.3320
17710W        W33844  10.584  14.755   3.636 -0.3058 -0.0492 -0.2364
17711W        W33845   2.807  16.314   1.710 -0.1784  0.0160  0.0248
17712W        W33846  13.629  16.154  15.818 -0.0543  0.2005  0.1798
17713W        W33847   2.046   5.518   1.555  0.2590 -0.0894  0.0427
17714W        W33848   5.183  15.970  10.426 -0.1275 -0.1086  0.0464
17715W        W33849   6.141   1.496  15.346 -0.4253  0.2773  0.0768
17716W        W33850   8.824   5.759   3.923 -0.0656  0.1152 -0.3617
17717W        W33851   7.842   0.514  13.837  0.2373 -0.1790  0.0412
17718W        W33852   1.737   3.788  12.951 -0.0343  0.1364  0.1648
17719W        W33853   0.524  15.751  13.974 -0.1924  0.0183  0.0293
17720W        W33854  17.972  11.852   0.647  0.2646  0.1441  0.0855
17721W        W33855  15.502   8.156  15.044 -0.0909 -0.1120 -0.1287
17722W        W33856   7.568   8.373   3.878 -0.0582 -0.0299 -0.1037
17723W        W33857   4.330   6.850  13.094  0.1962  0.0306 -0.1898
17724W        W33858   0.886   3.040   4.254  0.0832  0.0045 -0.1190
17725W        W33859  13.204  16.645   4.056 -0.2263 -0.1037 -0.1261
17726W        W33860   1.068  15.756  14.076 -0.3143 -0.0151  0.0322
17727W        W33861  12.570   4.539   5.260 -0.1107  0.1257  0.1595
17728W        W33862   7.561   2.098  12.517  0.1508  0.1785 -0.1036
17729W        W33863   6.046   4.945  13.090 -0.4307 -0.3584  0.1002
17730W        W33864  11.370  12.325   1.759 -0.0432  0.2436  0.1531
17731W        W33865   3.760  16.208  10.654 -0.4051  0.1679  0.2430
17732W        W33866   2.150  13.899   5.256 -0.1764  0.0224 -0.0277
17733W        W33867   0.742   2.956  10.953 -0.1083 -0.0708  0.0646
17734W        W33868  10.992  15.944  15.492  0.3332 -0.1518 -0.2799
17735W        W33869  13.104  10.958   1.056  0.2070 -0.2713 -0.1308
17736W        W33870   7.023  13.120  14.031  0.0150  0.1456  0.2234
17737W        W33871   9.562  16.162  12.152  0.3194  0.1890  0.4803
17738W        W33872  17.482   4.095   4.377 -0.0193 -0.1546 -0.1704
17739W        W33873  17.131   3.615   2.244 -0.1347  0.0839  0.0787
17740W        W33874   1.898   9.622   5.631  0.4799  0.2181  0.0855
17741W        W33875  18.053   0.054   4.970  0.2599  0.1665 -0.0626
17742W        W33876   1.493  14.108  14.367 -0.1043  0.0942 -0.3980
17743W        W33877  13.728  16.150   5.560 -0.0947  0.2127 -0.4020
17744W        W33878  13.259   8.485   5.348  0.1068 -0.1109 -0.2595
17745W        W33879   7.602  13.500  10.906 -0.0437  0.3234  0.1864
17746W        W33880   0.408   6.723   2.782  0.1427 -0.3057  0.0121
17747W        W33881   9.130   1.061  11.112 -0.0824 -0.1330  0.1210
17748W        W33882  10.173   3.785  16.001 -0.0671 -0.1611  0.1806
17749W        W33883   0.587  14.835   2.810 -0.2254  0.2961  0.0765
17750W        W33884   9.745  12.794   2.818  0.0035  0.0158  0.3447
17751W        W33885  15.758   6.229  12.483  0.1063  0.1065 -0.0549
17752W        W33886  15.456   6.821   3.085  0.1766  0.2346 -0.1978
17753W        W33887   5.401  16.249  15.873 -0.0273 -0.2814 -0.0961
17754W        W33888   2.800   7.265   2.841 -0.1678 -0.1936  0.0343
17755W        W33889  13.002   7.056   3.932  0.0319  0.2085  0.0162
17756W        W33890   3.738   9.045   1.974  0.0056 -0.3960  0.0169
17757W        W33891   2.480   1.972   0.264 -0.0071  0.3240  0.5266
17758W        W33892   4.529   0.855  15.379 -0.0358  0.1213 -0.0375
17759W        W33893  16.216   5.051   4.360  0.0478 -0.1097 -0.3179
17760W        W33894   9.411  10.545   3.403 -0.1526  0.2889 -0.2559
17761W        W33895   3.610  16.574  15.350 -0.2248 -0.1527  0.0191
17762W        W33896  11.306   4.562  12.328  0.0358 -0.3862  0.1914
17763W        W33897  12.099  17.724  14.712 -0.1133  0.1210  0.2671
17764W        W33898  10.926   0.179   4.436 -0.1205 -0.2861 -0.0991
17765W        W33899   6.963  17.052  13.160 -0.1086  0.1961  0.0521
17766W        W33900  13.275   3.075  15.608  0.2609  0.0319  0.1799
17767W        W33901   4.145   0.036   2.905  0.2299 -0.1015 -0.1684
17768W        W33902   9.360   4.359   3.029  0.3064 -0.0145 -0.0368
17769W        W33903  13.128  12.080  11.901  0.1599  0.3813 -0.2290
17770W        W33904   0.825   1.402  15.023 -0.0296  0.0617 -0.2426
17771W        W33905  15.153  12.410  16.072  0.1442 -0.0096 -0.1429
17772W        W33906  17.106  13.048   0.259 -0.3727  0.0955 -0.3933
17773W        W33907  13.464  14.599   5.440 -0.1335  0.0747  0.0470
17774W        W33908  15.499   1.588  13.317 -0.0417  0.2203 -0.0129
17775W        W33909   1.066   5.355   2.863 -0.2357  0.0783 -0.0618
17776W        W33910   4.234   1.698  14.947 -0.1438 -0.0734 -0.0273
17777W        W33911   2.365   0.545  14.987  0.0552  0.3331 -0.2265
17778W        W33912   4.608  11.046   4.801 -0.1295 -0.4101  0.3402
17779W        W33913   4.790  17.026  16.201  0.2575 -0.0194  0.0292
17780W        W33914  10.752  13.711   4.476 -0.0041 -0.0611  0.1330
17781W        W33915   4.044   8.208   3.270  0.1451 -0.2353  0.0845
17782W        W33916  10.904  17.999  11.760  0.1116 -0.1070  0.1163
17783W        W33917  12.965  10.827  14.122  0.1001 -0.0965  0.2685
17784W        W33918  15.023  15.973  15.763 -0.0027  0.2802 -0.0204
17785W        W33919   9.536  16.399   4.781  0.1888 -0.0943 -0.4498
17786W        W33920  15.395   7.994   0.856 -0.2319 -0.1427  0.0805
17787W        W33921  12.579  10.330   5.377 -0.3048  0.0071  0.0355
17788W        W33922   6.428  16.895  16.413 -0.0414  0.1096  0.4133
17789W        W33923  15.036  12.422   0.763 -0.2130 -0.1578 -0.0616
17790W        W33924  10.716   8.761   1.264  0.0133 -0.0729 -0.2942
17791W        W33925  12.122  10.414  10.225  0.1871 -0.1872  0.0902
17792W        W33926  10.524   7.255   3.668 -0.4486  0.0730  0.0611
17793W        W33927   0.110  12.801  11.114  0.2796 -0.3438 -0.0283
17794W        W33928  12.762  10.857  14.548  0.1998 -0.0296 -0.1201
17795W        W33929   7.325  10.895   1.407 -0.1978 -0.0691  0.0212
17796W        W33930   1.780  12.103   2.808  0.0915 -0.0141 -0.4142
17797W        W33931   0.476   0.311   3.935  0.0216  0.2389 -0.5701
17798W        W33932   6.014  12.274   5.383  0.0497 -0.1869  0.0076
17799W        W33933  12.841   2.495   4.785 -0.1105 -0.3010 -0.1435
17800W        W33934  11.406   3.371  12.519  0.1762 -0.0513 -0.0521
17801W        W33935  11.981   7.808  10.620  0.1220  0.1617  0.2823
17802W        W33936  15.914   3.685   0.810  0.0619 -0.2455 -0.0739
17803W        W33937   1.267  15.419   3.790 -0.1711 -0.1712  0.0213
17804W        W33938   5.414   8.546  11.382 -0.1551  0.2997  0.1168
17805W        W33939   3.165   4.884   1.988 -0.0481 -0.0148  0.0020
17806W        W33940  14.876   7.446  11.889 -0.0790 -0.1258 -0.0053
17807W        W33941   2.321  10.199  10.227 -0.0429  0.0286  0.0486
17808W        W33942   8.700  15.009   5.241 -0.1767 -0.0007  0.0661
17809W        W33943   2.675  11.821   0.880  0.0465  0.2702 -0.2767
17810W        W33944   8.828   9.469  12.151 -0.0627  0.0791  0.3263
17811W        W33945  15.698   4.010  11.500  0.0031 -0.0851  0.1724
17812W        W33946  12.973   2.185  14.841 -0.1206  0.2253  0.6690
17813W        W33947   2.183   4.979   4.197  0.0406  0.0596  0.2635
17814W        W33948  18.055   9.362  12.364 -0.2799  0.1210  0.1342
17815W        W33949   8.639   4.757  12.401 -0.1738 -0.4390 -0.0459
17816W        W33950   1.050  10.343   3.045 -0.0012  0.1327  0.1270
17817W        W33951   8.235   1.217   0.915  0.3357 -0.2404  0.0511
17818W        W33952   4.739   2.870  12.110  0.0390 -0.3021  0.1346
17819W        W33953   0.657   5.582   1.493 -0.1816  0.0497  0.1751
17820W        W33954   1.943   9.150   5.874  0.2732  0.0516 -0.0377
17821W        W33955   4.831   1.167  14.211  0.2338  0.1353  0.1790
17822W        W33956  10.941  13.979   2.995 -0.3401 -0.3049 -0.0317
17823W        W33957   3.230  14.776   1.516  0.1181  0.1083 -0.0245
17824W        W33958   9.162  16.652   1.509 -0.2003  0.1034  0.2697
17825W        W33959   3.665  11.037   0.965 -0.0955 -0.0923  0.0377
17826W        W33960   9.968   7.628   5.843  0.2390  0.0772  0.1369
17827W        W33961  17.453  16.909  14.382  0.0831 -0.3105  0.1412
17828W        W33962   6.121  12.196   2.250 -0.3468  0.1231  0.3544
17829W        W33963  13.382   7.775  12.522  0.0188  0.1808 -0.2642
17830W        W33964   0.794  12.620  14.138  0.0926  0.3315 -0.3169
17831W        W33965  17.119   0.801   4.135  0.2438  0.0933 -0.2588
17832W        W33966   6.017   2.355   3.686 -0.0418 -0.2428 -0.1511
17833W        W33967  17.999  17.102   0.475 -0.2085  0.0249  0.1688
17834W        W33968   9.116   7.466   4.333  0.1398 -0.0646 -0.1996
17835W        W33969  11.550  10.240  13.308  0.1573  0.2218 -0.1423
17836W        W33970  12.421  17.839  12.703  0.2588  0.0199  0.2913
17837W        W33971   7.879  13.608  16.379 -0.2196  0.0442 -0.2403
17838W        W33972   9.064  16.610  12.484  0.1970 -0.0372  0.0230
17839W        W33973  10.660  13.179  15.186 -0.1743  0.1559 -0.1422
17840W        W33974   7.377  10.492   3.481 -0.1769 -0.2077  0.2185
17841W        W33975  13.937   2.339  15.147 -0.2528 -0.2853  0.0635
17842W        W33976  12.477  17.863   3.174 -0.1379 -0.2213  0.2193
17843W        W33977   9.588   3.776   0.805  0.1800 -0.1799 -0.0459
17844W        W33978   7.262   2.638   0.935 -0.1112  0.2175  0.3900
17845W        W33979  13.411   4.321  15.932  0.0194  0.1831 -0.0490
17846W        W33980   1.549  15.524  15.553  0.2252 -0.0343  0.0340
17847W        W33981  17.268  16.965   4.391 -0.2268  0.1173  0.0658
17848W        W33982   9.504   5.935   0.402 -0.2039  0.1974  0.0328
17849W        W33983   0.865  18.078   5.109 -0.0726  0.1172 -0.3518
17850W        W33984   5.199   3.363   2.284 -0.2076 -0.0610 -0.1111
17851W        W33985   4.062   4.349  15.939  0.2584  0.1337  0.2560
17852W        W33986   1.663  16.370   1.189 -0.2273  0.3130  0.0039
17853W        W33987  11.102  12.333   2.193  0.2021 -0.1866  0.1213
17854W        W33988   7.515   2.361   1.351 -0.0770 -0.0468 -0.0103
17855W        W33989   4.766  16.505   3.409 -0.0288 -0.1430  0.0409
17856W        W33990   2.706  10.562   3.425 -0.1402  0.2334  0.2328
17857W        W33991  13.586   4.512  13.758 -0.0900 -0.2467 -0.2085
17858W        W33992   0.718  17.127   3.841 -0.1087  0.0301 -0.0417
17859W        W33993  15.909   8.945  12.299  0.1612 -0.1898  0.2168
17860W        W33994   3.904   3.512   5.298 -0.1692 -0.1259 -0.0685
17861W        W33995   4.836   5.100   3.573 -0.3220 -0.0968  0.0054
17862W        W33996   1.903   3.657  15.145 -0.3071 -0.3174  0.0650
17863W        W33997   2.910   9.123   2.619 -0.0799  0.1732  0.0408
17864W        W33998   8.548  12.626  14.246  0.0419 -0.1738  0.0830
17865W        W33999   5.738  15.388   5.228  0.5003 -0.3516  0.4442
17866W        W34000  16.550  15.961   5.917  0.0669 -0.0990 -0.2675
17867W        W34001  10.583  17.798  16.064 -0.0284  0.1540  0.1881
17868W        W34002   9.786  14.729   1.763 -0.4577  0.0732 -0.2653
17869W        W34003  14.014  16.042  14.102  0.0517 -0.1210  0.0545
17870W        W34004   3.907  11.033   0.095  0.0458 -0.1441 -0.2886
17871W        W34005  11.893   4.804   3.924  0.3021  0.1106 -0.0457
17872W        W34006  14.650   8.451   0.614 -0.1994 -0.1839 -0.3360
17873W        W34007   7.050   3.340  15.448 -0.0033 -0.0709 -0.2306
17874W        W34008   7.359  14.520   3.956  0.0382  0.0353 -0.0382
17875W        W34009   0.215  14.253  14.678  0.0606  0.0543  0.0394
17876W        W34010   2.585   5.911  12.363 -0.1526 -0.2858  0.0387
17877W        W34011  15.230   9.052  15.529 -0.2208  0.2336 -0.0242
17878W        W34012  13.821   7.055  14.717 -0.0486  0.1421  0.0596
17879W        W34013   5.749   9.508  13.588  0.1489  0.2947  0.0029
17880W        W34014  12.082  14.256  11.232 -0.2382 -0.3032 -0.2041
17881W        W34015  12.903   7.922   2.693 -0.0470 -0.0263  0.1924
17882W        W34016   4.158  16.971  15.406  0.0067 -0.0727 -0.1595
17883W        W34017  12.828  14.367   2.025 -0.0127  0.3568 -0.0192
17884W        W34018  10.807   2.028   2.412 -0.0448  0.0113 -0.1280
17885W        W34019   5.925   1.765   0.929  0.3346 -0.3603 -0.2115
17886W        W34020  10.879  17.378  11.053  0.0163 -0.3101  0.1490
17887W        W34021   2.304  10.431  12.360 -0.2357 -0.2712 -0.1453
17888W        W34022  14.387   0.966   4.491  0.0044 -0.4965 -0.0310
17889W        W34023   3.658  16.813  12.264 -0.4077 -0.2208  0.0890
17890W        W34024  17.216   8.020  16.191  0.1213 -0.1717  0.3547
17891W        W34025   9.365   0.807  12.644  0.0900 -0.0567 -0.2190
17892W        W34026   3.988   1.321   2.355  0.2258 -0.0671  0.1244
17893W        W34027   2.144   1.963   5.102 -0.0074 -0.1584  0.0783
17894W        W34028  14.621   9.041   4.210 -0.0537 -0.0596 -0.0332
17895W        W34029  16.454   8.968  13.194  0.1423  0.0218 -0.0055
17896W        W34030   8.774  16.835   2.388 -0.1651  0.1721  0.0989
17897W        W34031   0.572  17.943   1.461  0.1755 -0.0907 -0.1294
17898W        W34032   9.323  10.598   4.401  0.2012 -0.1450 -0.0920
17899W        W34033  10.926   6.420  15.470 -0.2865 -0.0448 -0.0960
17900W        W34034   5.285   1.602   1.691 -0.1754  0.2444  0.2517
17901W        W34035  14.544  11.253  11.431  0.0033  0.1259  0.0021
17902W        W34036   1.216   2.547   0.004 -0.3049  0.4648 -0.2170
17903W        W34037   5.514  12.222   1.987 -0.0298 -0.0609  0.1648
17904W        W34038   3.425   3.912   2.628  0.2544 -0.2677  0.1621
17905W        W34039  12.659   5.691  13.403  0.2408 -0.0717 -0.1531
17906W        W34040   7.795  11.278  11.658 -0.2817 -0.1373 -0.0800
17907W        W34041   8.604  11.376  14.825 -0.2263  0.2450 -0.1750
17908W        W34042   4.888  10.420   0.804 -0.0705 -0.1018 -0.0721
17909W        W34043  12.714   8.839  15.286 -0.0550 -0.2145 -0.0254
17910W        W34044  11.589  16.080  12.021 -0.1441 -0.1869 -0.1548
17911W        W34045  13.511   0.341   0.248 -0.0203  0.0631 -0.0335
17912W        W34046  12.975   5.791   0.061  0.2272  0.4138  0.1676
17913W        W34047  14.650   9.093  12.180 -0.2545 -0.0076 -0.1021
17914W        W34048   3.153  10.419   1.305  0.1636 -0.0232  0.0794
17915W        W34049   9.451  11.947   2.299  0.0916 -0.0135 -0.1367
17916W        W34050  10.626   7.810   5.029 -0.1429  0.0301 -0.2018
17917W        W34051  14.122   4.872  13.681 -0.2084  0.3215 -0.2532
17918W        W34052  17.766   7.999  11.157 -0.2971  0.0345 -0.2009
17919W        W34053   9.301   6.206   5.712 -0.0667 -0.0426 -0.1357
17920W        W34054  14.020   2.630  10.824 -0.1510  0.2818 -0.1485
17921W        W34055   9.841   9.929   5.505  0.2359  0.0592 -0.0237
17922W        W34056   9.810   0.279  12.949 -0.1117  0.0418  0.1556
17923W        W34057   7.042   4.171   1.707  0.0332  0.0635  0.1279
17924W        W34058   9.650   5.316   4.726  0.0633 -0.2661 -0.1227
17925W        W34059  16.962   6.061   3.686  0.3236  0.0803  0.0653
17926W        W34060  14.605   3.535   1.661 -0.0359 -0.1133 -0.1119
17927W        W34061   1.510  12.998  15.821 -0.2753 -0.1478 -0.0827
17928W        W34062   1.634  16.518   4.865 -0.0883 -0.4806 -0.3768
17929W        W34063   2.921   8.442   3.212  0.4162  0.0138 -0.1967
17930W        W34064   3.570   8.888   3.563  0.1714  0.1855 -0.3367
17931W        W34065  13.179  15.086  12.463  0.1444  0.0166 -0.2640
17932W        W34066  16.274  11.635   3.227 -0.0999 -0.1624 -0.0572
17933W        W34067   6.228   8.659  12.488  0.1524 -0.2159  0.2359
17934W        W34068   7.742   9.991   6.193 -0.0764  0.0560  0.0457
17935W        W34069  13.325   3.443   3.137  0.1650  0.0120  0.1560
17936W        W34070   6.453  17.500   5.287 -0.2829 -0.0371  0.0205
17937W        W34071   1.668  16.127   3.496  0.1500  0.0638 -0.2732
17938W        W34072  11.009   6.503   5.612 -0.1852  0.2446  0.0329
17939W        W34073   1.256   6.326   0.585 -0.2560 -0.6130  0.0501
17940W        W34074  14.172   4.715  15.983  0.0324 -0.3743 -0.0247
17941W        W34075   0.270   9.879   1.864 -0.1604  0.2160 -0.3425
17942W        W34076  15.020  13.621  11.749 -0.1296  0.1549 -0.0758
17943W        W34077   1.787  10.084   4.246 -0.1578  0.0034 -0.1060
17944W        W34078  10.534  13.479  14.204  0.0413 -0.2690 -0.0755
17945W        W34079   5.520   0.638  14.971 -0.0746  0.1936 -0.0978
17946W        W34080   8.881   7.309  14.683 -0.1221  0.1408  0.0855
17947W        W34081   7.776  16.663   0.329  0.2321 -0.1358 -0.1096
17948W        W34082  10.030  11.955  14.535  0.0633  0.0269  0.2439
17949W        W34083   7.507   6.816  15.415 -0.2688  0.0016 -0.1695
17950W        W34084   9.692   5.827  15.043 -0.1915  0.2704 -0.1183
17951W        W34085   6.328  10.486   4.082  0.1305 -0.2180  0.2713
17952W        W34086   9.104   4.846  13.648 -0.4191 -0.1231  0.0726
17953W        W34087   7.088   2.635   1.471 -0.0368  0.0920 -0.0583
17954W        W34088   6.888  10.731  14.210 -0.0630 -0.0476  0.0866
17955W        W34089   7.959   1.575  12.167  0.1597 -0.1203  0.0181
17956W        W34090  15.667   7.660   4.325 -0.0598 -0.1750 -0.0141
17957W        W34091  17.778   0.371   0.376  0.0931 -0.0666  0.0651
17958W        W34092  15.531  12.887  12.993 -0.1925  0.0574  0.0590
17959W        W34093   7.856   2.380   1.932  0.0055  0.1590  0.0462
17960W        W34094  15.313  10.797   2.125  0.0249 -0.0706 -0.1512
17961W        W34095   8.187  12.909  13.139 -0.3449 -0.0131  0.2497
17962W        W34096   6.221  10.141  12.797 -0.2545 -0.1314  0.1080
17963W        W34097   7.294   0.541  14.692 -0.0121  0.0541 -0.1351
17964W        W34098   0.648  14.873  12.461  0.2489  0.0488  0.1129
17965W        W34099   6.002   6.409   0.397 -0.1427 -0.0236 -0.0322
17966W        W34100   9.358   1.394   4.415  0.0745  0.0655  0.0754
17967W        W34101  10.422  11.885  12.637 -0.0791  0.0547 -0.1097
17968W        W34102  17.321  15.759  15.298 -0.1688 -0.0900 -0.0396
17969W        W34103   5.792  12.924  11.262 -0.1028  0.2635  0.0843
17970W        W34104  17.819  10.418  13.864  0.1809  0.0296 -0.2510
17971W        W34105   9.454   1.612  12.820 -0.1600  0.5231  0.1835
17972W        W34106  13.870  17.075  10.366 -0.0306 -0.1808 -0.1159
17973W        W34107   9.277   5.120  15.013 -0.0432 -0.1096 -0.0324
17974W        W34108   9.321   7.239  15.055 -0.1439 -0.1876  0.2448
17975W        W34109  10.513   7.227   3.144  0.1945  0.2555  0.4354
17976W        W34110   5.763   6.733  14.073  0.2737  0.2917  0.2764
17977W        W34111   8.922  13.185   0.893  0.0592 -0.0060  0.1384
17978W        W34112   3.001   0.459  16.089 -0.3857  0.0410  0.2092
17979W        W34113  14.972  12.902   5.198 -0.3853 -0.0612 -0.1926
17980W        W34114   0.099  13.820  15.900  0.1738 -0.1084 -0.3032
17981W        W34115   3.842   5.669   1.049  0.1846  0.0401  0.2602
17982W        W34116   3.337   1.263  12.159  0.0854 -0.1082  0.1993
17983W        W34117  10.104   4.740   5.202 -0.1356  0.2165  0.2169
17984W        W34118  10.785  12.132   5.814  0.4047  0.0273  0.3113
17985W        W34119  11.755  18.023   5.020 -0.2775 -0.1883  0.1358
17986W        W34120  11.660   3.391  10.889  0.0340 -0.1660 -0.0155
17987W        W34121  18.014   4.792   1.301 -0.1444  0.1098  0.2206
17988W        W34122  14.801  15.099   5.335 -0.0562  0.2972  0.1208
17989W        W34123   8.252  10.631   5.552  0.2503 -0.0794 -0.0354
17990W        W34124  14.376  15.720   0.155 -0.0843 -0.0289  0.0008
17991W        W34125   1.866  15.619  13.137 -0.0802  0.1990  0.0079
17992W        W34126   3.628   9.744  15.272 -0.1688 -0.0891  0.1485
17993W        W34127  16.996   6.525   0.127  0.1897 -0.1574 -0.0991
17994W        W34128   6.682   3.633  14.785  0.0982  0.1692 -0.0089
17995W        W34129   2.552  12.400   0.918 -0.0103  0.0851 -0.1378
17996W        W34130  12.287   1.811   4.078  0.1186 -0.1695  0.2641
17997W        W34131   3.045   1.195   4.032  0.1448 -0.0792  0.4772
17998W        W34132   8.056   8.833  14.613 -0.0152  0.2021 -0.1562
17999W        W34133   4.679   0.416  16.360  0.0378 -0.2018 -0.2558
18000W        W34134  11.428  17.441   2.335  0.0201  0.2092 -0.3331
18001W        W34135  13.881  10.211   1.947 -0.3224  0.0019 -0.1124
18002W        W34136  15.353  16.322  11.687 -0.0887  0.0758 -0.0266
18003W        W34137   6.211   4.936  11.412 -0.3742 -0.0369  0.3467
18004W        W34138  11.385   6.613   1.563  0.1402  0.2686 -0.0312
18005W        W34139   1.296  12.664  14.604  0.0724  0.0807 -0.0360
18006W        W34140  15.420   6.007   2.673 -0.0865 -0.0270 -0.3182
18007W        W34141  13.192  10.018  15.835 -0.1410  0.0400  0.1476
18008W        W34142   9.511   8.668  14.459 -0.0031 -0.1785 -0.1532
18009W        W34143   8.778   3.212   4.344  0.0660  0.1146 -0.1501
18010W        W34144   4.360   4.837  12.520  0.0560  0.1177 -0.2586
18011W        W34145   8.842  12.300   3.962  0.0049 -0.0899 -0.1787
18012W        W34146   8.551  15.972   3.190  0.0661  0.0088 -0.2049
18013W        W34147   2.400   9.197   4.169  0.0943  0.1696  0.0391
18014W        W34148   1.644  10.822  13.710  0.1786 -0.1114 -0.0604
18015W        W34149  17.853  13.145  13.529  0.0245 -0.1489 -0.2795
18016W        W34150   8.763   6.560  16.378  0.0202  0.0435 -0.0887
18017W        W34151   9.791   1.521   1.114 -0.2356 -0.0506  0.1596
18018W        W34152  14.809   7.649  13.309 -0.0998  0.0126 -0.3674
18019W        W34153  15.393   7.145  12.269  0.2938  0.1265 -0.1481
18020W        W34154  13.143  10.102   1.563 -0.0860  0.0166 -0.2819
18021W        W34155  13.098  17.986   4.839  0.1229 -0.2382 -0.2086
18022W        W34156   1.307   1.312  13.733 -0.1123  0.0697  0.0431
18023W        W34157  16.078   5.893   4.007  0.0019 -0.0298 -0.1319
18024W        W34158  14.371   5.225  14.595 -0.0359 -0.2055 -0.3010
18025W        W34159  10.772   8.120   4.535  0.1895  0.1368  0.0542
18026W        W34160  14.865  10.192   1.040  0.0528 -0.1901  0.0815
18027W        W34161  17.299   2.676  11.152  0.1492  0.2379  0.0697
18028W        W34162   2.401  13.709  14.872  0.3917 -0.1332  0.1430
18029W        W34163  13.248   7.106   3.508  0.1296  0.2237 -0.0328
18030W        W34164   6.386   4.630  11.816  0.0566  0.0990  0.2402
18031W        W34165  13.339   2.355  14.497  0.0771 -0.0609 -0.2092
18032W        W34166   6.483  10.149  14.046 -0.0114  0.0038 -0.0203
18033W        W34167   1.967   6.553  13.539  0.2940 -0.0666 -0.3141
18034W        W34168   6.720   2.126   5.680 -0.1117 -0.1511  0.0478
18035W        W34169  14.144   2.664  15.496  0.0099 -0.0014  0.0937
18036W        W34170  17.090  16.214  15.315 -0.0178 -0.3709 -0.3703
18037W        W34171  14.689   7.599   2.387 -0.2391 -0.2202 -0.0626
18038W        W34172   9.396   0.352   1.757  0.1084  0.1037  0.2347
18039W        W34173   7.384  11.017  11.791  0.2487 -0.3451  0.0240
18040W        W34174  11.605   1.608   4.823 -0.0995 -0.0004 -0.0769
18041W        W34175   2.860  11.270  12.117  0.4100  0.2813  0.0654
18042W        W34176   9.699  14.096  13.828 -0.1724  0.2004 -0.0498
18043W        W34177   4.114   3.332   3.805 -0.1606 -0.0964 -0.0818
18044W        W34178   7.641  11.770  13.244  0.0164  0.0134 -0.1961
18045W        W34179   7.920   1.364   1.810 -0.1422  0.0473 -0.1485
18046W        W34180  17.615   0.086   1.632  0.1261  0.0270  0.4725
18047W        W34181  15.460   5.679  13.662 -0.0453 -0.2345 -0.1215
18048W        W34182  17.090  17.981   1.537  0.1424  0.1420  0.2402
18049W        W34183  14.126   7.871  14.550 -0.1145 -0.0769 -0.1543
18050W        W34184  10.394  14.315   1.467  0.1579  0.1225 -0.0335
18051W        W34185   2.438   1.884   1.364 -0.2850 -0.2096 -0.0204
18052W        W34186  13.625  11.421   3.348 -0.0593  0.0209 -0.2301
18053W        W34187  13.093   4.783  11.837  0.1580 -0.2110 -0.0469
18054W        W34188   5.412   3.570   1.762 -0.2272  0.1063 -0.0441
18055W        W34189   9.092  12.246   3.129 -0.1907  0.0214  0.3150
18056W        W34190   6.194   2.383  13.633  0.0052  0.4141 -0.0038
18057W        W34191  14.604  12.430  11.600  0.1931  0.1035  0.0034
18058W        W34192   7.327   9.728   5.394  0.1574  0.3886  0.2342
18059W        W34193   4.036  11.813   2.874 -0.1498 -0.0389 -0.0753
18060W        W34194   6.997   5.546  13.558 -0.0434  0.0128 -0.4586
18061W        W34195   7.263   5.398   3.339 -0.0442  0.1482 -0.0031
18062W        W34196   1.806   8.176  14.604 -0.1997 -0.2485  0.1555
18063W        W34197   1.433   8.527  14.700  0.0345  0.1801 -0.2056
18064W        W34198   4.831   9.599   2.375 -0.2369 -0.1022 -0.0194
18065W        W34199   7.592  11.269  13.227 -0.0137  0.0322 -0.0211
18066W        W34200   6.329   6.974  13.147  0.3375 -0.0892 -0.0212
18067W        W34201   2.797   1.272   4.911  0.3230 -0.4010 -0.1375
18068W        W34202   7.779   7.177   1.335 -0.3050  0.1498  0.0924
18069W        W34203   6.803  15.549   3.130  0.2488  0.1845  0.0524
18070W        W34204  17.538  10.975   0.547  0.1046  0.1059  0.1039
18071W        W34205   2.106  15.847   3.407  0.2755  0.1287  0.1128
18072W        W34206  13.265   0.037  12.244 -0.0939  0.1526  0.0066
18073W        W34207  13.290  10.786   1.706 -0.0200  0.0256 -0.4069
18074W        W34208   2.759  17.350  12.806  0.1919 -0.0262  0.1313
18075W        W34209  13.930  15.975   1.938 -0.0158 -0.1315 -0.1545
18076W        W34210   4.531  11.968  12.345 -0.2393 -0.0926 -0.1282
18077W        W34211  16.018   4.378  11.330 -0.1387 -0.1707  0.1549
18078W        W34212  14.190   0.890   1.360  0.1765  0.1828  0.0798
18079W        W34213   8.388  17.753   3.345  0.1398 -0.0953 -0.2115
18080W        W34214   0.875  16.644   3.548  0.1128 -0.1301 -0.0554
18081W        W34215   1.446   0.321  12.944 -0.1034 -0.0815 -0.0089
18082W        W34216   4.606   5.380   4.727  0.0376 -0.0976  0.2498
18083W        W34217   1.892   4.570  11.901 -0.1345 -0.1073  0.0108
18084W        W34218   8.808   2.860  15.311 -0.0745 -0.2099 -0.1588
18085W        W34219   3.802   3.204   1.925  0.1737  0.0220  0.3967
18086W        W34220   1.174   9.860   3.195  0.1407  0.2208 -0.0465
18087W        W34221  15.460   3.432  14.499  0.1098 -0.0518 -0.1064
18088W        W34222  17.299   9.928  11.945 -0.0666 -0.1482 -0.2630
18089W        W34223   5.044  17.955  14.534 -0.1191  0.0023  0.0452
18090W        W34224   1.813  15.433  14.589 -0.0710 -0.0392  0.2810
18091W        W34225  13.843   4.361   5.523  0.1009 -0.3630  0.0760
18092W        W34226   3.816  10.062  16.382  0.3184 -0.2032 -0.3582
18093W        W34227   2.464   8.658   2.232 -0.0491 -0.3411  0.0990
18094W        W34228  11.688   2.057   1.235 -0.0154  0.0095 -0.0128
18095W        W34229   6.442   4.064   0.902  0.0112  0.1760 -0.3100
18096W        W34230   6.250   7.816   2.970  0.1266 -0.0577 -0.0118
18097W        W34231   1.739   9.148   4.480 -0.0873  0.2287  0.1855
18098W        W34232   4.447  16.800  15.000  0.0792  0.1902 -0.2194
18099W        W34233   9.003   2.564   2.794 -0.1012  0.1322  0.3520
18100W        W34234  13.295  15.037   5.356  0.3922 -0.1892 -0.0621
18101W        W34235   7.298  12.607   4.294 -0.2271 -0.0941 -0.3799
18102W        W34236   9.927   0.007  12.218  0.3618  0.0327  0.1373
18103W        W34237  15.742  10.438  15.436 -0.2233  0.2855 -0.0852
18104W        W34238   4.405  13.569   3.219  0.3971 -0.0914 -0.1790
18105W        W34239   3.727  17.833   5.808  0.0209 -0.3004 -0.1201
18106W        W34240  17.734   9.796   1.434 -0.0240  0.2712 -0.0149
18107W        W34241   4.997   9.613   3.486 -0.2181 -0.2119 -0.2164
18108W        W34242  16.179   4.656  13.392  0.0728 -0.1377  0.1823
18109W        W34243   5.195   7.323  16.199 -0.2262 -0.1856 -0.1609
18110W        W34244   7.399  14.242   5.666  0.1176  0.3050  0.2352
18111W        W34245  14.206  16.601  11.149 -0.0409 -0.1067  0.5571
18112W        W34246  16.833  13.302   5.260  0.0830  0.0881  0.1739
18113W        W34247   5.411   5.771  11.247  0.2814  0.0836  0.4035
18114W        W34248   4.358  10.884   2.590  0.1981  0.0167  0.2175
18115W        W34249   1.391  13.510   0.370 -0.0363 -0.2558 -0.1916
18116W        W34250  10.666   4.199  11.950  0.2886  0.1550  0.2859
18117W        W34251  10.099  13.350  14.363 -0.0129  0.1266  0.0411
18118W        W34252   8.380   0.340   4.932  0.1034 -0.1289 -0.0828
18119W        W34253   3.541  13.445  13.506  0.0536  0.3317  0.1184
18120W        W34254   0.682  12.631  13.392  0.3810  0.1440  0.0165
18121W        W34255  12.919  14.622   0.787 -0.1378  0.1257 -0.2164
18122W        W34256   8.983  14.885   0.633  0.0282 -0.2043  0.2360
18123W        W34257   7.783   8.958   1.645  0.3912 -0.0023  0.3978
18124W        W34258   1.544  10.835  11.852  0.0552  0.1986 -0.3068
18125W        W34259   6.774   1.296  15.880 -0.0651 -0.0129  0.0296
18126W        W34260   2.515  13.256  14.272  0.0471 -0.1871 -0.0101
18127W        W34261  11.023  17.514  11.699 -0.2953  0.1334  0.1634
18128W        W34262   3.135  11.309   5.685 -0.1624 -0.1751 -0.0364
18129W        W34263  10.976   9.379   0.072 -0.2944 -0.2207 -0.1368
18130W        W34264   3.990   8.129  16.041  0.3052  0.3118  0.1766
18131W        W34265   1.789   9.728   2.125  0.0861  0.2846 -0.5020
18132W        W34266  17.180   0.319  14.546  0.0816 -0.0611  0.0788
18133W        W34267  16.259   6.173   0.510  0.0227  0.2582 -0.4301
18134W        W34268  14.388  17.178  11.863 -0.0389 -0.0321  0.2248
18135W        W34269   8.542   3.110  12.343 -0.1784 -0.1585  0.3399
18136W        W34270  14.210  14.205   3.135  0.2735  0.4569  0.2951
18137W        W34271   4.889  11.508   4.649 -0.0721  0.1260  0.2751
18138W        W34272   8.183   8.822  11.719 -0.2261 -0.3286 -0.0807
18139W        W34273   6.638  17.479  12.994 -0.0116 -0.0062  0.0474
18140W        W34274   4.826  13.428   1.071 -0.0091 -0.0959  0.1113
18141W        W34275  12.756   0.864  12.986  0.1903 -0.3226 -0.1065
18142W        W34276   1.042   4.728   3.756 -0.0214 -0.0049  0.3334
18143W        W34277  10.633   9.000  14.645 -0.1078  0.1109  0.0731
18144W        W34278  16.647   5.488  11.055  0.3527 -0.2318  0.2486
18145W        W34279   6.014  12.262  15.446 -0.0124 -0.0120 -0.2221
18146W        W34280  11.277  11.896   2.059  0.2038 -0.0913  0.0728
18147W        W34281  12.191  13.367  15.498 -0.2510  0.1278  0.0401
18148W        W34282   6.343   8.404   0.542 -0.0015  0.3243 -0.0124
18149W        W34283  10.247  13.777   4.426  0.1575  0.2327 -0.0745
18150W        W34284  15.673  12.467   2.332  0.0312 -0.0240 -0.3108
18151W        W34285  16.690   1.882  11.863 -0.1480 -0.1553 -0.1857
18152W        W34286   6.962   7.851   1.202 -0.0147 -0.0363  0.0307
18153W        W34287  11.237   2.733  15.159 -0.0606  0.1977 -0.0037
18154W        W34288  13.742  15.817   2.915 -0.1638 -0.3667 -0.0160
18155W        W34289   4.871  16.246   5.665 -0.1183  0.2126 -0.3779
18156W        W34290  13.690   6.836   5.024 -0.1428  0.0778 -0.2568
18157W        W34291   5.112   5.242  16.343 -0.0420 -0.1980 -0.1683
18158W        W34292   5.352  15.874   0.311 -0.0246  0.0727 -0.1444
18159W        W34293   7.590  17.851   2.469  0.0024 -0.0336  0.2797
18160W        W34294   1.546   7.967   3.178  0.0626 -0.1043 -0.3344
18161W        W34295   8.349  15.285   1.684 -0.2489 -0.0729 -0.3007
18162W        W34296  17.203  10.567  15.333  0.0173  0.0792 -0.2847
18163W        W34297  13.219  16.235   5.195 -0.5091  0.0634  0.0549
18164W        W34298   2.339   2.025   4.609 -0.0653  0.3148  0.3005
18165W        W34299   3.902  14.525   3.793 -0.1076  0.0542  0.1381
18166W        W34300  15.733   4.834  11.165  0.3847 -0.1607  0.0664
18167W        W34301  18.011   2.831   5.393 -0.0602  0.2841 -0.1374
18168W        W34302  13.492  11.368   0.185  0.1698  0.0595 -0.0732
18169W        W34303   3.606  16.570   2.610  0.0066 -0.3143 -0.2273
18170W        W34304  12.261  13.837   2.479  0.0855 -0.3821  0.0745
18171W        W34305   3.204  16.879   6.103 -0.0405 -0.3193 -0.0443
18172W        W34306   6.869  14.396   3.965  0.0077 -0.0813 -0.1438
18173W        W34307   6.664  15.724  11.866 -0.0221  0.2696 -0.0382
18174W        W34308   9.394  11.075  14.110 -0.0343  0.2298  0.1719
18175W        W34309  12.255  16.879   0.104 -0.0662  0.4238  0.2448
18176W        W34310   9.946  12.780   3.285 -0.2094 -0.1270 -0.0889
18177W        W34311  17.875  18.040  12.147  0.1421 -0.1274  0.1801
18178W        W34312  13.104   7.825   1.323 -0.0223 -0.1129 -0.1313
18179W        W34313   8.575   8.108  13.926  0.4034  0.0021 -0.1626
18180W        W34314  16.493   9.442  12.831  0.0336 -0.1594  0.0033
18181W        W34315  18.066   9.043   0.987  0.0555 -0.0099 -0.0632
18182W        W34316   1.701   5.842   5.858 -0.3530  0.1019 -0.1588
18183W        W34317   9.450   2.345   3.026  0.0992  0.0627  0.2647
18184W        W34318   5.641   7.356   1.825 -0.1700  0.0720  0.1698
18185W        W34319   2.319  16.355  11.943 -0.0072  0.0203  0.0947
18186W        W34320   1.433  15.175   0.960 -0.0127  0.0283 -0.0461
18187W        W34321  16.328  12.158  11.751  0.0104  0.1340  0.3073
18188W        W34322   8.873  14.593  15.808  0.1598 -0.0354  0.0858
18189W        W34323   6.417  11.596  13.058  0.0875  0.0933 -0.1793
18190W        W34324  11.426   4.525   5.092 -0.1113  0.1541 -0.0722
18191W        W34325   7.862   6.234  11.948 -0.0264  0.0401  0.0979
18192W        W34326   8.256  14.054  14.850  0.1578 -0.0139 -0.3548
18193W        W34327   7.482  14.972   2.981  0.2597 -0.0165  0.0549
18194W        W34328  11.986  12.630   1.865 -0.0188  0.0332 -0.2154
18195W        W34329  10.113  12.957  15.406 -0.1515 -0.0786  0.2662
18196W        W34330   1.371  16.081   3.116 -0.0586 -0.1988  0.3146
18197W        W34331   8.199   2.783   0.942 -0.0681  0.2930  0.0125
18198W        W34332  14.904  13.484   1.687  0.0563  0.2248  0.0715
18199W        W34333   0.256  14.772   3.679 -0.1108 -0.0508 -0.1432
18200W        W34334  13.466   2.259  14.980 -0.0056 -0.1329  0.2114
18201W        W34335   4.353   5.901   2.142 -0.0084 -0.2428  0.1048
18202W        W34336   6.266   4.986   3.470 -0.0651  0.4481  0.1688
18203W        W34337   1.422   5.489   9.752  0.0807  0.0024 -0.1163
18204W        W34338  14.801  10.568  13.517 -0.3020 -0.1611 -0.1055
18205W        W34339   7.259   4.651  15.375  0.1368 -0.0239 -0.2303
18206W        W34340   6.278  16.088   1.840 -0.1167 -0.0490 -0.0698
18207W        W34341  15.832   4.341  13.319  0.1512  0.1548  0.0850
18208W        W34342   9.866   8.859  16.117  0.2093 -0.1768  0.0392
18209W        W34343  15.718   1.575  15.244 -0.2514 -0.0625  0.2519
18210W        W34344   6.441  12.893   1.742  0.0778  0.3100  0.0708
18211W        W34345   3.987   7.327   5.717 -0.2394 -0.1551 -0.1033
18212W        W34346  13.936   5.231   4.451  0.0764 -0.1004  0.0455
18213W        W34347   6.492  13.479   0.455 -0.0125  0.2759 -0.1998
18214W        W34348   3.275  13.756  11.944 -0.2669  0.1770 -0.0244
18215W        W34349   5.310  14.345   2.827  0.0249 -0.2415 -0.1091
18216W        W34350   0.337   9.453   3.478 -0.1634 -0.3136  0.0027
18217W        W34351   3.907   5.998  14.720 -0.2225 -0.2203  0.0802
18218W        W34352   2.621   4.645   5.292 -0.1771  0.2125 -0.0286
18219W        W34353  15.238   2.184   2.476 -0.1374 -0.1183  0.0151
18220W        W34354   0.792   9.389   2.620 -0.2107 -0.5720 -0.1196
18221W        W34355   3.897   5.333   4.021 -0.0402 -0.1662  0.1467
18222W        W34356   1.318   0.811  12.692 -0.0850  0.0370 -0.1136
18223W        W34357  17.180  11.594   2.901  0.2710 -0.2071  0.0190
18224W        W34358  12.423   2.100  15.974  0.1022  0.0026 -0.0345
18225W        W34359  10.011   5.319  15.697  0.0071 -0.0315 -0.1104
18226W        W34360  10.177   8.433  15.981 -0.4361  0.2376  0.0840
18227W        W34361   5.711   5.360  15.962  0.1463  0.0251 -0.2021
18228W        W34362   7.484   4.103   2.844  0.3578  0.1062  0.2447
18229W        W34363   9.584  12.882   5.730 -0.1263 -0.0344  0.0189
18230W        W34364  17.464  15.974  11.523  0.0591  0.0170  0.2249
18231W        W34365   7.589  10.155   0.239  0.1349  0.0394  0.1794
18232W        W34366  16.550   8.124  13.260 -0.2530 -0.1541 -0.1794
18233W        W34367   3.030   6.135  10.511  0.0339  0.1266 -0.3004
18234W        W34368  16.015  11.881   0.328 -0.2254  0.1914  0.0238
18235W        W34369   5.374   5.877  14.414 -0.0113  0.0961  0.2478
18236W        W34370  15.428   4.456  11.309  0.0656  0.0957  0.0088
18237W        W34371   5.197   3.067   4.590  0.0578  0.0971  0.0903
18238W        W34372  13.061  12.066   6.006 -0.0815  0.1458  0.2169
18239W        W34373   5.596  17.872  14.520 -0.0507  0.0652 -0.0653
18240W        W34374  15.468  17.224  16.112  0.0273 -0.2409 -0.0891
18241W        W34375   5.506  10.790   5.756 -0.1898 -0.2395  0.3887
18242W        W34376   9.687   0.671  13.339  0.1677  0.0044 -0.1315
18243W        W34377   3.200   6.296   3.872 -0.2427  0.1214  0.1507
18244W        W34378  10.708  15.010  14.788  0.1945  0.1083  0.0613
18245W        W34379   8.417   5.190   0.703 -0.0862 -0.3470  0.0758
18246W        W34380   7.169   4.155  15.190 -0.1651 -0.0878 -0.0221
18247W        W34381  11.649  16.472  14.899  0.2253  0.0773 -0.4420
18248W        W34382  16.765   2.926   0.700 -0.2501  0.1694  0.0491
18249W        W34383  13.156   7.890  11.654  0.0774  0.2771  0.2914
18250W        W34384   0.921   5.135   4.444 -0.2827 -0.0510  0.2000
18251W        W34385   0.277   2.947  16.243  0.1603  0.2631 -0.2396
18252W        W34386   3.298  10.154  12.523  0.0590 -0.0180 -0.0401
18253W        W34387   8.685   8.701   2.989  0.0247 -0.1371  0.0344
18254W        W34388   4.211   3.671  11.698 -0.2795 -0.0589  0.1839
18255W        W34389   7.141   1.305   0.208 -0.2360  0.2768  0.1366
18256W        W34390   9.643   7.619   3.667  0.0501 -0.1794  0.0114
18257W        W34391  17.058   0.740   1.168  0.3391 -0.1761  0.0071
18258W        W34392   5.643   4.849  15.005  0.1853 -0.2498  0.0443
18259W        W34393  17.424   8.777  13.649  0.0712  0.0192  0.3066
18260W        W34394  13.110  10.189   0.347 -0.1034 -0.1124 -0.0226
18261W        W34395  15.972  17.986  14.175 -0.0161  0.3382  0.0724
18262W        W34396   8.041  18.004  15.760 -0.1439  0.1315  0.1586
18263W        W34397  14.337  14.123   3.862  0.2132 -0.1185 -0.0690
18264W        W34398  16.171   0.789  11.743  0.0374 -0.1187 -0.0379
18265W        W34399  16.049  15.870  14.492 -0.0326  0.1904 -0.1567
18266W        W34400  11.580  13.018  14.829 -0.2812  0.0752 -0.0058
18267W        W34401   5.158   5.424   5.850  0.0539  0.0963 -0.1988
18268W        W34402   4.676  16.780  12.247 -0.2654 -0.0355  0.0738
18269W        W34403  16.954  14.108  14.462 -0.1740 -0.0566  0.2910
18270W        W34404  17.978  11.500  11.954 -0.0493 -0.0778  0.2461
18271W        W34405  11.576  14.688  16.239 -0.1712  0.4325 -0.2611
18272W        W34406   1.388  13.554   4.909 -0.0431 -0.0804  0.0265
18273W        W34407  18.061   4.544   2.601 -0.0677 -0.2673  0.3758
18274W        W34408  17.000  17.077   3.044  0.0935 -0.0685  0.2848
18275W        W34409   0.551  11.411  10.787  0.0481 -0.0291 -0.0889
18276W        W34410  14.244  10.504  16.376  0.1321  0.0519 -0.0776
18277W        W34411   8.946   2.588  15.718  0.0798  0.4354 -0.0372
18278W        W34412   2.155   3.290  12.322 -0.0614  0.2360  0.0594
18279W        W34413  13.222   7.505  12.121 -0.0192  0.2616  0.0467
18280W        W34414   0.786  16.472   2.335 -0.1368 -0.1083  0.0588
18281W        W34415  16.705   7.431   5.207  0.2846 -0.1216  0.1126
18282W        W34416  13.356   8.778  11.728 -0.0460 -0.2346 -0.2484
18283W        W34417   9.493   6.805   0.227  0.0231  0.0212 -0.0041
18284W        W34418  15.759  17.898   3.792  0.0729  0.1950  0.0574
18285W        W34419   0.004  17.843   3.370 -0.1651  0.4189 -0.2041
18286W        W34420   4.353   4.968   1.535  0.0006 -0.1011 -0.0920
18287W        W34421  14.467   3.465  16.010  0.0134 -0.0039 -0.1328
18288W        W34422   6.117   7.476   5.703 -0.2681  0.1036 -0.0777
18289W        W34423   5.522   9.657  12.176 -0.2482  0.2780  0.2681
18290W        W34424   1.728  12.449   5.690  0.0676 -0.1217  0.1992
18291W        W34425  10.792  18.093   5.423 -0.0873  0.2104 -0.1748
18292W        W34426  11.164  12.185  16.003  0.1509 -0.2134 -0.1244
18293W        W34427  11.500  17.307   3.497  0.1718 -0.4619 -0.0233
18294W        W34428   6.275  11.573   5.998 -0.0076 -0.0706 -0.0985
18295W        W34429   1.342   2.152   1.322  0.0309 -0.2572 -0.2459
18296W        W34430  12.857   4.039   5.067 -0.2672 -0.0183  0.1650
18297W        W34431  16.669  16.615   0.507  0.2393  0.6215 -0.2460
18298W        W34432   9.097  11.119  13.689  0.0922 -0.1306  0.0808
18299W        W34433   3.981  12.655   5.718 -0.0564  0.2424  0.2970
18300W        W34434   1.983  11.378  12.496 -0.0074  0.4390 -0.1518
18301W        W34435   6.883   0.951  10.908 -0.5198 -0.1494  0.2572
18302W        W34436   9.328   0.138   1.159  0.1273  0.1515 -0.0993
18303W        W34437  12.182  15.127   2.051  0.2350 -0.3129 -0.1386
18304W        W34438   6.612   2.555   1.246  0.2386 -0.1225  0.1688
18305W        W34439  15.935   5.740  14.528  0.0218 -0.1093  0.0287
18306W        W34440  12.290  17.070  11.484  0.0497 -0.0134  0.1117
18307W        W34441  15.738   5.562   4.073 -0.2049  0.2137  0.3553
18308W        W34442   9.609   4.907  11.472  0.0473 -0.2038  0.0724
18309W        W34443   2.029  12.599   2.816 -0.3061  0.0586  0.0047
18310W        W34444  15.466   7.526   4.797  0.1212  0.1900  0.1835
18311W        W34445  16.847   4.478   1.090 -0.1718 -0.1436  0.1352
18312W        W34446  14.626   8.038   3.148 -0.1243  0.0544 -0.3907
18313W        W34447   4.501  15.132  14.277  0.0250  0.1854  0.1434
18314W        W34448  14.211   5.871   0.687  0.3027  0.1647  0.4935
18315W        W34449   7.781  14.722   3.373 -0.0498  0.1108  0.1369
18316W        W34450   0.577   3.074  14.302  0.0586  0.0901 -0.0847
18317W        W34451  12.877   4.934  10.787 -0.2413 -0.1380 -0.0236
18318W        W34452   9.941  15.376  13.086  0.0210  0.1787 -0.0635
18319W        W34453  11.434   8.320   2.067 -0.0540  0.1713  0.1414
18320W        W34454  14.846   3.836  13.797  0.2043  0.1112 -0.1048
18321W        W34455  13.963   5.039   3.694  0.0629 -0.1088 -0.2214
18322W        W34456   5.550   1.422   0.237 -0.0333  0.1412 -0.3662
18323W        W34457  10.371  12.389  11.721  0.1669 -0.0060 -0.2694
18324W        W34458   6.367   3.697  15.202 -0.2178 -0.1479 -0.1599
18325W        W34459  14.787  12.124  13.306 -0.2401  0.0531  0.1112
18326W        W34460  16.311   3.446   5.550  0.1586 -0.0830 -0.0039
18327W        W34461   1.989   3.262  14.044 -0.0830  0.1316 -0.1063
18328W        W34462  14.265   3.787  15.712  0.0420 -0.0123  0.0191
18329W        W34463   6.729   2.520   5.336 -0.0019 -0.2171 -0.5617
18330W        W34464   2.170   2.789  15.751 -0.0127 -0.1073  0.2795
18331W        W34465   9.316  10.507   2.780 -0.1453 -0.1514 -0.3701
18332W        W34466  12.780  10.964   1.967  0.4040  0.3861 -0.4087
18333W        W34467   2.906  13.584   6.175  0.2614 -0.5186 -0.0777
18334W        W34468  11.590  15.551   3.859  0.0200  0.0739 -0.0797
18335W        W34469  13.080  11.825  13.823 -0.1585  0.0107  0.0837
18336W        W34470   1.987   3.133  13.478 -0.0236  0.1205 -0.1970
18337W        W34471   1.513  14.036  14.959 -0.1164 -0.2400 -0.0454
18338W        W34472   6.885   9.347   3.661  0.2073 -0.1173 -0.0679
18339W        W34473   4.364  11.430   4.506 -0.0198 -0.2301 -0.0914
18340W        W34474  17.850  16.162  13.144  0.1136  0.1319  0.1022
18341W        W34475   0.953  13.690   2.515  0.0656  0.0320 -0.0230
18342W        W34476   7.882  11.538  16.214  0.3308  0.2363 -0.0467
18343W        W34477   9.130  14.506  14.246 -0.1302  0.1547  0.3244
18344W        W34478  17.812   6.017  14.546 -0.0650  0.2384 -0.0397
18345W        W34479   2.477  13.199  12.962 -0.2228 -0.1378 -0.0844
18346W        W34480   1.753  12.127  14.203 -0.0256  0.1031 -0.0607
18347W        W34481  14.228   9.632   4.026 -0.0969 -0.0393  0.1295
18348W        W34482  11.327  10.097   2.220 -0.2401 -0.0776 -0.0864
18349W        W34483  16.619   4.937  15.166  0.4779 -0.3011  0.3431
18350W        W34484   8.721   7.825   1.297 -0.0598 -0.2003 -0.2135
18351W        W34485   1.092   4.596   1.134 -0.3201 -0.0068 -0.1736
18352W        W34486   2.468  14.155  15.952 -0.3042 -0.1444 -0.0440
18353W        W34487   0.485   6.674  12.778 -0.0484 -0.1703  0.2732
18354W        W34488   0.303  11.202  12.952  0.0186  0.0651  0.2930
18355W        W34489   0.715  17.491  16.037 -0.1499 -0.1586  0.0988
18356W        W34490  15.959   6.419   4.572 -0.0974 -0.0555  0.1550
18357W        W34491   5.721   2.437  15.717  0.1304 -0.5458  0.0244
18358W        W34492  12.258   7.494  15.817  0.1086 -0.1042  0.2604
18359W        W34493  17.605  12.061   2.241  0.1191 -0.2326  0.1543
18360W        W34494   2.774  11.194  13.050 -0.1810 -0.2459  0.2324
18361W        W34495   5.047   0.569   3.622  0.2383 -0.1674 -0.2438
18362W        W34496   7.646   2.258  11.602 -0.2165  0.2238  0.2450
18363W        W34497   5.034   4.821   0.308  0.0849 -0.0211  0.1422
18364W        W34498   9.705   3.250  14.404  0.1047  0.0002 -0.2791
18365W        W34499   1.796  11.462   0.366 -0.1859 -0.3386  0.3429
18366W        W34500  10.682   4.234   4.537 -0.1441 -0.1121 -0.1358
18367W        W34501  10.322  14.094  11.092  0.0973 -0.0752  0.1516
18368W        W34502   5.240  15.155  12.740  0.0025 -0.0305 -0.0729
18369W        W34503   3.421   8.854   0.485  0.0303 -0.2181 -0.1425
18370W        W34504   5.110   1.081   1.878 -0.0421  0.1279  0.0052
18371W        W34505   7.816   5.404   3.265  0.3247 -0.0722 -0.5490
18372W        W34506   0.252   6.092  11.058 -0.0323  0.0731 -0.0854
18373W        W34507  13.555   1.847  13.338 -0.0760 -0.3035  0.1223
18374W        W34508  12.758  15.786   5.083 -0.3122 -0.1696  0.0989
18375W        W34509  13.422  15.227  11.997 -0.0418  0.2482  0.3988
18376W        W34510   5.040   4.269   0.188 -0.0169 -0.1730 -0.0852
18377W        W34511   2.382   1.177  16.162  0.1531 -0.1964  0.1052
18378W        W34512   1.774  15.748  15.967 -0.1269 -0.2779  0.0021
18379W        W34513  14.732   3.597   0.106  0.1416  0.1145 -0.3217
18380W        W34514  11.216  11.030  12.754 -0.0290 -0.1271  0.2568
18381W        W34515  10.203   3.177   0.255  0.1341  0.0248  0.0793
18382W        W34516   3.866  14.467   0.657  0.1679  0.0866 -0.1433
18383W        W34517  17.695  16.343   4.282 -0.1551  0.0309  0.1923
18384W        W34518  11.551  15.851   4.866  0.1012 -0.0633  0.1066
18385W        W34519   2.756  16.605   2.780 -0.2856 -0.2944 -0.1654
18386W        W34520  16.147  14.599   5.741  0.0650 -0.1068 -0.2212
18387W        W34521  15.091   9.795  15.675 -0.0537 -0.0793  0.1556
18388W        W34522   5.523  17.581   5.281  0.1312  0.0134 -0.0920
18389W        W34523  15.881   0.881   6.185  0.0752  0.0957  0.1495
18390W        W34524  14.071   6.835   4.058  0.1519 -0.2515 -0.1233
18391W        W34525   4.155   5.806  11.219 -0.1098 -0.2951  0.0153
18392W        W34526   1.625   9.724   3.717 -0.1080  0.0474 -0.0729
18393W        W34527   8.622   8.294  12.925 -0.0433  0.1534  0.1709
18394W        W34528  17.143   8.119   5.201  0.0989 -0.1500 -0.0519
18395W        W34529   5.862  13.638  14.217 -0.1652 -0.0089  0.0529
18396W        W34530  17.409   0.885   2.900 -0.1276  0.0609 -0.0205
18397W        W34531   3.135  16.129   2.141 -0.0002 -0.0399  0.1976
18398W        W34532  17.430  13.497   3.621 -0.2890 -0.0630  0.0255
18399W        W34533  11.687  17.593   4.313  0.3093  0.1046 -0.1329
18400W        W34534  12.574   2.200  15.439 -0.0652 -0.1100  0.1301
18401W        W34535   1.983  14.528   0.013 -0.2885 -0.1008 -0.1020
18402W        W34536   8.531  18.043  15.165 -0.0556 -0.0921 -0.2298
18403W        W34537  10.375   1.725  16.286  0.0593 -0.0979  0.0487
18404W        W34538  12.052  14.548   3.500  0.0809  0.0808  0.0525
18405W        W34539  14.751  17.539  11.921  0.0728 -0.1020 -0.1483
18406W        W34540  11.832  11.177   3.093  0.3808 -0.0805 -0.1843
18407W        W34541   1.258   5.476   0.718  0.0315  0.1792  0.3122
18408W        W34542   5.977   5.422   2.594  0.2669 -0.3032 -0.1663
18409W        W34543  12.146  17.120  15.423 -0.1096 -0.1393  0.0846
18410W        W34544  17.257   9.212  13.526  0.3763  0.1306 -0.0821
18411W        W34545   9.652   7.517  16.089 -0.0921  0.2529 -0.2716
18412W        W34546  11.583   5.667   0.954  0.2332 -0.1136 -0.2093
18413W        W34547  13.974  14.871   2.451 -0.1553 -0.0458  0.3918
18414W        W34548  16.861   4.207  11.211 -0.2044  0.0558  0.0353
18415W        W34549   5.149  17.489   6.432 -0.1651  0.1281  0.1216
18416W        W34550   6.498   3.609   4.570 -0.0229 -0.1230  0.2276
18417W        W34551  13.580   1.634  16.244  0.0591  0.1961  0.0081
18418W        W34552   7.963  16.474  15.142  0.0502  0.0242 -0.1296
18419W        W34553   8.317  12.628   4.721 -0.2108  0.0732 -0.0312
18420W        W34554   6.051  16.909   3.098 -0.0711  0.0755  0.1416
18421W        W34555  10.832   6.183   4.823 -0.2054  0.2690 -0.1920
18422W        W34556   1.529   7.298  11.282  0.0160  0.0045  0.1350
18423W        W34557   6.330   3.145  14.783  0.0182  0.0124  0.0643
18424W        W34558   7.433   8.215   3.350 -0.1852  0.0201  0.0122
18425W        W34559   0.383   9.602   0.536 -0.0481  0.0147  0.0529
18426W        W34560  17.178   7.492  11.675  0.1917  0.3507  0.0861
18427W        W34561   1.168   6.660   2.147 -0.0578  0.2105  0.0279
18428W        W34562  17.706   1.401   1.367 -0.1513 -0.0855 -0.1097
18429W        W34563   5.447   5.411  12.914  0.0196 -0.0957 -0.0674
18430W        W34564   7.484   2.302  14.243  0.1146  0.1143  0.0980
18431W        W34565   5.775  16.101   2.549  0.1741  0.3599 -0.4406
18432W        W34566   9.971  11.650  12.020 -0.1581 -0.0646  0.0006
18433W        W34567  12.552  13.189  11.779  0.1403 -0.0668  0.1087
18434W        W34568  13.387   7.891   2.621  0.1948  0.0810 -0.0435
18435W        W34569  12.560  11.238   1.028 -0.1839  0.0677  0.0868
18436W        W34570  17.906   1.863  15.521 -0.2266 -0.0312  0.0603
18437W        W34571  15.115  13.956  14.161 -0.0243  0.2032 -0.1012
18438W        W34572  14.680  15.209  12.210 -0.0234 -0.2216  0.1042
18439W        W34573  13.816  12.056  14.022 -0.2589  0.0647  0.2880
18440W        W34574   9.782   6.311   3.416  0.3290 -0.0012 -0.0429
18441W        W34575  11.085  10.622  13.317  0.0333 -0.1645 -0.1406
18442W        W34576   7.341  15.847   0.918 -0.1764 -0.0102  0.0722
18443W        W34577  16.366  12.048   3.516  0.0187  0.2267  0.0688
18444W        W34578   5.655  13.836  12.884 -0.0987  0.0682 -0.0813
18445W        W34579   6.621   6.416   3.046  0.0602 -0.0470 -0.0074
18446W        W34580   1.158   0.052   3.557 -0.2192  0.2052  0.1637
18447W        W34581   0.821   9.199  10.307 -0.0320  0.0405 -0.0751
18448W        W34582  11.484  10.555   5.372 -0.2944  0.2149  0.1771
18449W        W34583  10.556   3.379  14.645  0.4047  0.5697  0.0957
18450W        W34584  13.314  13.946  15.655 -0.1049  0.1781  0.0296
18451W        W34585   3.531  12.034  11.016 -0.3136  0.3136  0.0487
18452W        W34586  14.252  12.993  13.696  0.0055 -0.2330  0.1794
18453W        W34587   0.966   2.338  12.669 -0.1629  0.1104 -0.0497
18454W        W34588  15.396  13.451  15.021  0.2774 -0.0414 -0.1472
18455W        W34589   2.089  15.269   3.976  0.1417 -0.0939  0.0231
18456W        W34590   4.573   8.142   2.022  0.1070  0.1426 -0.0944
18457W        W34591  17.621   9.761   2.064 -0.0477  0.2371 -0.0858
18458W        W34592   7.853  11.764  11.845  0.2349 -0.0730  0.0640
18459W        W34593   2.941  15.770   2.968  0.3030  0.0343  0.0031
18460W        W34594  18.011   5.445  14.630  0.1410 -0.0036 -0.1148
18461W        W34595   7.797   3.737   3.717  0.3003 -0.1672 -0.2071
18462W        W34596  13.464   0.148   4.667  0.1874 -0.0269  0.0150
18463W        W34597   4.659   8.877  16.112 -0.0843  0.1031 -0.0245
18464W        W34598   4.073   0.533   0.130  0.1035  0.3458  0.0110
18465W        W34599   5.713   4.431  15.213 -0.0884  0.1946  0.0927
18466W        W34600   3.158  12.750  13.318 -0.0355  0.1585 -0.2484
18467W        W34601  11.370   6.266   2.101 -0.2916 -0.0996 -0.0539
18468W        W34602   3.218  11.318   3.288  0.1657  0.2925 -0.1495
18469W        W34603   2.304   8.183   5.486 -0.0298  0.0053  0.0850
18470W        W34604   0.182   4.213  15.815  0.4102  0.0741 -0.0489
18471W        W34605  17.231   0.354  12.110  0.0109 -0.1795  0.0791
18472W        W34606   6.324  12.299  13.418 -0.2589  0.2259  0.1987
18473W        W34607   6.680   6.312   1.588  0.1333 -0.3117  0.0235
18474W        W34608   5.937  16.416   2.991  0.0130  0.0865  0.1893
18475W        W34609  11.519   0.512   4.603 -0.0606 -0.0173  0.0251
18476W        W34610  18.041   6.728  15.211 -0.4800 -0.0074 -0.2997
18477W        W34611  16.948  16.468  16.118 -0.0359 -0.0240  0.1527
18478W        W34612   0.917  12.109  12.490  0.0686 -0.4688 -0.0907
18479W        W34613  11.742  13.177  13.595 -0.2442 -0.4058 -0.1247
18480W        W34614   9.244   4.865   0.173 -0.2497 -0.1171 -0.0084
18481W        W34615  14.082   4.792   5.261  0.1996  0.0777 -0.1782
18482W        W34616  16.246   9.091   0.280  0.1312  0.0940  0.0216
18483W        W34617  14.119  10.346   2.389  0.1569 -0.1321  0.2037
18484W        W34618   2.852   8.019   1.554 -0.0843 -0.0132  0.2100
18485W        W34619  10.167  15.392   1.962 -0.0790 -0.1781 -0.4913
18486W        W34620  12.850  17.474  12.631 -0.2324 -0.0578  0.1791
18487W        W34621   4.011  14.880   6.390 -0.2244  0.3048  0.0184
18488W        W34622   0.715   6.320   0.756 -0.3919 -0.0049  0.4700
18489W        W34623  16.589  13.557   5.624  0.0508 -0.1827  0.0909
18490W        W34624  10.277  17.169   2.124  0.0023  0.1885  0.1850
18491W        W34625   9.308  14.389  13.143 -0.1862 -0.0803  0.0968
18492W        W34626   1.532  16.582   5.997  0.0809  0.2161 -0.0268
18493W        W34627   5.040  10.124   3.488  0.1556 -0.0994 -0.0254
18494W        W34628   2.146  14.872  12.781 -0.0001  0.0232 -0.0815
18495W        W34629   1.324  16.659  10.412 -0.2277  0.3241  0.1520
18496W        W34630   7.878   4.555   4.056 -0.1914 -0.1545 -0.1689
18497W        W34631   0.111  10.611  12.002 -0.2358 -0.1653  0.1784
18498W        W34632  15.405   8.101   0.348  0.1450  0.0872 -0.0672
18499W        W34633  14.019  17.580  14.014 -0.2393 -0.0055 -0.1433
18500W        W34634   3.464   2.218  12.123  0.0684 -0.2886  0.1180
18501W        W34635   6.372  10.958   5.301 -0.1525 -0.0541  0.1273
18502W        W34636   9.681  10.789   5.032 -0.1001 -0.0553 -0.2007
18503W        W34637   5.069   5.842   0.060 -0.1170 -0.0256 -0.1776
18504W        W34638  14.630  18.001   3.092  0.0769 -0.2532 -0.0258
18505W        W34639   7.225  11.723  15.308  0.2957 -0.1826  0.0049
18506W        W34640  16.084  16.852   1.220  0.0259 -0.1360 -0.1596
18507W        W34641   3.288  11.011  14.155  0.2971 -0.0128 -0.3148
18508W        W34642  16.574  13.218   2.910 -0.0860  0.2617 -0.0819
18509W        W34643   6.961  12.435   1.390  0.0691 -0.0868 -0.0675
18510W        W34644   1.676   7.677  11.567  0.0322 -0.1683 -0.2748
18511W        W34645  15.972   9.403  12.528  0.0849 -0.3104 -0.0801
18512W        W34646  13.856   0.611  15.277  0.2334  0.2563 -0.0753
18513W        W34647  13.384  16.695   0.071 -0.1201  0.0881 -0.2019
18514W        W34648   9.902  13.557   0.664 -0.0051  0.0721 -0.0486
18515W        W34649   6.069  14.372   2.734  0.1983 -0.1161 -0.1104
18516W        W34650   3.158   3.408   2.056 -0.1663  0.0172  0.1466
18517W        W34651   3.829  11.971  14.940  0.5323  0.0964 -0.0650
18518W        W34652   0.140   0.753  16.209 -0.1949  0.2165 -0.6156
18519W        W34653   3.630   0.960   1.060 -0.0773 -0.0873 -0.3124
18520W        W34654   1.908  16.896   4.654  0.0968  0.2780  0.3394
18521W        W34655   4.751  12.948   0.869 -0.4301  0.2532 -0.0112
18522W        W34656   0.850  10.932   2.058 -0.3015 -0.3045 -0.0409
18523W        W34657   6.562   2.655   3.751  0.0094  0.2489 -0.1236
18524W        W34658  10.450   2.202  11.614  0.0935 -0.1378 -0.0063
18525W        W34659   3.011  16.918  12.523  0.2295 -0.0377 -0.2734
18526W        W34660   9.489   9.004   2.508  0.0704 -0.5296  0.0485
18527W        W34661   2.782   4.987   1.606  0.0628 -0.1417  0.0859
18528W        W34662  11.512   1.676  14.144  0.2106  0.0981  0.0681
18529W        W34663  11.896  12.719   0.986  0.0325 -0.0909 -0.1063
18530W        W34664  16.314   5.380  15.207 -0.1005  0.1478 -0.1201
18531W        W34665  13.901   5.191  15.826  0.0348  0.1090 -0.0668
18532W        W34666   9.117   0.333   0.171 -0.0332 -0.0044 -0.1081
18533W        W34667  14.299  14.164  14.293 -0.0273  0.1107  0.3001
18534W        W34668   4.859   2.617   5.892  0.0892 -0.1164  0.0777
18535W        W34669   3.031  11.093  15.433 -0.2062  0.2638  0.0381
18536W        W34670   9.568  11.962  14.660  0.0119  0.1170  0.5665
18537W        W34671   5.535   0.727   5.132 -0.0709 -0.1436 -0.1319
18538W        W34672   3.200  12.540  15.433  0.0853  0.0533 -0.1917
18539W        W34673   5.396   2.044   2.076 -0.0032  0.1005  0.0560
18540W        W34674   8.526  14.738   1.735 -0.2160  0.0966 -0.1604
18541W        W34675   5.882   9.398  12.497 -0.1363 -0.0978 -0.0030
18542W        W34676   7.500   7.268  12.756  0.1436 -0.1046  0.0299
18543W        W34677  17.300   2.644  12.050  0.0891 -0.1452 -0.1472
18544W        W34678  13.158   6.860  15.267  0.2771  0.1356  0.1834
18545W        W34679  10.622  16.854   4.593  0.0715  0.1859 -0.0730
18546W        W34680   3.682   7.144  13.768 -0.0971  0.0327  0.0389
18547W        W34681   9.633  16.745   3.188 -0.2676 -0.2222  0.4971
18548W        W34682  15.275   9.539  15.243 -0.0566 -0.0721  0.0603
18549W        W34683   0.921   6.587  16.215  0.1598 -0.0652 -0.0412
18550W        W34684  16.628   5.416   2.025 -0.2409  0.0297 -0.3223
18551W        W34685   8.226   7.434   1.540  0.1999 -0.1702  0.0726
18552W        W34686  16.833  10.716  12.436 -0.3384 -0.1694 -0.2011
18553W        W34687  16.967   4.082   4.024  0.1001  0.4166 -0.1776
18554W        W34688   1.382  17.250   5.324 -0.0386 -0.1414  0.1272
18555W        W34689  10.390  16.268   3.646 -0.0753  0.1035  0.1696
18556W        W34690   8.961   0.225   3.409  0.0104  0.1684  0.0375
18557W        W34691   4.375   6.802  12.536 -0.1590  0.0305 -0.0354
18558W        W34692  15.561  10.632   5.341  0.2723 -0.2668  0.2364
18559W        W34693   3.768  17.900   3.729  0.0589  0.1730  0.0768
18560W        W34694  10.275   4.809  15.451  0.0460 -0.1335 -0.0598
18561W        W34695   4.743   5.263   0.346 -0.1592  0.0061  0.1372
18562W        W34696  15.726  14.642  15.939  0.2631  0.1019  0.1136
18563W        W34697   7.120   0.664   2.281  0.1780 -0.0997  0.0255
18564W        W34698  16.655   1.157   5.463  0.0969 -0.3071 -0.1236
18565W        W34699   4.042   4.414   4.121 -0.2663 -0.3703 -0.1802
18566W        W34700   1.465   9.226   5.673  0.1865 -0.0121  0.2146
18567W        W34701  16.067  13.735  12.382  0.1287  0.1554  0.1003
18568W        W34702   8.012   0.998  15.537 -0.0665  0.1409  0.1856
18569W        W34703   0.740  11.472  15.760 -0.2161  0.3275 -0.0817
18570W        W34704  14.589  15.929   1.259 -0.0618  0.1257 -0.2652
18571W        W34705   4.117   0.046  13.619  0.0748  0.0189  0.0347
18572W        W34706  10.693  14.702   0.663  0.1043 -0.2018 -0.0811
18573W        W34707  16.867   0.485  11.306 -0.1403  0.0745  0.0204
18574W        W34708  15.096   7.308  15.794  0.1668  0.0144 -0.1015
18575W        W34709   3.301   4.811   1.480 -0.0409  0.1932 -0.2084
18576W        W34710   1.889   8.482   5.285  0.0447 -0.1033 -0.0893
18577W        W34711  17.859   3.020   4.876  0.1414 -0.0686  0.1054
18578W        W34712   1.925   0.919  15.861 -0.2818 -0.0848  0.5083
18579W        W34713   6.383  17.618   1.395  0.0485  0.2911  0.0430
18580W        W34714   4.222  14.752   0.508 -0.0606 -0.1169  0.1748
18581W        W34715   2.569   0.737  10.524  0.2118  0.2560  0.1499
18582W        W34716   0.742  13.145  14.116 -0.1686 -0.0596 -0.0637
18583W        W34717  14.266   0.930  13.802  0.1169 -0.1109  0.0494
18584W        W34718  14.995  11.788   4.261 -0.0629 -0.0109 -0.0015
18585W        W34719   6.788   3.458  10.131 -0.1847 -0.1346  0.0074
18586W        W34720  15.160   6.674  13.820  0.0907 -0.2131 -0.2909
18587W        W34721  16.286   0.618   2.993 -0.2232  0.0910  0.0175
18588W        W34722  14.447  13.596   2.163 -0.1441  0.0210 -0.2235
18589W        W34723   3.232  16.213  11.411 -0.1003 -0.3561 -0.1957
18590W        W34724  16.756   1.335  13.182  0.4659  0.0400 -0.0625
18591W        W34725  16.568   9.279  14.058 -0.2524  0.0782 -0.0082
18592W        W34726   7.430  14.960  12.696  0.0601 -0.1476  0.0022
18593W        W34727   0.187   7.594  16.369 -0.1639 -0.2564 -0.0815
18594W        W34728   7.716   1.307  15.737 -0.0254 -0.2442 -0.0479
18595W        W34729  16.150   5.350   4.789 -0.0929  0.3122  0.1163
18596W        W34730   2.612   7.556  12.835 -0.1036 -0.0302 -0.2565
18597W        W34731   2.158   6.777   2.508 -0.1570 -0.1626  0.1396
18598W        W34732  11.700  17.629   1.011 -0.1114  0.1733 -0.0252
18599W        W34733  14.485  16.572  14.792 -0.1111  0.1984  0.2055
18600W        W34734   6.389  16.457   2.179  0.1516  0.0763  0.3087
18601W        W34735   3.193  16.468   4.711 -0.0751  0.1992 -0.1699
18602W        W34736  12.499   6.161   0.698 -0.4692  0.3596 -0.0665
18603W        W34737  16.461   1.486  14.127  0.0981 -0.1222  0.2726
18604W        W34738   9.142   4.380  12.261 -0.0711  0.2750 -0.0595
18605W        W34739   1.778  14.947   1.804  0.4528  0.0162  0.0333
18606W        W34740   7.432  14.283   0.074 -0.2600 -0.1291 -0.0458
18607W        W34741   8.142   8.686  15.135  0.1126 -0.2559 -0.0592
18608W        W34742   2.904   8.384  12.684  0.2290  0.0769 -0.0120
18609W        W34743   1.738   5.831  13.751 -0.0240  0.0358  0.1298
18610W        W34744  15.562   3.562  10.796  0.0320  0.2266  0.0539
18611W        W34745  13.688   8.926  15.034 -0.0826  0.1130  0.0804
18612W        W34746  13.966  14.566   5.274  0.4161  0.4697 -0.0987
18613W        W34747   5.265   4.713  14.515 -0.0087 -0.1450 -0.2656
18614W        W34748  17.747   5.795   0.173  0.1021  0.0829 -0.1735
18615W        W34749   8.220   7.606   4.197 -0.0040 -0.2020 -0.0287
18616W        W34750  14.646  17.385   1.101 -0.0399  0.1994 -0.2982
18617W        W34751   9.385  14.248   5.225 -0.0721  0.2755  0.2411
18618W        W34752  10.333   7.673   0.311 -0.1150 -0.0396  0.0180
18619W        W34753   3.728   1.831  13.501 -0.0967  0.2133 -0.0226
18620W        W34754   1.717  14.842  12.984  0.2221 -0.0341 -0.1749
18621W        W34755  10.436   9.921  14.195  0.0604  0.0326 -0.2179
18622W        W34756  12.005  16.701  15.287  0.0127 -0.0013  0.0869
18623W        W34757  10.904   9.772   3.452  0.0551  0.1618  0.1747
18624W        W34758   0.937   2.569  13.556 -0.1904 -0.1882  0.1083
18625W        W34759   6.494   1.578   3.615 -0.3040 -0.3628  0.0693
18626W        W34760  12.276   9.697   2.110 -0.4273 -0.1832 -0.2151
18627W        W34761  10.031   2.471  15.897 -0.1357 -0.2521  0.3822
18628W        W34762   5.754  11.426   1.518  0.0490 -0.3513  0.2132
18629W        W34763  14.701   8.721  11.369 -0.1548 -0.0374  0.0899
18630W        W34764   8.541   6.104  10.597 -0.0854 -0.1308 -0.0142
18631W        W34765   9.636  11.455  13.731  0.0323 -0.1076  0.1197
18632W        W34766   6.641  12.093   1.016 -0.0591 -0.4593 -0.1908
18633W        W34767  13.745  12.227  13.035  0.2792  0.0422  0.0492
18634W        W34768  16.970  14.837   4.074 -0.1508 -0.0544 -0.1097
18635W        W34769   3.630   6.989   2.600 -0.1039  0.3506 -0.1182
18636W        W34770  14.726   7.048  15.961  0.0866  0.2699  0.1984
18637W        W34771  12.310  11.600  10.893  0.0345  0.0848  0.0430
18638W        W34772  10.027   7.691   0.744  0.0478  0.3796 -0.2241
18639W        W34773  13.344   1.579   5.467 -0.0652  0.3760 -0.0795
18640W        W34774   4.472  11.615   6.115 -0.1416 -0.0173 -0.0965
18641W        W34775  11.026   7.029   5.640  0.0633  0.1764  0.3333
18642W        W34776  16.568  12.701   2.009  0.0451 -0.1254 -0.2497
18643W        W34777  11.256  10.933   1.617 -0.0559  0.3352  0.0597
18644W        W34778   0.388  16.624   3.405 -0.0179 -0.1162  0.0903
18645W        W34779  13.906  12.371   2.884 -0.0575  0.2211  0.1963
18646W        W34780   7.454  16.555  15.883 -0.0229  0.2076  0.3285
18647W        W34781  16.398   3.086   2.237 -0.0120  0.0766  0.1356
18648W        W34782   3.556  11.797   1.932  0.3266 -0.2030  0.0131
18649W        W34783   6.479   5.555   2.713  0.1742  0.0784  0.4356
18650W        W34784  12.702   7.906   4.411 -0.1791  0.0313 -0.0341
18651W        W34785   7.531   2.085   5.381  0.1968  0.0292 -0.0453
18652W        W34786  12.097   9.794   0.106  0.0433 -0.0193  0.1282
18653W        W34787   4.978   3.233   0.061 -0.0116 -0.1468  0.1124
18654W        W34788   4.329  12.835  13.375  0.1694 -0.0798 -0.2384
18655W        W34789  15.887   8.790   1.441 -0.2364 -0.1918  0.2440
18656W        W34790  13.192  15.240   4.206  0.2033  0.3526 -0.0596
18657W        W34791  17.669   9.154  15.446 -0.2893 -0.3576  0.0740
18658W        W34792   6.441   9.740  11.630 -0.3145 -0.0470 -0.2946
18659W        W34793  13.958   6.579  14.722  0.0401  0.2863  0.0379
18660W        W34794   8.253   0.122  11.234 -0.1035  0.0221  0.2731
18661W        W34795   7.664   3.708  11.186 -0.3903  0.0602  0.0869
18662W        W34796  12.189   9.894   0.653  0.1810  0.1603 -0.2017
18663W        W34797  14.388   6.000   2.546 -0.1933  0.0842 -0.1015
18664W        W34798   1.148  15.021   2.385 -0.0248  0.1148 -0.0664
18665W        W34799   4.427   6.072  11.609  0.0189  0.0109  0.0931
18666W        W34800   8.568  10.721   1.003 -0.1765 -0.3335 -0.0265
18667W        W34801  16.432   3.786   1.056  0.2317  0.2453  0.0636
18668W        W34802   0.611   7.344   0.752 -0.1397  0.2082  0.1138
18669W        W34803   5.832   8.420   1.409  0.3960  0.0406 -0.2686
18670W        W34804  11.660   8.945   2.638 -0.0451  0.0044  0.3432
18671W        W34805   6.110   2.284   1.021 -0.1682 -0.0558 -0.0792
18672W        W34806   0.260   6.803   3.785  0.1717  0.3323 -0.1396
18673W        W34807   7.121   7.703  13.931  0.1755 -0.0549  0.1343
18674W        W34808   0.518  14.337   2.745  0.0912 -0.1124 -0.0800
18675W        W34809   8.929  17.703  14.143  0.3132  0.1246  0.0457
18676W        W34810  12.086  11.967  13.865  0.0851  0.2779 -0.1203
18677W        W34811   2.344   5.376   3.144  0.1158 -0.0482  0.0473
18678W        W34812   4.019   6.053   4.763  0.2668  0.1277 -0.0356
18679W        W34813   4.750  10.966   1.727  0.2016 -0.0685  0.2265
18680W        W34814  11.325  10.332   0.015 -0.0648  0.0532 -0.0817
18681W        W34815  11.910   3.231  15.266 -0.2518 -0.1564  0.2396
18682W        W34816   5.389   0.876  12.607 -0.1602  0.0278 -0.2147
18683W        W34817   2.167  16.197   1.090 -0.0037  0.0286 -0.1631
18684W        W34818  11.317  14.119  13.840 -0.1251  0.2016  0.2017
18685W        W34819   2.290   6.566  14.001  0.0704 -0.0599 -0.0806
18686W        W34820  11.846  17.776   1.860  0.0981  0.2972 -0.1859
18687W        W34821  16.111  18.036   1.655 -0.1465 -0.1342  0.0060
18688W        W34822   7.666  15.993   3.039  0.0926 -0.0110  0.2305
18689W        W34823   3.617   9.417  13.854 -0.1030  0.0850 -0.0901
18690W        W34824  11.274   6.838  12.024  0.2210  0.2956 -0.1042
18691W        W34825   9.367   9.188  15.334 -0.1699  0.1950  0.0082
18692W        W34826   9.601  13.900  12.347  0.1429  0.1038  0.0351
18693W        W34827   0.787   7.613  11.943  0.2032 -0.0553  0.3024
18694W        W34828   7.595  12.010  11.508  0.3164  0.1384 -0.3744
18695W        W34829   5.987   9.347   4.840 -0.0663  0.0635 -0.3169
18696W        W34830  13.741   5.965  13.812 -0.2194  0.2777  0.1219
18697W        W34831   0.420  16.466   5.262  0.3327  0.0672  0.0884
18698W        W34832   8.880   2.006   0.965 -0.1306 -0.1848 -0.0203
18699W        W34833   6.738  14.363   4.865 -0.0235 -0.0457  0.1904
18700W        W34834   9.039  12.017   1.303 -0.0291 -0.0331 -0.0294
18701W        W34835   8.233  15.839   5.481  0.0054 -0.1026  0.1690
18702W        W34836  17.543  10.928  11.334  0.1921  0.0880 -0.1360
18703W        W34837  11.254  10.218  14.628  0.3449 -0.1456  0.2967
18704W        W34838   0.567   8.426  16.071  0.0067 -0.2187  0.0146
18705W        W34839   7.165   7.628  14.618  0.2966 -0.0908 -0.0288
18706W        W34840  15.163   6.027  13.456  0.0018  0.2696 -0.2377
18707W        W34841  16.848  15.274   3.821  0.0592  0.2530 -0.1339
18708W        W34842  16.403  12.887  14.379 -0.2876 -0.1790 -0.0369
18709W        W34843  16.451  11.098   5.828 -0.0271  0.1125  0.0441
18710W        W34844  12.174  14.987   3.812  0.2683 -0.2025  0.2422
18711W        W34845   5.759  10.338  13.713 -0.0258 -0.1692 -0.0903
18712W        W34846   2.846   7.617  15.872  0.0026 -0.0054 -0.1049
18713W        W34847   9.243  14.915   3.519  0.3133 -0.1242  0.1886
18714W        W34848  14.743  12.996  14.329 -0.0982 -0.0508 -0.4065
18715W        W34849  10.726  11.591  13.037  0.1780 -0.1252 -0.1647
18716W        W34850   9.307  13.980  13.501 -0.1577  0.1534 -0.1335
18717W        W34851   8.820  11.329   6.452 -0.2411  0.1941  0.0921
18718W        W34852  14.047  12.746   4.544  0.1362 -0.0549 -0.1229
18719W        W34853  14.631  11.751  15.184 -0.0445  0.4575 -0.1139
18720W        W34854   1.014  13.700   0.112  0.0734  0.0204  0.0296
18721W        W34855  14.605   7.619   5.343  0.0498 -0.2274 -0.4011
18722W        W34856   0.861  13.019  13.635 -0.2153 -0.0216  0.3084
18723W        W34857  10.869  15.740   3.435  0.3876  0.0147 -0.1430
18724W        W34858   4.843  17.228  14.458 -0.0125  0.3225 -0.1097
18725W        W34859   4.739  15.380  11.893 -0.2064  0.1895 -0.2784
18726W        W34860  15.889  14.439  11.564  0.0284 -0.0073 -0.4420
18727W        W34861   8.872   7.190  13.605  0.2072  0.2520 -0.0713
18728W        W34862   8.173  10.152  11.365  0.1841  0.0536 -0.0440
18729W        W34863  13.552  17.027   0.495  0.1057 -0.1410  0.1146
18730W        W34864  12.865   4.909  11.315 -0.1930  0.2938  0.1078
18731W        W34865   4.824   7.875  15.329 -0.1841 -0.1278 -0.0179
18732W        W34866  18.075   2.722  13.766  0.1198 -0.3114 -0.3270
18733W        W34867   8.732  15.623  11.220  0.1050 -0.0439 -0.1814
18734W        W34868  12.058  17.705   0.669  0.0659  0.0827 -0.1594
18735W        W34869   8.543   0.504  14.494  0.0347  0.5353  0.2990
18736W        W34870   1.401   1.071   0.086  0.0923  0.1339 -0.0451
18737W        W34871  10.740  17.148   2.391 -0.1202 -0.0320  0.1444
18738W        W34872  17.644   3.666   5.476 -0.1163 -0.0585 -0.2393
18739W        W34873   4.384   2.800  15.480  0.1280 -0.0523  0.2061
18740W        W34874   1.746   1.053   5.443  0.1964 -0.0364  0.1220
18741W        W34875   6.947  11.584   0.824 -0.3413  0.0422  0.1647
18742W        W34876  12.250  16.573   4.835  0.1161 -0.1076 -0.1052
18743W        W34877   8.657  10.805   2.123 -0.0478 -0.1415  0.0756
18744W        W34878   1.470   5.310  11.834  0.1637 -0.2183 -0.0275
18745W        W34879  10.559  11.188   4.159 -0.4165 -0.0873  0.3155
18746W        W34880  13.800  13.902  13.125  0.0036  0.2179  0.0576
18747W        W34881  11.448   1.171  13.960  0.0242  0.0575 -0.0237
18748W        W34882   8.442   6.494   1.082 -0.2213  0.0806 -0.2415
18749W        W34883  16.863   7.035   4.067  0.1691  0.2671 -0.0280
18750W        W34884   7.415  11.932   5.310  0.1105  0.1769  0.2905
18751W        W34885   2.281  12.835  11.142 -0.0682  0.0317  0.0140
18752W        W34886  14.995   8.190  14.952 -0.2182  0.2315  0.1934
18753W        W34887   1.737   4.397  13.597 -0.1459  0.1580  0.2849
18754W        W34888  15.686   5.972   4.392 -0.0616 -0.1094  0.3073
18755W        W34889  11.698  10.663  13.816  0.0488  0.1828 -0.0716
18756W        W34890  11.792  10.160   1.186 -0.2356  0.0776 -0.4909
18757W        W34891   8.240   9.455  13.470  0.0727  0.3325 -0.2348
18758W        W34892  16.749   1.494   2.632  0.0694 -0.2486 -0.1889
18759W        W34893  12.448  16.633   1.553 -0.0963  0.0849 -0.0253
18760W        W34894  13.601   6.754   4.138 -0.0084 -0.1845  0.0886
18761W        W34895  10.016  11.746   4.513  0.0171 -0.0205  0.0911
18762W        W34896   1.379  13.817   2.324 -0.0272  0.1549 -0.0218
18763W        W34897  15.921   8.213   2.587  0.2317  0.1163  0.0560
18764W        W34898  14.871  14.795  16.145  0.2314 -0.1557 -0.0235
18765W        W34899  15.305   2.747  12.769 -0.3420  0.2348 -0.0750
18766W        W34900   8.971   8.768  15.981  0.1547  0.1091  0.1613
18767W        W34901   9.841  16.545  16.314  0.1940 -0.2445 -0.2197
18768W        W34902   0.522   6.810   0.023 -0.3558 -0.0541  0.0282
18769W        W34903   0.136  11.737   4.928 -0.1460  0.0105 -0.0062
18770W        W34904   9.732   6.311  14.140  0.0509  0.0146  0.0076
18771W        W34905  16.467   3.917  12.033  0.1253  0.0285 -0.2003
18772W        W34906   1.245  10.378  11.924  0.0059  0.0465 -0.4546
18773W        W34907  17.499   3.333  13.938  0.1233 -0.2593 -0.0428
18774W        W34908  12.522  15.765   1.413 -0.2806  0.2573 -0.0714
18775W        W34909   2.689   1.947   5.582  0.0060  0.0923 -0.0387
18776W        W34910   8.183  10.789   1.947  0.1235  0.0729 -0.1701
18777W        W34911  10.400  17.956   1.708  0.0416 -0.0901  0.2349
18778W        W34912  12.926  11.971   4.075  0.2314  0.1190 -0.0971
18779W        W34913  17.733   5.846   3.538  0.0388 -0.2001  0.1980
18780W        W34914   0.982  14.876   5.252 -0.1643  0.0251 -0.0144
18781W        W34915  17.323   4.456   2.078 -0.1135 -0.2207 -0.1217
18782W        W34916  10.964   5.708   0.149  0.0868 -0.0687 -0.0198
18783W        W34917  15.172   4.975   1.505 -0.2265 -0.2048  0.1874
18784W        W34918   5.218   6.750  14.868 -0.1329  0.2784 -0.0249
18785W        W34919  17.419   0.133   0.038 -0.0523  0.0344 -0.2154
18786W        W34920   9.524   2.730  13.629  0.0471 -0.2399  0.0118
18787W        W34921  14.053  16.466   5.705 -0.1190  0.0489  0.1522
18788W        W34922   9.159  14.541   3.101 -0.2505 -0.0776  0.1528
18789W        W34923   5.964   8.696  12.935  0.0070 -0.0574 -0.0753
18790W        W34924   0.921  16.249  15.664 -0.0016 -0.1469 -0.0050
18791W        W34925  16.942  15.704   5.599  0.1363  0.2164  0.1456
18792W        W34926  10.466   2.217  14.343  0.0195  0.0523  0.1422
18793W        W34927  15.394  11.785   3.432 -0.2290 -0.1281  0.0234
18794W        W34928   7.926   4.045  16.390 -0.0831  0.1146 -0.0031
18795W        W34929   8.462   5.981  14.564  0.0209 -0.0939  0.1491
18796W        W34930  10.419   8.323  15.092 -0.2627 -0.0577  0.1870
18797W        W34931  14.101   7.511   2.217  0.0281 -0.2370 -0.2294
18798W        W34932   4.400  12.192  15.865 -0.0084 -0.4667  0.0343
18799W        W34933  15.297   7.077  14.638 -0.1175 -0.1264 -0.2072
18800W        W34934   1.667   6.626  15.201  0.3819 -0.1651  0.1435
18801W        W34935  16.806  14.316   5.242 -0.1555 -0.0196 -0.3553
18802W        W34936   7.124  11.310  12.607  0.0446 -0.0832  0.1258
18803W        W34937  10.977  17.149   5.520  0.0163  0.1384  0.1534
18804W        W34938  13.587   4.089  11.298  0.0280  0.1348 -0.0736
18805W        W34939   5.679   2.007   2.500  0.0522 -0.1807  0.0039
18806W        W34940   0.374  12.336   2.903  0.1885 -0.0556 -0.1842
18807W        W34941   0.599   8.060   0.474 -0.0907  0.2046 -0.3209
18808W        W34942   3.256   1.817   4.131 -0.1759 -0.1695 -0.2985
18809W        W34943  10.135   5.400  11.990  0.2006  0.1644  0.0383
18810W        W34944  15.659  10.101  15.024  0.2152 -0.1109 -0.0358
18811W        W34945  10.963   3.455  12.238 -0.0195  0.2601  0.1013
18812W        W34946   2.507   9.499  15.462  0.0675 -0.1547  0.0651
18813W        W34947   9.390   4.003   2.408  0.1171 -0.2141 -0.0886
18814W        W34948   3.933  16.571  16.134 -0.1372  0.0711  0.0214
18815W        W34949   8.545  16.696  15.799  0.2123 -0.2205 -0.0532
18816W        W34950  11.365   0.789  15.154  0.2018 -0.1366 -0.3137
18817W        W34951  15.573  17.904   2.864 -0.0386 -0.0368 -0.2997
18818W        W34952  15.680   8.240   3.086  0.1415 -0.0213  0.1750
18819W        W34953  11.104   3.299   4.531  0.0380  0.1714 -0.0126
18820W        W34954   0.931   2.334  15.972  0.3608 -0.2820  0.1316
18821W        W34955  10.735  14.362  13.200  0.1159 -0.2244 -0.0382
18822W        W34956  14.178  10.200  15.971 -0.0462 -0.1456 -0.2458
18823W        W34957  14.954   0.465   1.874 -0.2354 -0.2069 -0.0564
18824W        W34958  17.058  17.552   2.887 -0.1075  0.0162  0.0185
18825W        W34959  17.998   0.283  16.106  0.2730  0.4201  0.1139
18826W        W34960   0.147   7.223   5.285 -0.1648  0.2177  0.1403
18827W        W34961  10.277  16.200   1.526  0.0531  0.0390 -0.2021
18828W        W34962  17.674   0.224   0.860 -0.0009 -0.0679  0.2176
18829W        W34963  14.571   7.372  14.039 -0.3324  0.0624 -0.1468
18830W        W34964  13.238   1.426   4.123  0.1347 -0.1868  0.0544
18831W        W34965  17.222   7.806   1.994 -0.2641 -0.1383 -0.5411
18832W        W34966   4.419   0.581   4.934 -0.1620  0.2084  0.0093
18833W        W34967   8.850   9.113   4.821 -0.0665 -0.0387  0.0243
18834W        W34968   2.724  10.421  13.605 -0.1586  0.1145 -0.0576
18835W        W34969  10.497   9.934   5.344 -0.0000  0.0397  0.0446
18836W        W34970  14.842   5.521  11.680 -0.2640  0.0978  0.1132
18837W        W34971   7.427   4.448   1.918  0.1450 -0.1112 -0.2590
18838W        W34972   6.543   7.548   3.918 -0.1350  0.0696  0.1341
18839W        W34973   8.005  13.764  12.015  0.1390 -0.2115 -0.1903
18840W        W34974   9.876  10.426   4.241 -0.1030 -0.0915  0.3096
18841W        W34975   2.798   6.819  11.092  0.0856  0.1051 -0.0307
18842W        W34976  16.074   6.130   3.255  0.1903  0.2311 -0.3528
18843W        W34977   3.967   2.876  13.302 -0.2325 -0.0632  0.4411
18844W        W34978  15.924   3.253  13.376 -0.3095 -0.3316  0.1029
18845W        W34979  13.606   2.291  12.476  0.0604  0.1951  0.2882
18846W        W34980  13.131  16.185  15.665  0.1311 -0.0112 -0.2981
18847W        W34981   7.690   5.353  12.241 -0.1536 -0.2375  0.5431
18848W        W34982  11.925   9.831   5.171  0.1292 -0.1769 -0.2853
18849W        W34983   2.877  15.528   3.775 -0.2744 -0.0222  0.2601
18850W        W34984  10.494  10.977  11.783 -0.0913  0.1573  0.2395
18851W        W34985   0.079  16.385  12.175 -0.2673 -0.2398 -0.2053
18852W        W34986  15.770  16.583  15.959 -0.0854  0.2034 -0.2246
18853W        W34987   2.550   6.858  15.167  0.0142  0.4171  0.1124
18854W        W34988  15.507  12.144  15.404 -0.0928 -0.0491 -0.0062
18855W        W34989   3.300   3.185   4.214 -0.3192 -0.0001  0.2023
18856W        W34990  14.273   1.585   0.946  0.1330  0.2165  0.1180
18857W        W34991   5.704   2.137   3.982  0.3174 -0.0685 -0.1519
18858W        W34992  14.324   1.974  11.485 -0.0791 -0.1393 -0.0452
18859W        W34993   1.040  14.623  16.393  0.1167  0.0827 -0.0554
18860W        W34994  15.915   2.124  16.135  0.1877 -0.1298  0.1920
18861W        W34995   4.384  16.073   0.348  0.1733 -0.2070  0.0104
18862W        W34996   0.116   7.938  15.218  0.1673  0.1700  0.0112
18863W        W34997  13.636  17.920   1.254  0.1211 -0.0192  0.3386
18864W        W34998   2.523   7.262  11.809 -0.0899 -0.0972  0.1782
18865W        W34999   8.645   7.712  13.655 -0.1932  0.0858  0.0839
18866W        W35000   6.246  13.689   5.036 -0.0382 -0.1762 -0.1669
18867W        W35001   6.134   8.859   4.976  0.0380  0.1600  0.2638
18868W        W35002  10.173  10.063   3.695 -0.3035 -0.2019  0.2634
18869W        W35003   4.183  12.708   4.246  0.1946  0.0039 -0.1104
18870W        W35004   5.149  15.344   5.130 -0.1290 -0.1801 -0.3105
18871W        W35005   8.427   7.867  15.646 -0.1803 -0.2433  0.0074
18872W        W35006  16.492   7.306  16.406  0.0407  0.2232 -0.2319
18873W        W35007  12.794   7.231  12.099 -0.0045 -0.4214 -0.1212
18874W        W35008   3.201  11.782  13.431 -0.0626  0.3825 -0.0788
18875W        W35009  16.744   6.172   0.438 -0.0871  0.3842  0.2153
18876W        W35010  13.855   4.339  14.591  0.2000  0.1184  0.1945
18877W        W35011   8.660   2.038  13.843 -0.0369 -0.2025  0.3518
18878W        W35012   0.030  10.028   0.673  0.1442 -0.0075 -0.2714
18879W        W35013   8.127   5.731   3.361 -0.2347 -0.0608 -0.2812
18880W        W35014  15.831  15.840   2.591 -0.0375 -0.0849 -0.0851
18881W        W35015   1.911   2.547  15.415  0.3069  0.1242  0.1804
18882W        W35016   2.981  12.030   0.266 -0.0906 -0.0504  0.0690
18883W        W35017   1.818   3.337   2.743 -0.0097 -0.2447  0.1980
18884W        W35018   6.812  12.678   4.472 -0.3184 -0.3310 -0.1291
18885W        W35019   7.227  15.650   1.860  0.1803  0.0167 -0.2115
18886W        W35020   1.540  17.888  11.536 -0.1064  0.0009 -0.1418
18887W        W35021  11.076   4.749  13.983 -0.0758 -0.1348 -0.0727
18888W        W35022   1.610  14.835   5.375  0.0785 -0.3347 -0.2555
18889W        W35023  10.275   8.152  11.258  0.0560  0.1164  0.0790
18890W        W35024   5.817  11.341   5.916 -0.1173  0.0711 -0.0811
18891W        W35025   2.139   1.881  13.354  0.0217  0.0893 -0.0057
18892W        W35026  15.021   5.724  13.906 -0.0430 -0.1241 -0.0163
18893W        W35027  13.264  10.298   4.843 -0.2977 -0.2026  0.2089
18894W        W35028   7.016   4.400   3.518 -0.4117  0.0670  0.2638
18895W        W35029   3.360  12.670   5.366  0.1575 -0.2265  0.0479
18896W        W35030   3.778   3.647  15.557 -0.0457 -0.1523 -0.2502
18897W        W35031   0.383  12.198  14.129 -0.1091  0.1311 -0.0363
18898W        W35032   1.582  11.106   3.434 -0.0467  0.2579  0.2554
18899W        W35033  17.687   9.549  13.385 -0.0701  0.0951  0.0480
18900W        W35034   0.542   0.370  12.956  0.0159 -0.2893 -0.0527
18901W        W35035   5.652  17.033   3.379 -0.1297 -0.4100  0.2069
18902W        W35036   2.070  11.261   2.350 -0.1315  0.0828  0.2839
18903W        W35037  10.813  10.393   3.324  0.2166  0.1424 -0.0512
18904W        W35038  12.231  10.532   3.566 -0.0705  0.1688 -0.1227
18905W        W35039   0.977   0.798   1.980 -0.4041 -0.0381  0.0261
18906W        W35040   6.157   0.514  11.051  0.2066 -0.1940  0.0669
18907W        W35041  13.702  10.205   1.502  0.1364 -0.0122  0.1781
18908W        W35042  12.103  16.564  12.939  0.1481  0.0455  0.1434
18909W        W35043   5.365  13.429   1.123 -0.1299  0.5018  0.0600
18910W        W35044   0.955   4.317   0.760 -0.0665 -0.3346  0.4485
18911W        W35045  17.420  15.037   5.743  0.1817  0.0025 -0.1900
18912W        W35046   5.699   7.977   1.178  0.2219  0.0855 -0.2886
18913W        W35047  10.161  12.137   0.017  0.1268  0.3296 -0.1065
18914W        W35048  10.609   2.804  13.095  0.1313 -0.1075  0.0176
18915W        W35049  12.191   6.749   1.070 -0.2197 -0.1774  0.3375
18916W        W35050  10.248  15.118   3.600  0.0096  0.2044  0.0737
18917W        W35051  16.621   5.043  14.657  0.0567  0.0224 -0.3226
18918W        W35052  17.991  10.574   0.092  0.2799 -0.2459 -0.2474
18919W        W35053  12.881   7.007   0.610  0.0571  0.0016 -0.1137
18920W        W35054   3.359  11.462  16.196 -0.2163  0.0627  0.0354
18921W        W35055  16.887   0.845  15.976 -0.0198 -0.2320  0.0231
18922W        W35056   9.814  10.481   2.623  0.0672  0.2789  0.0557
18923W        W35057  12.563   3.538   3.590 -0.0946 -0.3419 -0.0328
18924W        W35058  17.087  12.459  12.246 -0.0251  0.0486  0.1496
18925W        W35059   7.062   1.278   4.479  0.3550 -0.1100  0.2701
18926W        W35060  13.535  12.627   1.934  0.2322 -0.2366 -0.3472
18927W        W35061  17.999   1.068   5.129 -0.2573 -0.0296 -0.1817
18928W        W35062  16.446  13.954  11.990  0.3222 -0.0538 -0.0715
18929W        W35063  16.191   0.844   0.196  0.0725  0.2690 -0.1898
18930W        W35064  16.597  13.542  13.296  0.0798  0.3423 -0.0033
18931W        W35065   2.750   5.394  13.462 -0.2026  0.1359  0.2365
18932W        W35066   8.919  12.875   6.048 -0.1394 -0.1265  0.1916
18933W        W35067   8.931   6.574  15.838 -0.0692  0.2091 -0.0189
18934W        W35068   9.743  13.496  11.456 -0.2100  0.1611 -0.0641
18935W        W35069   4.424   3.392   2.590 -0.0224  0.1064 -0.0995
18936W        W35070   8.406  17.886   4.217 -0.0186 -0.3167 -0.0995
18937W        W35071   0.554   6.487   1.164 -0.2001  0.1370 -0.3426
18938W        W35072  11.762  11.325   0.230  0.0822 -0.1502 -0.1246
18939W        W35073   6.297   1.565   0.214  0.1431 -0.2249 -0.0487
18940W        W35074   9.878  12.282   4.604 -0.2887  0.0583 -0.1020
18941W        W35075   2.784  11.718  13.162 -0.0435  0.1895 -0.0104
18942W        W35076  18.052   6.257   3.772 -0.1662  0.0704  0.0131
18943W        W35077   9.907   8.303   5.037  0.1092 -0.1865  0.0988
18944W        W35078   2.922   0.014  12.092 -0.2038  0.0042 -0.2341
18945W        W35079  16.036  16.305   5.247  0.1098 -0.3114 -0.1241
18946W        W35080   2.037  15.247  15.220 -0.0010 -0.4246 -0.0456
18947W        W35081  13.826   2.354  14.357  0.1638  0.3905  0.0190
18948W        W35082  14.699  10.079   4.855 -0.1761  0.1210  0.2058
18949W        W35083  14.884   9.875   3.895  0.0845  0.0381 -0.1664
18950W        W35084  13.554  17.057   2.781 -0.0271  0.0706  0.1342
18951W        W35085  14.767   3.718  15.510  0.2102  0.3587  0.0316
18952W        W35086   4.907   5.154  14.513 -0.1583  0.1744  0.2126
18953W        W35087  12.453  11.244  12.873 -0.0293 -0.3231 -0.1710
18954W        W35088   6.395   1.202  14.947  0.1769  0.0314  0.0154
18955W        W35089   2.401  10.098  14.025 -0.1730 -0.0924 -0.0860
18956W        W35090   7.106   5.417  14.337  0.0927 -0.0727  0.1305
18957W        W35091  13.606   5.944   1.409 -0.0858 -0.1300 -0.0540
18958W        W35092  17.031  14.758   4.968  0.0611  0.2367 -0.3556
18959W        W35093   3.383   9.375   0.500 -0.0455 -0.1538  0.2833
18960W        W35094  13.263   6.965  12.067  0.0964  0.2219 -0.0862
18961W        W35095  12.549   8.197  13.686 -0.2808 -0.0124 -0.2004
18962W        W35096   1.989   5.475   2.046 -0.1415  0.0781  0.0594
18963W        W35097  10.197  12.688  11.367 -0.2423 -0.1366  0.1247
18964W        W35098  15.505  11.873  13.849  0.1287 -0.0949  0.0185
18965W        W35099   4.298   8.628   0.589 -0.1317  0.1010  0.0839
18966W        W35100   6.329   1.345  12.943 -0.0055  0.1047 -0.3799
18967W        W35101  17.157   8.855   5.660  0.2204 -0.1188 -0.2566
18968W        W35102   8.933   1.817  12.207  0.0911 -0.2776 -0.0252
18969W        W35103  12.679  17.952  15.332  0.3244 -0.1673 -0.2956
18970W        W35104   3.137  12.173  11.470 -0.1112  0.0583 -0.0624
18971W        W35105   2.902   1.797   2.202  0.0279  0.1648  0.0402
18972W        W35106  12.896  15.599   5.543  0.0009 -0.3522  0.1158
18973W        W35107   4.700   7.469   4.545  0.0238  0.1545 -0.0188
18974W        W35108  14.552  12.118  11.989  0.1985  0.1667  0.0126
18975W        W35109  10.375  15.908   2.502 -0.0680 -0.2744  0.1675
18976W        W35110   0.877   8.394  15.606 -0.1414  0.1593 -0.0436
18977W        W35111  10.618   4.493  15.300 -0.0543  0.3061  0.0712
18978W        W35112  10.577  16.327  12.102  0.0115  0.4393 -0.0498
18979W        W35113  17.792  10.593   1.869 -0.3142  0.0685  0.3561
18980W        W35114  17.475  14.129  14.688  0.2141 -0.1800  0.1738
18981W        W35115  10.413  13.671   3.195 -0.0470  0.0700  0.0411
18982W        W35116   6.743   0.604   1.994 -0.1252 -0.0785 -0.2590
18983W        W35117   5.967  10.961  10.756 -0.0846  0.3397 -0.2022
18984W        W35118  12.288  13.259  12.351  0.0454 -0.1536  0.3383
18985W        W35119   6.505   3.674  15.997  0.0766  0.0602 -0.0130
18986W        W35120   5.030  15.563   4.224  0.1611 -0.1945 -0.3764
18987W        W35121  15.300   4.037   3.907 -0.1295  0.3036 -0.0421
18988W        W35122  12.370  13.508   1.622 -0.0804  0.0010  0.1557
18989W        W35123   1.668   9.819   1.663  0.0635  0.1087  0.0141
18990W        W35124   4.429   2.888  10.565 -0.0969 -0.0788 -0.1625
18991W        W35125   0.195   1.035   0.507  0.2891 -0.2058 -0.2684
18992W        W35126   4.314  13.644  10.117  0.0470 -0.1435 -0.2235
18993W        W35127   2.169   7.949  15.457  0.0721 -0.0606 -0.1665
18994W        W35128  13.543  11.577  14.333 -0.1001 -0.2773  0.0562
18995W        W35129   2.738   2.597  13.803 -0.0815  0.0445 -0.1205
18996W        W35130   3.450  13.747   5.043  0.1835 -0.3209  0.0775
18997W        W35131  14.096   7.658  15.481  0.1798  0.1240 -0.1299
18998W        W35132  16.455   5.700   0.265 -0.0358  0.1331 -0.3175
18999W        W35133   8.114   1.890  12.549  0.1386 -0.0819 -0.0294
19000W        W35134   6.505  10.863   0.436 -0.0943 -0.1112  0.1976
19001W        W35135  16.822  11.857  15.466 -0.0074 -0.3131  0.3360
19002W        W35136   4.403   5.988   5.101 -0.0672 -0.2164 -0.0367
19003W        W35137   9.379   4.481  11.215 -0.0549  0.0730 -0.1805
19004W        W35138  12.175   9.571   4.783 -0.1701  0.0760 -0.2595
19005W        W35139  16.110   8.656  11.390 -0.1322 -0.0103  0.1357
19006W        W35140   2.688  14.711  12.387 -0.0373 -0.0295 -0.2255
19007W        W35141   1.390   8.477   3.428 -0.1545  0.0016 -0.2244
19008W        W35142   1.238  10.290  11.436  0.3365 -0.0204 -0.0575
19009W        W35143   0.522  10.715  14.630 -0.1919  0.0354 -0.1577
19010W        W35144  15.522   2.244   1.629 -0.2549  0.0019 -0.0428
19011W        W35145  12.857   1.860  12.758 -0.0395  0.1357 -0.0715
19012W        W35146  18.064  10.349  15.942 -0.1087  0.2734  0.1957
19013W        W35147   7.709   4.015  15.867  0.0113 -0.0214 -0.4847
19014W        W35148   9.713   4.550   0.555  0.0093 -0.0684 -0.1663
19015W        W35149  14.758   0.646  15.252 -0.1032 -0.0077 -0.4192
19016W        W35150   7.609   0.128  15.468  0.2698  0.1654  0.0168
19017W        W35151  14.207  16.170   1.523 -0.3219  0.0083  0.0079
19018W        W35152  15.577  10.209  12.316  0.0892  0.5131  0.0273
19019W        W35153   2.772   8.565  13.331 -0.2110  0.1556  0.1158
19020W        W35154   7.215   8.775  10.832 -0.0256 -0.1829 -0.0114
19021W        W35155  16.912  14.352  15.355 -0.3139 -0.0144  0.2050
19022W        W35156  16.307   0.289  14.262  0.0755 -0.1285  0.1079
19023W        W35157   5.387   9.566   5.786 -0.1559 -0.0880  0.0781
19024W        W35158  14.276  15.809  14.405 -0.0468  0.0813 -0.0736
19025W        W35159   5.018   3.275  15.791  0.3048 -0.5439  0.1687
19026W        W35160   3.502   5.596   4.282  0.0928  0.2915  0.1017
19027W        W35161   1.372   5.363  11.375  0.0028  0.1338  0.3773
19028W        W35162   5.330   1.087   6.090  0.0153  0.1553 -0.2541
19029W        W35163  13.571  15.242   0.350  0.2163  0.0584  0.2637
19030W        W35164  15.674  15.953  13.678 -0.2600  0.0652 -0.1790
19031W        W35165  16.639   5.122  12.680 -0.1855 -0.1271 -0.0026
19032W        W35166  17.528   8.257  11.924 -0.1282 -0.0706  0.0270
19033W        W35167   6.503  10.387   1.828 -0.1405 -0.3031 -0.3077
19034W        W35168   0.578   3.377  15.961  0.0931 -0.1578  0.0310
19035W        W35169  13.800   1.218   1.554 -0.1215 -0.0867  0.0116
19036W        W35170  12.700   6.605   4.681  0.0936  0.1054  0.1427
19037W        W35171  13.349  12.279  16.260 -0.2440 -0.0415  0.2283
19038W        W35172  10.833   7.684   0.307 -0.2011  0.0173  0.0984
19039W        W35173   3.788   4.847   2.822 -0.0861 -0.1010  0.3106
19040W        W35174   5.788   4.721  14.237  0.0793 -0.0266 -0.3036
19041W        W35175   4.041  17.781  12.678 -0.2720  0.0012  0.1700
19042W        W35176   3.941  11.009   3.928 -0.2704  0.3852 -0.0925
19043W        W35177   3.224   2.821  11.403 -0.1025  0.2032 -0.0951
19044W        W35178   0.484   8.783  13.178 -0.0530  0.2916 -0.1951
19045W        W35179  17.112  17.468  14.795 -0.1667 -0.0412  0.1503
19046W        W35180   8.405   7.844  12.105  0.0552 -0.0399 -0.2001
19047W        W35181   7.233  12.103   2.381  0.0375 -0.2017  0.1800
19048W        W35182   9.150   3.022   5.028 -0.2152  0.2569  0.0335
19049W        W35183  13.737   8.259   1.785 -0.0443  0.0512  0.0136
19050W        W35184   2.778   8.194   1.054  0.1507  0.3098 -0.2100
19051W        W35185   9.511   7.873   0.552  0.0193 -0.0023 -0.4649
19052W        W35186   1.781   2.405  15.894  0.0080 -0.0978  0.0184
19053W        W35187   1.679  13.523  13.830 -0.0407  0.2960 -0.1907
19054W        W35188  15.979   6.208  14.697  0.0485 -0.0318 -0.0352
19055W        W35189  16.947  10.053  12.440 -0.1703 -0.1289  0.1439
19056W        W35190   8.962   5.608   5.501  0.0708  0.1497 -0.3041
19057W        W35191   7.485   4.645   3.821 -0.1490 -0.0333  0.3000
19058W        W35192  12.158   2.319  12.224  0.0220 -0.0681 -0.0792
19059W        W35193   9.454  14.928   3.058  0.1801 -0.0328  0.1613
19060W        W35194  11.714  12.376  13.092 -0.0359  0.1609  0.1185
19061W        W35195   7.763   4.885   1.142 -0.0804 -0.0422  0.0683
19062W        W35196  11.417  13.163   2.350  0.0454 -0.2233 -0.1152
19063W        W35197  16.714   0.122  14.703 -0.1748  0.1035  0.4058
19064W        W35198   5.962   5.933  14.466 -0.0581 -0.1741  0.0189
19065W        W35199  12.125  12.887   4.590 -0.4649 -0.2252 -0.1218
19066W        W35200  12.677  10.974   5.184 -0.0836  0.0453  0.1202
19067W        W35201  17.019  16.556   5.262  0.2912 -0.1735  0.3237
19068W        W35202   1.660   0.588  16.151 -0.0840  0.0315 -0.0172
19069W        W35203  10.436   0.008  11.958 -0.1633 -0.1365 -0.0322
19070W        W35204  13.827   3.614  15.498  0.1449 -0.1614  0.3918
19071W        W35205   8.117   6.361   4.142 -0.0701 -0.0677  0.1257
19072W        W35206   0.507  17.797  14.743 -0.1681  0.3933  0.1562
19073W        W35207  16.547  12.770  12.986  0.2638 -0.2006 -0.0632
19074W        W35208  17.953   8.706  15.690 -0.1549 -0.0222  0.3752
19075W        W35209   8.739   0.194  12.680  0.0209  0.0077  0.0513
19076W        W35210  15.940   3.702  16.303  0.0017 -0.0088  0.2396
19077W        W35211  12.898   6.310  12.828 -0.1777  0.0093  0.0901
19078W        W35212   5.616   0.430   3.852 -0.1483  0.0191  0.0217
19079W        W35213  16.883  15.600  16.175 -0.3487  0.3942 -0.2658
19080W        W35214   0.162   3.146  12.357  0.2942  0.0153  0.0367
19081W        W35215   8.702  15.008  16.042  0.1835  0.1455 -0.1029
19082W        W35216  13.149  12.970  13.552  0.0037  0.0271 -0.1254
19083W        W35217   2.224  12.351   4.588 -0.1000 -0.1939  0.0597
19084W        W35218   7.070   1.563   4.887  0.1111 -0.1657  0.0866
19085W        W35219  10.481   4.743   2.333  0.2418  0.0869  0.1703
19086W        W35220  16.113   6.347  16.001  0.0517 -0.0114  0.2662
19087W        W35221   1.917  14.360  14.428 -0.0646 -0.2536 -0.1944
19088W        W35222  16.709   8.940  12.687  0.0618  0.1378 -0.0775
19089W        W35223   1.182   3.830   4.870 -0.0520  0.0756 -0.0303
19090W        W35224   9.321   5.513  14.705 -0.1412  0.0205 -0.0963
19091W        W35225   5.440  16.573   4.698 -0.3431  0.1062  0.4033
19092W        W35226   7.431   6.360   3.093 -0.1615 -0.3636 -0.2024
19093W        W35227   4.447   4.162   4.752  0.1307  0.0601  0.1962
19094W        W35228   0.398  10.587  15.143 -0.2294  0.0314 -0.2462
19095W        W35229   6.061  15.041  14.685 -0.1078  0.2307 -0.1154
19096W        W35230   3.156  10.591  14.533 -0.2647  0.1451 -0.3176
19097W        W35231   1.758   8.077   2.383  0.0634  0.0322  0.1610
19098W        W35232  13.941  12.743  11.408  0.5984  0.1546 -0.0723
19099W        W35233  12.581   5.649   1.645 -0.0861 -0.0097  0.0202
19100W        W35234  14.217   2.625   0.723 -0.1863  0.4019 -0.2043
19101W        W35235  17.303  11.213   5.175 -0.3104  0.2147  0.2780
19102W        W35236   0.656  13.299  11.597 -0.3559  0.0147  0.1899
19103W        W35237   8.851  11.336  12.915 -0.0066  0.0301 -0.2459
19104W        W35238  15.509   3.333   4.776 -0.0426  0.1748 -0.2254
19105W        W35239  13.114  15.587   1.761 -0.1190 -0.3184  0.2493
19106W        W35240   0.632   3.498  13.772 -0.1115  0.0368  0.3728
19107W        W35241   8.007   0.560   1.547  0.0216 -0.3832  0.2784
19108W        W35242  16.905   8.915   3.039 -0.0351  0.0943 -0.2500
19109W        W35243   8.971  17.805   0.933 -0.3245  0.0129  0.0136
19110W        W35244  10.042  13.304   2.558 -0.0545  0.0545 -0.0961
19111W        W35245   8.259   6.600   0.069  0.1154 -0.1368 -0.1329
19112W        W35246  16.224   0.964   4.723 -0.1411  0.1569  0.0075
19113W        W35247   1.036  12.877  10.782 -0.0741 -0.1470  0.0601
19114W        W35248  16.932   3.931  13.896  0.1139 -0.1318 -0.2371
19115W        W35249  14.084  16.377   4.618  0.3808 -0.1779 -0.1790
19116W        W35250   7.183   3.665   0.840 -0.1808 -0.0814  0.1579
19117W        W35251   2.672   6.464   1.351 -0.0741  0.0707 -0.1555
19118W        W35252   4.928   1.512   4.141 -0.0760  0.0391 -0.0582
19119W        W35253  15.608  15.850   0.176  0.3236  0.2098  0.1920
19120W        W35254   5.119   5.865   1.940  0.0445  0.0407 -0.1318
19121W        W35255  15.006   6.974   0.599  0.1030  0.0325  0.0061
19122W        W35256  14.253   7.869  12.558  0.0793 -0.1012 -0.2158
19123W        W35257   5.294   1.726   2.690 -0.1054  0.0769  0.0127
19124W        W35258  13.575   2.667   3.672  0.0725  0.1167 -0.0909
19125W        W35259  17.348   7.560   1.485  0.0120 -0.0710  0.2601
19126W        W35260  17.118  17.735  12.587 -0.0658 -0.1170  0.0764
19127W        W35261  15.682  14.730   1.989 -0.0564 -0.1312  0.0088
19128W        W35262   3.998  14.251  12.140  0.2598 -0.0154  0.1846
19129W        W35263   4.079  10.150  14.124 -0.3383 -0.0653  0.0013
19130W        W35264  13.903   9.940   5.449 -0.0509  0.2157  0.1485
19131W        W35265   4.367   8.065  14.443 -0.1358 -0.1074 -0.1488
19132W        W35266  16.601   9.456   0.111 -0.0508 -0.3012  0.1446
19133W        W35267   6.546   8.232  13.289  0.0998 -0.0831 -0.0267
19134W        W35268   0.114   3.928  14.169 -0.1052 -0.1956 -0.1296
19135W        W35269   9.025   2.755  12.355  0.5481 -0.2930 -0.1305
19136W        W35270  15.919   7.526   3.403  0.0547  0.2299  0.4072
19137W        W35271   8.282  10.474   3.678 -0.0691  0.0367  0.1537
19138W        W35272  12.855  13.127  10.944 -0.3268 -0.2512 -0.0850
19139W        W35273   9.236   3.602   2.592  0.1342  0.1151  0.1915
19140W        W35274  11.644   4.642   1.270 -0.0265  0.1023 -0.2409
19141W        W35275  11.232  17.313   5.051  0.0014  0.2343 -0.2019
19142W        W35276   0.079  10.517  11.556 -0.2334 -0.2125 -0.2101
19143W        W35277   5.544   3.314   1.302 -0.0679 -0.0360 -0.2062
19144W        W35278  16.369  16.852   0.829  0.0829 -0.2834  0.0041
19145W        W35279   7.929   8.221  14.094 -0.1212 -0.0295  0.2748
19146W        W35280  17.482   2.655  12.540 -0.2507 -0.4869  0.1388
19147W        W35281   2.572   9.408  12.514 -0.1845 -0.1969  0.0601
19148W        W35282   1.056   6.765   4.832  0.2131 -0.1851  0.2654
19149W        W35283   5.645  12.183   4.987  0.0033  0.0949  0.1020
19150W        W35284  11.362   9.609   0.565 -0.3680  0.1548  0.2821
19151W        W35285  14.720   3.117  11.291  0.0838  0.0648  0.1724
19152W        W35286  10.020  14.036   6.022 -0.1438  0.1094 -0.0973
19153W        W35287  12.862   4.905  14.281 -0.0616 -0.1241 -0.0012
19154W        W35288  16.765   4.906  12.234 -0.2900  0.1029  0.0933
19155W        W35289  14.940  15.349   4.128  0.2407 -0.2921 -0.0896
19156W        W35290   3.921   0.489   2.923  0.2897 -0.1667 -0.2429
19157W        W35291  14.178   5.106   1.201 -0.0608  0.0525 -0.0056
19158W        W35292   0.009   5.401   3.019  0.0957  0.0300  0.0523
19159W        W35293   6.840   5.653   1.529  0.1830 -0.0481  0.1168
19160W        W35294  12.691  17.178   0.165  0.1646  0.0168  0.0029
19161W        W35295  13.540   7.653  15.240  0.1019 -0.2451 -0.0056
19162W        W35296   6.705   5.943  15.143 -0.1395  0.0174  0.2481
19163W        W35297   4.432   3.194   5.600  0.0773  0.4432 -0.1810
19164W        W35298  16.154   3.310   3.183  0.0891 -0.0831  0.0668
19165W        W35299   5.791   7.198   2.268  0.1417 -0.0294 -0.1202
19166W        W35300   3.917   0.970  13.980 -0.2028 -0.1325  0.3186
19167W        W35301   5.715   0.727   3.223 -0.2343  0.0086 -0.0522
19168W        W35302   0.176  16.827   1.097 -0.2203  0.0493 -0.1147
19169W        W35303  14.969   2.046  15.482  0.2537  0.0419 -0.1336
19170W        W35304  13.340  13.442   4.165  0.1517 -0.0232  0.0551
19171W        W35305  16.906   7.302  12.749 -0.1133  0.0383 -0.2413
19172W        W35306  10.789   6.532  13.351 -0.0940  0.1547  0.1904
19173W        W35307   8.600   2.171  12.410  0.4527  0.1266  0.0365
19174W        W35308  17.426   2.236   2.272 -0.1789  0.1501 -0.2135
19175W        W35309  10.249  10.854  14.455 -0.1593  0.0912 -0.0016
19176W        W35310   9.647   3.409  13.193  0.1264  0.1379 -0.0934
19177W        W35311  10.121  12.702  12.017  0.0845  0.0668  0.1566
19178W        W35312   5.082   6.105   4.335 -0.1101 -0.1561  0.1721
19179W        W35313   7.052  11.675   2.656  0.1437  0.1976  0.0368
19180W        W35314  14.088  16.343  15.454  0.3550  0.1127  0.1453
19181W        W35315   3.923  14.172  16.264 -0.1531 -0.1136  0.0359
19182W        W35316  10.755  14.056  10.890 -0.0525  0.0079  0.3389
19183W        W35317   5.921   7.342  13.150  0.1393 -0.0980  0.3070
19184W        W35318   2.902  12.337  15.830  0.1308 -0.0450 -0.1002
19185W        W35319   3.174   2.518  12.854 -0.0092 -0.2565  0.0109
19186W        W35320  13.090  14.198   3.886  0.1626  0.0585 -0.1143
19187W        W35321   2.028   9.123   1.108 -0.0147  0.2519 -0.0120
19188W        W35322   0.468   0.269   1.218  0.0050  0.3480 -0.1634
19189W        W35323   9.936   3.424  16.213  0.2657  0.1603 -0.4359
19190W        W35324  15.035  11.328   4.154  0.1190  0.1592 -0.2323
19191W        W35325  13.905  10.377   1.010  0.1620 -0.0153 -0.2348
19192W        W35326  12.947   1.617  11.791  0.0120  0.0637 -0.1002
19193W        W35327   5.777   5.708  13.302  0.2903  0.1048  0.2121
19194W        W35328  15.646  11.603  12.671 -0.0233  0.2520 -0.1139
19195W        W35329   1.156   3.478  13.395 -0.1689  0.2020  0.0467
19196W        W35330  15.014  11.323   5.211 -0.0295 -0.0809 -0.0000
19197W        W35331   1.933  17.925   5.608 -0.0010  0.1146 -0.0653
19198W        W35332   5.093  10.879  15.213  0.0354  0.2087 -0.1782
19199W        W35333  13.319   5.681  12.736  0.3548 -0.2886  0.3267
19200W        W35334  13.550   6.629   2.349  0.2529 -0.0717  0.0090
19201W        W35335  17.906  15.923   4.752  0.0771  0.1972  0.1535
19202W        W35336  16.059   7.086  15.362 -0.1073  0.2290 -0.1621
19203W        W35337  10.692   7.578   4.378  0.2933 -0.3000 -0.0429
19204W        W35338   8.072   2.085  13.550 -0.0734  0.0276 -0.1484
19205W        W35339   2.042  13.087  15.811 -0.0758 -0.0008 -0.1788
19206W        W35340  10.547   4.101   0.502 -0.2636  0.2197  0.1319
19207W        W35341  12.859   1.926   4.552  0.1564 -0.0027  0.2520
19208W        W35342   4.170   1.904   3.454  0.1310  0.1070  0.2271
19209W        W35343   4.635   3.129   4.748  0.3289 -0.0221  0.1175
19210W        W35344  14.731  16.159   5.156  0.2687  0.2333  0.1738
19211W        W35345   1.407   3.481   4.615  0.1066 -0.0029  0.1049
19212W        W35346  10.280  17.616   3.069  0.0126 -0.1711 -0.0237
19213W        W35347   2.733  12.628   1.390  0.1270 -0.0464 -0.1415
19214W        W35348   1.243   7.398   9.944  0.2271 -0.0755 -0.1392
19215W        W35349   9.533   6.169  13.589  0.0570  0.2684 -0.3979
19216W        W35350  11.775  15.932   2.988  0.3143 -0.0880 -0.0487
19217W        W35351  11.816  12.352  14.634 -0.1516 -0.0550  0.0614
19218W        W35352  17.592  11.256  12.838  0.1774  0.2508  0.1303
19219W        W35353  10.295  10.656  12.808  0.2255 -0.0746  0.0019
19220W        W35354  14.783   9.430  15.533 -0.0326  0.0931 -0.2328
19221W        W35355  13.319   5.057   5.342  0.1985 -0.0672  0.1981
19222W        W35356  14.669  14.314  10.671 -0.0220 -0.0489 -0.3003
19223W        W35357   5.002  13.870  12.992  0.0529 -0.0109  0.3843
19224W        W35358   8.308  14.004   2.958  0.0013  0.0494 -0.0666
19225W        W35359   6.430  10.751   3.498 -0.0606  0.0459  0.0260
19226W        W35360   7.232   6.511   0.381 -0.1154 -0.1213 -0.0682
19227W        W35361   2.036  13.439   2.895  0.1282 -0.2893  0.0006
19228W        W35362   5.712   9.560  15.253 -0.0473 -0.1292 -0.0528
19229W        W35363  11.607   3.562  15.115 -0.0381  0.2167  0.2196
19230W        W35364   0.719  16.018   5.192 -0.2001 -0.1300 -0.0425
19231W        W35365   1.120   6.614  15.319 -0.2299 -0.2569  0.0212
19232W        W35366  14.427   7.115   2.226 -0.1879  0.5505  0.2380
19233W        W35367  11.847   2.530  14.621 -0.0782 -0.1150 -0.0690
19234W        W35368   9.073   2.678   3.864 -0.1296  0.0348 -0.1802
19235W        W35369   0.781  12.585   0.377  0.1306  0.2916  0.1634
19236W        W35370   7.523   7.734  11.656  0.2033  0.0323  0.0765
19237W        W35371   2.385   7.977  14.556  0.2774  0.1429 -0.3666
19238W        W35372   9.727   0.218   0.786 -0.2218 -0.1804  0.0091
19239W        W35373   1.800   9.202  12.676 -0.0598  0.0233  0.0200
19240W        W35374   7.268   5.441   1.319  0.1446 -0.1581 -0.0328
19241W        W35375  14.971  10.509   1.880  0.0719  0.1955  0.0515
19242W        W35376  17.769   9.030   4.467  0.2700 -0.0837  0.0978
19243W        W35377   1.381   9.494  13.660 -0.0629 -0.0868 -0.0584
19244W        W35378   5.586  10.706  14.510 -0.1560  0.0755  0.1664
19245W        W35379  11.599   3.055   3.855  0.0548  0.0382 -0.0386
19246W        W35380  13.904   9.881   4.365 -0.1118  0.0843  0.2046
19247W        W35381   9.600   2.366  11.091 -0.0833  0.2959 -0.1220
19248W        W35382  13.750  16.645  13.779  0.0129 -0.0316  0.2363
19249W        W35383   7.624   3.016  13.907 -0.2923  0.3911  0.3576
19250W        W35384   2.634   0.904  11.770 -0.0436  0.0878 -0.2446
19251W        W35385   0.669   1.144   4.577  0.1279 -0.2122  0.1387
19252W        W35386   4.262  11.582  11.066  0.4207  0.2926  0.0478
19253W        W35387   4.853   2.299   4.497 -0.1866 -0.1265 -0.0692
19254W        W35388  16.656   0.308  13.745  0.0968 -0.3029  0.4526
19255W        W35389   6.680   3.646   0.879  0.0591 -0.0379 -0.2504
19256W        W35390   9.054   8.034  13.782 -0.3035  0.0836 -0.0027
19257W        W35391  11.312  17.098  16.102 -0.1163  0.3692 -0.1727
19258W        W35392  11.097   8.150  11.250 -0.0157  0.2360  0.0784
19259W        W35393   3.354  15.960  12.140 -0.0706 -0.0344  0.0188
19260W        W35394  14.769   6.011  11.717  0.0385  0.0157  0.1215
19261W        W35395   4.826   6.721  13.900 -0.3236  0.0726 -0.0625
19262W        W35396   7.489   3.455   0.066  0.1000  0.3350 -0.0427
19263W        W35397  11.635   7.795   5.491  0.0382  0.0576 -0.1212
19264W        W35398   8.093  12.060  13.293  0.1372  0.0267  0.1553
19265W        W35399   6.968   6.887  15.320 -0.0198  0.1337  0.2982
19266W        W35400  17.685  14.272   6.129 -0.2414 -0.1407  0.0851
19267W        W35401   9.651   7.878   1.661  0.1281 -0.0678 -0.0651
19268W        W35402  16.940  15.758  14.941 -0.0777  0.0439 -0.0019
19269W        W35403  16.150   9.029  14.299 -0.0198  0.0906 -0.1923
19270W        W35404   4.343  14.025   1.294  0.0100  0.0620 -0.1026
19271W        W35405   1.881  11.883  11.104 -0.1005  0.3124  0.1582
19272W        W35406   7.790   4.702  14.117  0.2103  0.0323  0.0269
19273W        W35407   5.138   0.115   3.730 -0.2214 -0.2179 -0.0267
19274W        W35408  14.118  11.526   4.038  0.0127  0.1600  0.4113
19275W        W35409   8.360   4.108   1.588  0.2265 -0.0298  0.1712
19276W        W35410   3.274   5.868  12.024 -0.0257 -0.0713 -0.3114
19277W        W35411  15.023   8.260   5.016 -0.0123 -0.2227  0.0113
19278W        W35412   3.790  17.696  13.702 -0.3194 -0.2186 -0.0595
19279W        W35413  14.413   9.176   5.277  0.0986  0.2164  0.1861
19280W        W35414   8.030   4.908   3.128  0.0705 -0.1790 -0.0269
19281W        W35415   1.154  11.365   1.797  0.0168  0.1063 -0.1396
19282W        W35416  10.157  17.508   3.604  0.1250  0.0624 -0.1912
19283W        W35417  13.187  14.012  15.078  0.0287 -0.0320  0.0851
19284W        W35418   9.786   6.763  15.033  0.1854 -0.1062  0.3271
19285W        W35419  12.532   5.506   2.440  0.1381  0.0080  0.1156
19286W        W35420  15.222   6.694  12.958 -0.0346  0.2963  0.1300
19287W        W35421   0.325   9.488  10.950  0.1590 -0.1906  0.0253
19288W        W35422   4.287   2.511   0.854  0.3396  0.0288 -0.0940
19289W        W35423   6.518  15.428  15.492  0.1562 -0.0936 -0.3443
19290W        W35424   2.256   5.196  13.253  0.2004  0.1105 -0.0378
19291W        W35425   3.739  13.285  11.297 -0.0831 -0.2798 -0.2193
19292W        W35426   3.782   7.513   2.475 -0.1427  0.0360 -0.2140
19293W        W35427  13.280  15.945   4.769 -0.3046 -0.0532 -0.0244
19294W        W35428  14.205  14.424   2.627  0.1375  0.3005 -0.0874
19295W        W35429  11.887   7.534  13.584  0.1178  0.2362 -0.0640
19296W        W35430  16.071   7.743  11.815  0.0835  0.2690 -0.1424
19297W        W35431  13.392  14.724  11.835 -0.0486 -0.1458  0.1347
19298W        W35432   6.257  11.256   0.628  0.0429  0.0591 -0.4430
19299W        W35433  10.237   5.246   0.487 -0.0402 -0.0465  0.2788
19300W        W35434  13.119  13.631  13.533 -0.2397 -0.0671 -0.2807
19301W        W35435   3.331   3.330  16.408  0.0965  0.1784 -0.1731
19302W        W35436   0.857   3.284   2.627  0.2043  0.0960 -0.2293
19303W        W35437   5.168  10.371  13.707 -0.0566 -0.1520 -0.1677
19304W        W35438  17.380   6.123   5.271 -0.2159  0.0315  0.3723
19305W        W35439  16.358   5.999  14.418  0.1742 -0.3106  0.0385
19306W        W35440   1.823   2.968  11.781  0.1774  0.0927 -0.2215
19307W        W35441  15.642  14.343   3.676  0.0514 -0.1232 -0.1331
19308W        W35442  17.791   6.926   0.146 -0.1135 -0.1577  0.2134
19309W        W35443  16.541  14.222  14.751  0.2029 -0.0542 -0.0555
19310W        W35444   6.518   7.461  14.800  0.0463 -0.2588  0.0045
19311W        W35445   2.872   1.630  13.715  0.2402  0.2025 -0.1357
19312W        W35446  15.929   4.260  16.313 -0.3309 -0.1533  0.0526
19313W        W35447   9.906   4.426  13.366 -0.1443  0.1728  0.0497
19314W        W35448   9.232  16.507   4.388  0.0981 -0.1527  0.0991
19315W        W35449   3.887  14.951   0.951 -0.1492 -0.1384 -0.1741
19316W        W35450   0.416  10.145  13.303  0.0711  0.2804  0.0253
19317W        W35451  12.989   1.335  12.672  0.3171 -0.0228  0.4606
19318W        W35452  16.561   5.113   5.743  0.0142 -0.2489 -0.3038
19319W        W35453  14.989   2.635   3.797 -0.2578  0.0067 -0.0683
19320W        W35454  14.291   0.430   2.431  0.1724  0.0897  0.0165
19321W        W35455  14.977   3.837  12.825  0.1082 -0.1441  0.0438
19322W        W35456   7.021  11.269   1.630  0.0157  0.1149  0.2586
19323W        W35457  13.346  16.724   0.991 -0.0749 -0.1459  0.1554
19324W        W35458   8.105  10.746   4.595 -0.0607 -0.3066 -0.1240
19325W        W35459   6.846   7.354   1.154 -0.1387 -0.3593  0.1315
19326W        W35460  17.548   1.565  15.104  0.2739 -0.2593  0.1247
19327W        W35461   2.882  15.187   3.222  0.1710 -0.0967 -0.0845
19328W        W35462   1.998   5.397  13.893 -0.3521  0.0151 -0.3172
19329W        W35463  12.037  16.218   3.280  0.2552  0.0898  0.0339
19330W        W35464   7.258   7.601   4.589  0.2071 -0.2364  0.2285
19331W        W35465   4.579  17.838  13.745 -0.2173  0.0835 -0.0405
19332W        W35466   2.853  15.663  12.016  0.0674  0.2724  0.2099
19333W        W35467  16.832  11.288  13.787 -0.2010  0.0047  0.3700
19334W        W35468   5.779  16.245   1.505 -0.0500 -0.2012  0.0579
19335W        W35469  17.320  11.118  15.293  0.3917 -0.1924  0.0943
19336W        W35470   3.086   0.105   1.603 -0.0573 -0.0165  0.0489
19337W        W35471   8.485  16.351  16.214 -0.1207  0.3699 -0.3592
19338W        W35472   1.301  17.425  15.618 -0.0903 -0.2044 -0.4012
19339W        W35473  16.322  13.371  14.606 -0.2229 -0.0205  0.2276
19340W        W35474   9.217  15.968  12.793  0.0229  0.1007 -0.2740
19341W        W35475   2.746  16.736  15.995  0.0785 -0.0133  0.0499
19342W        W35476   7.656   8.977  13.775  0.0241 -0.0808 -0.1749
19343W        W35477  12.278   3.984   3.338 -0.1343  0.0575 -0.1660
19344W        W35478  15.648  14.716   5.665  0.0137 -0.1219 -0.0930
19345W        W35479  10.963   3.208   1.001 -0.0063 -0.3053 -0.0019
19346W        W35480  17.828   4.831  12.254 -0.1878  0.0219  0.0857
19347W        W35481   3.304  12.826   3.473  0.1833 -0.1267  0.0462
19348W        W35482  17.469  13.559   5.450  0.1784 -0.0839 -0.0371
19349W        W35483  17.093  15.633  11.339  0.4724  0.2982  0.0475
19350W        W35484   7.168  11.743  11.262 -0.0375  0.0452  0.1745
19351W        W35485   5.956  17.889   4.126  0.2604 -0.0010 -0.1851
19352W        W35486   4.192  15.167   0.225 -0.1712 -0.3151  0.0302
19353W        W35487   3.253   4.813  15.047  0.2029  0.2536 -0.0944
19354W        W35488   7.885   8.409   0.353 -0.0225 -0.1829 -0.1451
19355W        W35489   0.934  11.869  14.225 -0.1887 -0.0760 -0.0304
19356W        W35490   0.045  14.177   3.288 -0.0701  0.3684 -0.2068
19357W        W35491   5.035   3.632   3.416 -0.3648 -0.1283 -0.0595
19358W        W35492  15.840  10.151   2.288 -0.1944 -0.2594 -0.1444
19359W        W35493  13.018  13.741   2.601  0.0260 -0.1433 -0.1448
19360W        W35494  16.851   9.576   0.557 -0.2742  0.0126 -0.1744
19361W        W35495   6.042  13.624   2.383  0.0895 -0.0468  0.0054
19362W        W35496   7.822   4.487   2.798  0.0970  0.1236  0.3890
19363W        W35497  17.882   5.886  13.663  0.0095 -0.0608  0.1365
19364W        W35498   4.922   9.503  14.872  0.0483 -0.2034 -0.0101
19365W        W35499   2.616   6.102   1.970  0.1318  0.2536  0.0489
19366W        W35500  13.910  12.569  14.038 -0.2864  0.0665  0.1307
19367W        W35501   7.632  10.599  16.159  0.1227 -0.3167  0.1540
19368W        W35502   0.794  14.398   5.233 -0.1280 -0.0264  0.0973
19369W        W35503  16.410  12.685   0.609 -0.1786  0.1370 -0.2589
19370W        W35504   6.944  17.170   3.438 -0.0293 -0.0577 -0.2338
19371W        W35505   3.071   4.233  12.391  0.2731 -0.1297 -0.0492
19372W        W35506  10.413  10.559   3.574  0.0972  0.0601  0.0852
19373W        W35507   2.389  11.338  13.350  0.0542  0.0126 -0.1100
19374W        W35508  11.511  10.210  12.476  0.0161 -0.0505  0.1792
19375W        W35509  12.939  12.806  13.095 -0.2683  0.0503 -0.0284
19376W        W35510  14.890   3.498  14.610 -0.0740 -0.1879  0.1501
19377W        W35511   2.701   8.666   3.694  0.0410 -0.2191  0.0539
19378W        W35512  14.096  10.968  13.350  0.1430  0.5634  0.0514
19379W        W35513   1.553   7.262   0.546  0.1546  0.1376 -0.1291
19380W        W35514  10.626  14.128  12.647 -0.1642  0.1810  0.0993
19381W        W35515   0.437   8.425   2.127 -0.1754 -0.0107  0.0385
19382W        W35516   4.983   4.465   5.521 -0.1976  0.2310 -0.0357
19383W        W35517  18.066  14.914   1.925  0.1445  0.5100  0.2114
19384W        W35518   0.529   7.208   3.660  0.0253  0.0733  0.1542
19385W        W35519  17.996  16.810  12.409 -0.3008  0.0122 -0.0711
19386W        W35520  10.766   6.164  15.890  0.1505 -0.1169  0.3200
19387W        W35521   5.193  16.628  11.466 -0.1372 -0.3611 -0.0960
19388W        W35522  10.724  14.125  13.726 -0.1668 -0.5221  0.0116
19389W        W35523  11.859  16.522  13.932 -0.0101 -0.0235  0.2462
19390W        W35524   7.131  11.433   5.840 -0.1121 -0.0213  0.1045
19391W        W35525   8.174  13.954  12.860 -0.0470  0.0667  0.0716
19392W        W35526  11.835  17.794  15.604  0.1240 -0.1358 -0.1043
19393W        W35527   0.370  16.760   3.897  0.0851 -0.0335 -0.1041
19394W        W35528   5.988   3.170   1.118  0.2434  0.1858  0.1593
19395W        W35529   1.686   3.627   3.934  0.2544  0.3181 -0.0051
19396W        W35530   8.498  13.824  15.228 -0.0804  0.2716 -0.0851
19397W        W35531   6.545  16.263  14.675  0.0825  0.0676 -0.1056
19398W        W35532   7.181   8.210   1.532 -0.0200  0.0100  0.1602
19399W        W35533  10.581  13.031   1.701 -0.2960 -0.0938 -0.0155
19400W        W35534   1.981  14.980  14.381 -0.1977  0.1119 -0.1684
19401W        W35535  10.713   5.640   4.433 -0.1933  0.2263 -0.2396
19402W        W35536  14.207   3.153  12.190 -0.0433 -0.1283  0.0707
19403W        W35537  11.845   4.868  11.334  0.1535 -0.2313  0.0866
19404W        W35538   4.553   3.490   4.117  0.1352  0.0211  0.1041
19405W        W35539  14.464   1.769   4.645  0.2071  0.0416  0.1987
19406W        W35540  14.275   8.743  14.956  0.0715 -0.1053 -0.1380
19407W        W35541  11.393   5.505  16.363 -0.0505 -0.1498 -0.4046
19408W        W35542   6.721  15.853   1.783  0.0843  0.0560 -0.0641
19409W        W35543  13.217   3.329   4.607 -0.2144 -0.1733  0.0190
19410W        W35544  14.709   2.011   5.423 -0.1380  0.1309  0.2667
19411W        W35545   6.518  14.792  16.368 -0.2069 -0.2746  0.0965
19412W        W35546   0.509   5.969  15.731 -0.0517 -0.2373  0.2733
19413W        W35547  11.116  11.747  11.603 -0.0159  0.0015 -0.0516
19414W        W35548   1.990  11.268  15.062 -0.2826  0.0541  0.4166
19415W        W35549  13.954  11.589   1.553 -0.1905  0.0162 -0.2254
19416W        W35550  11.473  16.609  15.429  0.1021 -0.0063  0.0839
19417W        W35551   9.357   4.836   2.956 -0.2744 -0.2783 -0.0219
19418W        W35552  11.937   3.948  10.128  0.2337 -0.1006 -0.1189
19419W        W35553   1.593  17.344  11.684 -0.0842 -0.1403  0.2857
19420W        W35554   5.780  16.653   2.514 -0.0518 -0.3197 -0.0019
19421W        W35555   5.006  10.698   1.429  0.0902  0.2520 -0.0189
19422W        W35556   9.665   8.630   3.221 -0.3342  0.0221  0.1717
19423W        W35557   1.049  14.632   1.327  0.3170  0.3662 -0.2026
19424W        W35558  16.509  11.811   0.445 -0.1251  0.0028 -0.1808
19425W        W35559   5.238  10.682   0.477 -0.0010 -0.0931  0.0277
19426W        W35560  10.191   3.542  13.025 -0.1163 -0.0022  0.0407
19427W        W35561   8.844   0.517   2.986 -0.0523  0.0347  0.1161
19428W        W35562  17.997   4.916   4.474  0.2945 -0.1315  0.4104
19429W        W35563   1.106   1.311   1.296 -0.1118 -0.0561  0.0930
19430W        W35564  17.634   8.559  13.231 -0.0128  0.0015  0.4241
19431W        W35565   1.827  17.873  15.055  0.2728  0.2267 -0.1492
19432W        W35566  10.258  17.049   1.218  0.1660 -0.1482  0.0793
19433W        W35567   4.276   4.587  11.383 -0.3274 -0.1037 -0.1539
19434W        W35568   5.733   9.098   0.928  0.1349  0.0135  0.1940
19435W        W35569  11.123   5.832   0.778 -0.3345  0.0007 -0.2002
19436W        W35570  10.407   9.623   3.441 -0.1664 -0.0203  0.0508
19437W        W35571   8.013  13.938   1.741 -0.1720 -0.1012  0.1060
19438W        W35572  11.312  15.407   1.021  0.2018  0.0852 -0.3953
19439W        W35573   7.201   3.301  12.633  0.0274  0.2480 -0.1365
19440W        W35574   2.037   9.162   4.915 -0.1773 -0.0954 -0.0697
19441W        W35575   6.830   0.675  14.850  0.0556 -0.0710 -0.2265
19442W        W35576   2.562   9.882  15.789  0.2256  0.0909 -0.3626
19443W        W35577   0.843   6.431  12.128 -0.0947  0.0172  0.0595
19444W        W35578   9.837  17.326  10.446  0.0657  0.0755  0.1690
19445W        W35579  13.007  14.561  15.105 -0.0582  0.0038  0.2317
19446W        W35580  17.695  16.874   5.556 -0.0180  0.1187 -0.2570
19447W        W35581   8.507   0.940  13.034 -0.0197  0.1388 -0.1187
19448W        W35582   6.791  16.237   4.029  0.1298  0.0789  0.0532
19449W        W35583  18.009   2.317  14.051 -0.0050 -0.0154 -0.2895
19450W        W35584  12.205  14.775  12.995 -0.0354 -0.0861  0.1753
19451W        W35585   3.281  17.141  14.077  0.0682  0.0069 -0.0427
19452W        W35586   0.346   0.068  13.352  0.1119 -0.1218 -0.2336
19453W        W35587   8.289   3.093  13.902  0.1422  0.0628 -0.0962
19454W        W35588   3.284  16.208   4.325  0.3015  0.2362  0.0667
19455W        W35589   1.884   4.919   4.848  0.3540 -0.2906 -0.3576
19456W        W35590   8.610   9.966   1.873 -0.0541 -0.1519  0.1833
19457W        W35591  11.193   6.109  15.081  0.0711 -0.0003 -0.2274
19458W        W35592  10.746  13.564   6.258 -0.1843 -0.2449 -0.0035
19459W        W35593   8.763  12.093   0.827 -0.0927 -0.0426 -0.1126
19460W        W35594   3.341   2.864  13.266  0.1513  0.2386  0.1070
19461W        W35595  17.728  10.730  11.740 -0.0970  0.0210  0.0439
19462W        W35596  14.667   3.097   1.428  0.2524 -0.1551 -0.1717
19463W        W35597   0.771  12.543   1.250  0.3371  0.0545  0.0144
19464W        W35598  14.763  17.850  13.270 -0.4283 -0.1028  0.0103
19465W        W35599   2.424   5.884   5.379 -0.0292 -0.3319 -0.1134
19466W        W35600   0.860  10.045  12.586 -0.1202  0.1604  0.0383
19467W        W35601  15.546  13.162   4.467 -0.1573 -0.0092 -0.1364
19468W        W35602  10.073   9.936   2.336  0.0054 -0.3263 -0.2471
19469W        W35603  13.347   8.761   0.137  0.1275 -0.3967  0.2364
19470W        W35604  16.995  12.356   1.985  0.0930  0.4585 -0.2068
19471W        W35605   1.703   6.303   6.045  0.2422 -0.1141  0.2337
19472W        W35606  12.072   7.004   4.193  0.0442 -0.0692  0.1785
19473W        W35607   9.186  14.319   4.785  0.3550  0.0038 -0.1701
19474W        W35608   6.832   2.768   0.035  0.3140  0.0218  0.0278
19475W        W35609   0.500  15.579  14.805  0.1368 -0.3581 -0.1718
19476W        W35610   9.915  16.267   3.067 -0.2985 -0.0280 -0.0072
19477W        W35611   2.876   8.181   4.883  0.1215  0.1515  0.0120
19478W        W35612   4.624   5.621   3.663  0.0029 -0.0348  0.2325
19479W        W35613  15.231   7.040   4.840 -0.0227  0.1006  0.0442
19480W        W35614   7.262   5.210  14.826 -0.1962 -0.3209  0.1227
19481W        W35615  14.147  17.306   0.081 -0.3118  0.3592 -0.0375
19482W        W35616   1.774   5.220   3.891 -0.0759  0.0332 -0.0949
19483W        W35617   0.978   4.888   0.695 -0.0180  0.2164 -0.0012
19484W        W35618  13.523  13.114   1.916 -0.0525  0.0583  0.2515
19485W        W35619   9.537  13.419  12.439 -0.0396  0.2888  0.0947
19486W        W35620  13.825   8.865  11.611 -0.2154 -0.0723 -0.0092
19487W        W35621  11.140  16.406  12.152 -0.1150  0.1414  0.2770
19488W        W35622  17.664  14.836   2.221 -0.0916  0.0785 -0.0889
19489W        W35623   4.766   0.525   4.123 -0.0591  0.2113 -0.1282
19490W        W35624   1.855   3.746  16.179 -0.1759 -0.0046 -0.0392
19491W        W35625   5.242   7.858   2.653 -0.2241 -0.0335  0.2527
19492W        W35626   2.385   9.113   1.655  0.0800  0.2546  0.2221
19493W        W35627  17.296   8.544   6.110 -0.0225  0.1074 -0.0695
19494W        W35628  15.429   9.906   3.413  0.0546  0.1911 -0.0534
19495W        W35629   6.968   2.195  14.187 -0.1526  0.1352 -0.1325
19496W        W35630   4.826   2.809  15.747  0.0865  0.2540  0.1558
19497W        W35631   3.907  13.754   2.981 -0.3482 -0.1901 -0.0697
19498W        W35632  16.053  14.630  16.298  0.1745  0.2172  0.2422
19499W        W35633   2.999   5.983  14.770 -0.1630  0.1176 -0.2053
19500W        W35634   5.023  11.413  13.067 -0.0977 -0.0161 -0.1304
19501W        W35635  15.464  11.656   4.097 -0.0361  0.0919 -0.1225
19502W        W35636  13.092  17.537   4.516  0.0250  0.1385  0.1042
19503W        W35637  14.192  12.521  14.592 -0.0996  0.2736  0.1290
19504W        W35638  17.433   4.372   5.980  0.0280 -0.0869 -0.1082
19505W        W35639  10.605  17.532   1.914 -0.2942  0.1090  0.2336
19506W        W35640   7.882  12.784  12.018 -0.0009  0.0848 -0.1248
19507W        W35641   5.842   2.037  11.910  0.0088 -0.0057 -0.1374
19508W        W35642   9.574  16.338   2.029  0.1308 -0.0272  0.2482
19509W        W35643   4.563   4.355  13.245 -0.3146 -0.1530  0.0726
19510W        W35644  16.735   6.729  15.059  0.2282 -0.1775 -0.1768
19511W        W35645  10.015   2.151   1.742 -0.0687 -0.3394 -0.0477
19512W        W35646  17.616  17.013  13.516  0.5756 -0.0129 -0.1226
19513W        W35647  13.952  17.688   3.520  0.2007 -0.5112  0.1635
19514W        W35648   3.859  17.274  12.631 -0.0988  0.0761 -0.1584
19515W        W35649   9.284   0.913  13.686 -0.1918 -0.0006  0.3739
19516W        W35650   3.710  10.650  14.340  0.0807  0.0964 -0.0407
19517W        W35651   0.287   1.058   4.247 -0.1999  0.0176 -0.1732
19518W        W35652   4.962   0.087  13.054  0.4500 -0.2299 -0.1425
19519W        W35653  17.766  17.863  16.237 -0.1188  0.0818  0.0380
19520W        W35654   0.776  13.953   2.100 -0.2695  0.1431  0.0174
19521W        W35655   9.107  10.995   2.080 -0.0297  0.0122  0.0626
19522W        W35656  11.807  15.731  12.316 -0.0268  0.3873  0.0961
19523W        W35657  16.745  16.706  11.657  0.0550  0.0049 -0.1627
19524W        W35658   5.052   2.207  11.531  0.1065  0.0783  0.1826
19525W        W35659  13.744  10.759  11.844 -0.1760 -0.0260 -0.1755
19526W        W35660  12.484  10.128   3.381  0.1424 -0.0480  0.2950
19527W        W35661  14.382   8.774   1.296  0.1605  0.1317  0.2489
19528W        W35662   8.265  12.398   3.354  0.3066  0.3385  0.5036
19529W        W35663   5.878  13.890   2.810 -0.0426 -0.1755  0.1929
19530W        W35664   4.647   8.908  15.499  0.2653  0.2928 -0.2014
19531W        W35665  15.244   5.354   3.869 -0.3761 -0.1202 -0.3170
19532W        W35666   5.473  12.873   3.024 -0.0368 -0.1148 -0.0780
19533W        W35667  14.767   9.161   3.389  0.0423 -0.2075  0.0304
19534W        W35668  12.786  15.266   3.210  0.0895 -0.2401  0.0216
19535W        W35669  15.421   5.737  11.343 -0.2134  0.0135 -0.1778
19536W        W35670   6.349   4.190  12.909 -0.1953  0.0861  0.1583
19537W        W35671   6.534   2.703   4.864 -0.0114  0.0741  0.0699
19538W        W35672  13.980  13.246   3.822 -0.2621 -0.1088 -0.1758
19539W        W35673   7.862   6.166   3.287 -0.2136  0.0826 -0.1449
19540W        W35674   5.326  16.317  12.683 -0.0865  0.1028 -0.1119
19541W        W35675  16.789  16.977   1.001 -0.4787 -0.0041 -0.0302
19542W        W35676   9.257   2.706  10.975 -0.0660 -0.0816  0.1148
19543W        W35677   6.688   9.470   1.112  0.0989 -0.1995 -0.1219
19544W        W35678   0.092  10.653   3.129  0.1790  0.0173  0.1286
19545W        W35679   7.108  10.103  12.770 -0.1634  0.2388  0.0707
19546W        W35680   5.349  12.514  16.094  0.1162  0.1387 -0.0671
19547W        W35681   6.268  17.799   3.192  0.0331 -0.0213 -0.2799
19548W        W35682  10.473  12.298  12.347  0.1691  0.0591 -0.3092
19549W        W35683  10.020  12.278  12.632 -0.1267  0.3493  0.3623
19550W        W35684   8.008   2.933   3.354 -0.0193  0.1576  0.0075
19551W        W35685  12.159  12.051  15.349  0.1322 -0.0763 -0.0924
19552W        W35686   8.469   6.581   1.648 -0.0633  0.0820  0.1374
19553W        W35687   1.344   9.354  12.900 -0.0797  0.0993  0.0275
19554W        W35688   6.139   4.160  10.231  0.0208  0.0889  0.3995
19555W        W35689   7.787  13.506   1.730 -0.0966 -0.0417 -0.0431
19556W        W35690  10.236   3.691  12.011  0.1303 -0.1437  0.1704
19557W        W35691  11.545  10.498  12.029  0.0707  0.1369  0.0183
19558W        W35692  17.715  10.486   3.350  0.0767  0.0368 -0.1247
19559W        W35693  12.921   9.902   1.158 -0.2286  0.4635 -0.2692
19560W        W35694   0.406   9.032   2.701  0.0484  0.0370  0.1667
19561W        W35695   1.121   4.215  16.183  0.3327  0.0151 -0.1034
19562W        W35696   5.339   4.408  14.892  0.2251  0.2291  0.1987
19563W        W35697   9.192   9.934   3.810 -0.1865  0.1017  0.0706
19564W        W35698   7.477  13.855   3.083  0.1668 -0.3588 -0.3542
19565W        W35699  10.770   3.247  14.215 -0.3548 -0.1622  0.1649
19566W        W35700   2.622   0.987  13.613  0.0531  0.0298 -0.1832
19567W        W35701   9.819   7.402  12.653  0.2166 -0.3445  0.0103
19568W        W35702   3.906   0.016  11.045 -0.0142 -0.0248  0.0133
19569W        W35703   3.676  10.593   4.904 -0.1793 -0.0660 -0.5295
19570W        W35704  14.166  13.505  15.501  0.2174  0.1651 -0.2576
19571W        W35705  11.233   4.988  12.561  0.3112  0.1977 -0.1958
19572W        W35706   5.424  12.084   6.300  0.1642  0.2744 -0.0140
19573W        W35707   8.388  15.657  14.373 -0.2655 -0.1843 -0.2201
19574W        W35708  15.126   0.681   5.160  0.2019  0.0884 -0.0173
19575W        W35709  17.870  15.284  12.197  0.0471 -0.0081 -0.2484
19576W        W35710  10.698   1.375  16.202 -0.5591 -0.1831  0.2485
19577W        W35711  17.323   4.262  15.011  0.0728  0.0213  0.1437
19578W        W35712  10.698   3.712  11.808  0.1101  0.0509  0.1071
19579W        W35713   6.593   2.081  13.164 -0.1241 -0.3194  0.1589
19580W        W35714  11.553   2.093   4.243  0.2259 -0.2013  0.0223
19581W        W35715  10.080  16.353   5.085 -0.0633 -0.0401 -0.0653
19582W        W35716   9.336  11.062   6.052 -0.0543 -0.2882 -0.0799
19583W        W35717   6.731   7.258   4.333 -0.0377  0.0691  0.0915
19584W        W35718   9.778  13.973   1.728 -0.0849  0.0348  0.0528
19585W        W35719  12.118  10.985   3.741  0.1556 -0.0925 -0.1185
19586W        W35720   4.670   6.685   2.748  0.0568 -0.1055 -0.1053
19587W        W35721   4.503   5.639  13.169  0.3087 -0.0124  0.0007
19588W        W35722   6.539  13.377   5.314  0.3583 -0.0392 -0.1810
19589W        W35723   8.843  13.257   4.277  0.2999 -0.1720 -0.2587
19590W        W35724   8.964   8.695   4.516 -0.0342  0.0627 -0.1288
19591W        W35725   1.386  12.629   2.019  0.0630  0.1268  0.0711
19592W        W35726   8.211   1.067   5.338 -0.0497 -0.1057  0.0807
19593W        W35727   0.054   5.906  16.040  0.0918 -0.2206 -0.0525
19594W        W35728   8.892   6.367   1.497  0.0453  0.1546 -0.3288
19595W        W35729   6.905   9.577   1.559  0.3606 -0.2392  0.0725
19596W        W35730  14.716  17.156   3.626  0.1186 -0.2254  0.1985
19597W        W35731   9.855   8.744   0.800 -0.0611 -0.1658 -0.1632
19598W        W35732  14.983   6.317  15.513 -0.3445  0.0661 -0.3684
19599W        W35733   5.510   4.427  12.600 -0.1625  0.0796  0.1634
19600W        W35734  14.169   6.865  15.104  0.2365 -0.2997 -0.0551
19601W        W35735  12.904   5.857   0.751  0.1183 -0.1249 -0.0878
19602W        W35736   7.443  16.826   5.036  0.1939  0.0822  0.0516
19603W        W35737  10.041  17.197  13.583 -0.3082  0.0945 -0.0778
19604W        W35738  17.508   3.657  15.931 -0.0227  0.3020  0.0451
19605W        W35739   3.568   7.752  14.757  0.2187  0.1011  0.1273
19606W        W35740   9.558   6.694  11.862  0.2076  0.0094  0.1136
19607W        W35741  14.265   8.549  11.651 -0.3040  0.0815 -0.1197
19608W        W35742   6.548   7.353  13.890  0.0142  0.1089  0.1010
19609W        W35743  15.678   3.196   0.073 -0.3447 -0.2343  0.0359
19610W        W35744   3.627   9.959  12.144 -0.1114 -0.3537 -0.2541
19611W        W35745  12.408  17.510  10.285  0.0067 -0.0539  0.0365
19612W        W35746  13.567  15.805  13.955 -0.0238 -0.2575 -0.2350
19613W        W35747   1.064   8.952   1.293  0.2163 -0.1983 -0.0852
19614W        W35748   5.963   2.152   3.242 -0.3171  0.2372 -0.1043
19615W        W35749   1.479  15.281  13.141 -0.1066 -0.1091 -0.1984
19616W        W35750   6.649  11.741   0.225 -0.0967  0.0932  0.0665
19617W        W35751  12.504   0.095  14.627  0.2270  0.1324  0.2619
19618W        W35752  11.093  15.456   2.025  0.0508  0.1190 -0.1455
19619W        W35753   0.526  17.294  12.326  0.0341  0.1747  0.1499
19620W        W35754   0.946   4.563  14.806 -0.1228 -0.3187 -0.2260
19621W        W35755  11.420  11.483  11.969  0.2079 -0.0433  0.2299
19622W        W35756  11.601   6.708   2.805 -0.1853 -0.2520 -0.1072
19623W        W35757   0.095  13.101   0.820 -0.1738 -0.0130  0.1419
19624W        W35758   2.835   0.430   2.982 -0.0181 -0.4403 -0.2613
19625W        W35759   0.265   4.616  12.662  0.2891  0.1125  0.1797
19626W        W35760   6.957   0.870   0.422 -0.0819 -0.1829 -0.2056
19627W        W35761  11.802   6.149   5.403  0.3262  0.0930  0.1458
19628W        W35762   7.606  14.850   2.006  0.1723 -0.2751 -0.1024
19629W        W35763   1.037   9.088   3.666  0.1494 -0.0036 -0.2287
19630W        W35764  16.098  13.514  13.282  0.0462  0.1252 -0.2339
19631W        W35765  12.516   5.490  12.394  0.1320 -0.1529  0.1951
19632W        W35766   6.272  12.480   1.319 -0.2112  0.1708  0.0826
19633W        W35767  14.907  15.102   0.628  0.0401  0.0688  0.0046
19634W        W35768  12.520  16.867   2.832 -0.2010  0.0844  0.0876
19635W        W35769   0.938   6.287   5.496  0.1553  0.2092 -0.0899
19636W        W35770   6.303   2.417   5.508  0.1625 -0.0406 -0.0154
19637W        W35771  14.898  15.719  13.711  0.2629  0.2029 -0.1254
19638W        W35772   0.803   8.500   1.475 -0.3006 -0.0895 -0.4881
19639W        W35773  15.012   8.468   5.488  0.4498  0.0732  0.1826
19640W        W35774  16.484  10.967   0.756 -0.3226 -0.1424  0.0200
19641W        W35775   0.834  12.784   4.613 -0.0384  0.2462  0.1204
19642W        W35776   8.582  17.737   2.743  0.0976  0.1656 -0.1286
19643W        W35777  11.801   1.102   3.974  0.4033  0.0427 -0.0087
19644W        W35778  16.688   7.813   2.107  0.3150 -0.1635 -0.1775
19645W        W35779   5.314   9.779   4.724  0.0602  0.0916  0.1439
19646W        W35780   7.842   4.903  16.181  0.2366 -0.1442 -0.0330
19647W        W35781  10.887  10.919   1.241 -0.2590  0.0453 -0.0216
19648W        W35782   3.340  12.725   1.485  0.0588  0.1051 -0.0125
19649W        W35783   3.560   6.129  13.309 -0.2375  0.0055  0.0776
19650W        W35784  17.906  13.513  12.037  0.3489  0.2512  0.2616
19651W        W35785   4.063  16.183   4.910 -0.1845 -0.0705  0.2326
19652W        W35786   5.631  14.680  11.153  0.0316  0.2293  0.1244
19653W        W35787   5.075   0.738  14.102 -0.0765 -0.1506 -0.0536
19654W        W35788   2.784  17.178  16.246 -0.0588  0.0104  0.0849
19655W        W35789   6.587   0.417  16.342  0.0753  0.2401 -0.0626
19656W        W35790  10.539  17.339   4.544  0.0566 -0.1999 -0.3862
19657W        W35791  11.047   4.637   4.508 -0.0700  0.1254 -0.1455
19658W        W35792   6.112  12.525   0.856 -0.0036  0.0870 -0.0298
19659W        W35793   2.393   8.119   0.687  0.0277  0.0394  0.0804
19660W        W35794  16.887   2.625  12.740 -0.0452 -0.0996 -0.1006
19661W        W35795   6.449   0.065  13.097  0.3770 -0.5044  0.1147
19662W        W35796   2.712  15.530   1.413  0.1605 -0.0707  0.1080
19663W        W35797  14.562   3.309   4.872 -0.1377 -0.1623 -0.1371
19664W        W35798  18.022   7.094  13.897  0.2398  0.0819 -0.0512
19665W        W35799   1.504  17.269  15.057  0.1409  0.1284 -0.3928
19666W        W35800   8.970   8.325   1.238  0.1239  0.2526  0.0255
19667W        W35801   9.869  15.973   1.989  0.0398  0.1949  0.0082
19668W        W35802   4.793  17.169   2.780  0.0612 -0.1974 -0.1210
19669W        W35803  15.286   8.012  14.618 -0.1770  0.0416  0.1304
19670W        W35804   1.948   7.351   0.956  0.1277 -0.0872  0.0740
19671W        W35805  15.880  16.931   2.507 -0.0100  0.3096 -0.0397
19672W        W35806   3.631  12.846  11.554 -0.0311 -0.2196  0.1486
19673W        W35807   6.522   0.630   4.912  0.2302 -0.4126  0.0443
19674W        W35808   2.758  14.950   4.482  0.0211  0.1150  0.1770
19675W        W35809  11.304   6.098  11.330  0.2106  0.2026 -0.2220
19676W        W35810  13.955  17.360   2.035  0.1075  0.2799 -0.1013
19677W        W35811  12.143  13.067   3.071 -0.1771 -0.0331 -0.1061
19678W        W35812  10.647   1.032   4.761 -0.1136 -0.2720 -0.0212
19679W        W35813   9.573   4.809   5.609  0.1104 -0.3277 -0.0063
19680W        W35814  12.892  11.964  13.261 -0.3108  0.1669  0.0064
19681W        W35815   5.550   0.732   1.703 -0.0502 -0.3440 -0.0210
19682W        W35816   8.665   8.313   5.223  0.0284  0.0927  0.2441
19683W        W35817   0.097   0.557  12.792  0.1764  0.0176  0.2534
19684W        W35818   3.101   0.119   3.666 -0.0320  0.1668  0.0661
19685W        W35819  13.857  18.060   0.255  0.0461  0.4292  0.1206
19686W        W35820   8.094   0.099  13.822 -0.1460 -0.0798  0.1393
19687W        W35821   0.304   4.535  16.198  0.1210 -0.1530  0.0866
19688W        W35822  16.552   3.331  11.678 -0.0851  0.1109 -0.0244
19689W        W35823  10.006   5.637   1.901 -0.0415 -0.1867  0.1228
19690W        W35824  12.933  15.755   3.701  0.0990 -0.1119 -0.0220
19691W        W35825   7.634  14.380  14.508 -0.2634 -0.0706 -0.0219
19692W        W35826  15.292  12.678   4.239  0.0989  0.0931 -0.2970
19693W        W35827  15.595   9.722   1.184  0.0099 -0.1977  0.3776
19694W        W35828   3.787  10.553  13.274 -0.1755 -0.0305  0.1455
19695W        W35829  16.365  13.157   1.821 -0.0218 -0.3579  0.1649
19696W        W35830   2.268  17.094   5.239 -0.0698 -0.0422 -0.0726
19697W        W35831   7.212  16.911  15.727  0.2472 -0.0010 -0.0822
19698W        W35832   8.059   1.027   1.406 -0.0615 -0.0371  0.1380
19699W        W35833  12.671   6.878  15.347  0.0146 -0.0126  0.0845
19700W        W35834   1.568   4.084   4.749  0.0052 -0.1616  0.0065
19701W        W35835  14.107   7.606  11.728 -0.4346 -0.0067  0.3080
19702W        W35836   9.725  13.502   4.549  0.0634 -0.1244 -0.0377
19703W        W35837   3.832   6.532   4.615  0.5400 -0.0532 -0.0585
19704W        W35838   4.198   6.558  12.152 -0.3425 -0.1588  0.2393
19705W        W35839   5.325  17.198  13.518 -0.0788 -0.0583  0.2548
19706W        W35840   8.851   7.460   0.052 -0.2747  0.1532  0.0899
19707W        W35841  13.202   2.496   2.414  0.1344 -0.0083 -0.0106
19708W        W35842   6.205   2.903   4.088 -0.3830 -0.0315 -0.0777
19709W        W35843   4.853   4.690  12.625 -0.1817  0.0208  0.1176
19710W        W35844  15.573   6.656  11.394 -0.0757  0.1778  0.4146
19711W        W35845  10.187   7.016   2.064  0.0401  0.0388 -0.0433
19712W        W35846   8.813  11.406  11.087  0.0106 -0.1016  0.2304
19713W        W35847  12.399   9.960   5.103  0.2279 -0.0145  0.3818
19714W        W35848   7.146   9.001   1.376 -0.1623  0.0620 -0.1337
19715W        W35849   6.059  10.429   3.615  0.0425 -0.0744 -0.1335
19716W        W35850   9.325   1.210   2.117 -0.2559  0.0785  0.0767
19717W        W35851   3.778   4.002   5.330 -0.1842 -0.2974  0.0244
19718W        W35852   0.505   4.793   4.433 -0.1235 -0.1191  0.0945
19719W        W35853   0.128  12.019   4.399 -0.0369 -0.0112 -0.0236
19720W        W35854  12.710   1.187   3.444  0.1840 -0.2424 -0.3230
19721W        W35855   9.735   3.594  13.938  0.0486  0.2852  0.0803
19722W        W35856   1.173   5.847  13.574 -0.0483  0.0563 -0.3154
19723W        W35857  13.581  16.120   4.191 -0.0902 -0.2963  0.1728
19724W        W35858  12.010  11.396  11.306  0.2429  0.0739 -0.0695
19725W        W35859   0.410   7.431  13.840 -0.3487  0.1501  0.1233
19726W        W35860   2.152   2.816   4.035  0.1562  0.0402  0.2089
19727W        W35861  14.222   2.462  16.007 -0.2383 -0.1906 -0.0516
19728W        W35862   4.367  14.249  14.949 -0.1969 -0.0910 -0.1847
19729W        W35863   1.774  14.816   4.018  0.1148  0.1390 -0.2366
19730W        W35864   5.897  17.531  12.012 -0.1067 -0.1416 -0.3750
19731W        W35865  16.517   8.246   1.844  0.1145 -0.0225  0.0458
19732W        W35866   5.613   3.778  11.533  0.1110  0.0020  0.0536
19733W        W35867  14.302   9.428   3.231  0.2892  0.1464  0.0544
19734W        W35868   1.402   8.078  11.621 -0.0396 -0.2365  0.0297
19735W        W35869   1.751   4.342  10.715 -0.1548  0.0594  0.0639
19736W        W35870  11.983   7.967   3.900  0.0519 -0.0243 -0.1067
19737W        W35871   6.168   2.485   0.493 -0.2273 -0.2824  0.1149
19738W        W35872  14.692  10.271   5.833 -0.1038  0.1994 -0.1424
19739W        W35873   3.342   2.460   1.114 -0.3250  0.1494  0.0725
19740W        W35874   3.169  14.296   1.492 -0.0415 -0.0989 -0.3549
19741W        W35875  12.787  11.047  12.288 -0.0232 -0.0087 -0.0577
19742W        W35876   0.407  16.969   2.371  0.0488 -0.0185 -0.1710
19743W        W35877   0.426   2.357  13.790 -0.1667 -0.0939 -0.0149
19744W        W35878  17.540   3.646  13.213  0.1737  0.0249 -0.0768
19745W        W35879  12.277   9.416   0.803 -0.0428  0.0153 -0.1533
19746W        W35880  14.790   0.060  14.164  0.0840  0.1577  0.1189
19747W        W35881   6.240   3.300   0.691  0.0908 -0.1502 -0.1099
19748W        W35882   7.870  10.592   3.318 -0.0423 -0.0490 -0.0765
19749W        W35883  17.161   6.208  12.423  0.0733 -0.1198 -0.2552
19750W        W35884   5.975  16.016  12.128  0.1377 -0.0130  0.1035
19751W        W35885  18.067   6.264  15.066  0.1178  0.0639 -0.0015
19752W        W35886  14.674   1.697  15.030 -0.1162  0.0612 -0.1202
19753W        W35887   7.750  17.533   0.385 -0.0366 -0.0290  0.2370
19754W        W35888   5.618  12.180   3.574  0.0821  0.2505  0.2906
19755W        W35889  12.498   7.672  10.542 -0.0309  0.1819  0.0672
19756W        W35890   5.926   9.467  14.083 -0.1372  0.2117 -0.1281
19757W        W35891   4.039   5.276   0.745 -0.2368  0.2000 -0.4531
19758W        W35892   5.212   2.213  13.592  0.3659  0.1352 -0.2659
19759W        W35893   7.769   8.541   3.359  0.0799  0.1134  0.2307
19760W        W35894   8.734  16.224  12.731 -0.1621 -0.0851  0.0375
19761W        W35895  16.912  10.256   1.752  0.0572 -0.2335  0.0559
19762W        W35896  10.754   6.811  14.216  0.0701  0.1634  0.1266
19763W        W35897  12.769   4.919   4.991 -0.2327 -0.0297 -0.0700
19764W        W35898  17.505   8.851  11.752 -0.2370 -0.1439  0.1434
19765W        W35899   4.312   8.792  13.301 -0.0561 -0.1274 -0.0969
19766W        W35900   8.657   2.773  14.013  0.1892 -0.1385 -0.1810
19767W        W35901   1.513  17.320   2.617  0.0828 -0.1237 -0.3273
19768W        W35902   7.472   8.922  12.424  0.1177 -0.2128  0.0014
19769W        W35903   8.383   3.817  10.714 -0.3533 -0.0668  0.1078
19770W        W35904   8.022   5.001  11.428 -0.4316 -0.1874 -0.1801
19771W        W35905  11.517   6.451  11.727  0.1571  0.0490 -0.4493
19772W        W35906  11.929   9.789  16.058  0.1168  0.0164  0.2207
19773W        W35907   2.287   9.167  12.874  0.1747 -0.2306  0.1859
19774W        W35908   8.365   2.001  16.285  0.0114  0.3175 -0.0099
19775W        W35909   6.426   5.355  12.746  0.1241 -0.4532 -0.2708
19776W        W35910   3.032   3.702   0.167 -0.1472  0.0412  0.1718
19777W        W35911   7.738   6.458  14.311 -0.0691 -0.1198  0.1583
19778W        W35912  15.425   1.238  15.591  0.1172 -0.2301 -0.1138
19779W        W35913   8.727   5.626  11.746 -0.0121 -0.2132 -0.0854
19780W        W35914  14.206  13.603  14.978 -0.0364  0.0952  0.3322
19781W        W35915   5.396   7.130   0.337  0.1853 -0.0254 -0.0198
19782W        W35916   9.769   7.558  15.185  0.2449 -0.1378  0.2021
19783W        W35917   2.397   2.576  14.457  0.0861 -0.0344  0.5121
19784W        W35918   9.660   9.187   4.304  0.1512  0.2102  0.2294
19785W        W35919  12.765   8.023  16.320 -0.3019  0.2645 -0.2670
19786W        W35920  16.185   0.065   3.695 -0.6171  0.0885 -0.1868
19787W        W35921  14.349   0.853   2.754  0.0867  0.0888  0.4724
19788W        W35922   5.987   0.587   5.248 -0.1903  0.2900  0.1300
19789W        W35923   0.427   2.242   0.243 -0.0205  0.0829  0.1011
19790W        W35924   0.402  12.051   5.237 -0.0729  0.0998 -0.0522
19791W        W35925   3.607   4.004   1.015  0.1108  0.0489 -0.3325
19792W        W35926   8.286   1.168   3.667 -0.3623 -0.1525 -0.5405
19793W        W35927  14.174   4.948  13.114 -0.1859 -0.2147 -0.0594
19794W        W35928   9.878  11.817   3.565 -0.0274 -0.0076 -0.0679
19795W        W35929   3.197   2.036   3.663  0.0356 -0.3007  0.0646
19796W        W35930   3.582   0.357   0.416 -0.3964  0.2086 -0.0353
19797W        W35931  17.287  11.471   1.519 -0.0008 -0.3948  0.1035
19798W        W35932   8.020   3.565   0.264 -0.1693  0.2750  0.0636
19799W        W35933   7.643   1.909   2.783  0.1604  0.2326 -0.5041
19800W        W35934   2.124  12.048  11.929  0.0157 -0.2469  0.1468
19801W        W35935   2.677   2.179  15.849 -0.2399 -0.0656  0.3002
19802W        W35936   8.432   1.309   2.665  0.1675 -0.0938  0.0740
19803W        W35937   5.706   9.896  14.335 -0.0853  0.2061  0.2548
19804W        W35938   1.934  17.304  14.254  0.2014 -0.0550  0.2565
19805W        W35939   8.135  17.855  10.558 -0.1374 -0.1530 -0.1096
19806W        W35940   7.885  10.976   5.810  0.1657  0.0720 -0.1030
19807W        W35941   7.480   2.607   4.755  0.1938 -0.1945 -0.0299
19808W        W35942  17.383   6.410  11.345 -0.2443 -0.1345  0.0220
19809W        W35943  13.646  15.389   1.668  0.0464 -0.1043  0.0705
19810W        W35944   1.344  14.693  15.256 -0.2830  0.0842 -0.1440
19811W        W35945   2.482   8.535   0.255  0.0128 -0.1014 -0.1532
19812W        W35946  14.600   4.135  12.572 -0.4807 -0.2427 -0.0592
19813W        W35947   5.623  12.624   0.639 -0.0231 -0.1427 -0.2331
19814W        W35948   2.306  12.262  12.688  0.0106  0.4271 -0.0827
19815W        W35949  12.227   1.646  15.818  0.2568 -0.1330  0.0825
19816W        W35950   2.463   0.434   5.925  0.2852  0.1811 -0.2273
19817W        W35951   4.290  11.575   0.726 -0.1470  0.2384 -0.2649
19818W        W35952   7.088  11.916   1.130  0.0965 -0.0382 -0.0995
19819W        W35953   8.275  17.488  11.600  0.0810  0.0385 -0.0598
19820W        W35954  12.326   9.654  12.703 -0.0019  0.3292  0.0031
19821W        W35955   9.487   5.777  16.271  0.0206  0.1634  0.0442
19822W        W35956   8.408  13.353   1.160 -0.3391  0.1880  0.1774
19823W        W35957  16.880  13.102  14.296 -0.2422 -0.0862  0.0918
19824W        W35958   1.887   5.088  12.066  0.2557  0.3983  0.1517
19825W        W35959  13.489   9.507  12.503  0.0316 -0.4020 -0.2787
19826W        W35960  10.103  16.244  14.477 -0.1317 -0.0442  0.1199
19827W        W35961   3.394  17.206  12.486 -0.0297  0.1111  0.1763
19828W        W35962  17.564   8.556   1.566 -0.2091  0.0086  0.0040
19829W        W35963  17.302   2.411   1.321  0.0860  0.1103  0.1579
19830W        W35964   2.345  11.182   5.139 -0.2719  0.0155  0.3207
19831W        W35965   7.081  12.049  14.192 -0.0204  0.1704  0.0082
19832W        W35966   2.683  13.342  13.793  0.1027 -0.1521  0.3407
19833W        W35967  17.613  17.987  13.329  0.2935 -0.0252  0.2238
19834W        W35968  10.420   5.513  13.004 -0.0875  0.1027  0.1444
19835W        W35969   5.416  12.043  13.363 -0.2166 -0.1203 -0.0477
19836W        W35970  13.695   1.381  11.308  0.0805  0.4113  0.2590
19837W        W35971  17.506   8.276  13.807  0.2878 -0.3625 -0.1041
19838W        W35972  11.158   0.151   2.220  0.1141 -0.0508  0.1921
19839W        W35973  11.389  11.378   1.837  0.1438  0.0356 -0.0416
19840W        W35974  14.888   4.387   3.183  0.0021 -0.0699 -0.0388
19841W        W35975   7.055   7.793  15.508 -0.1835  0.0401 -0.1797
19842W        W35976   3.818  13.723   0.723 -0.1538 -0.0460 -0.2879
19843W        W35977  13.517   5.354   5.797 -0.0349 -0.0521  0.1765
19844W        W35978   3.508   2.190   5.079  0.0500 -0.0991  0.1342
19845W        W35979  16.070  17.810   2.763  0.0399  0.1033  0.0146
19846W        W35980  13.745  16.201  11.688  0.0294 -0.2461  0.1644
19847W        W35981   4.402   4.717  11.846  0.0981  0.1392 -0.1819
19848W        W35982   3.095   0.324   0.621 -0.0013 -0.2667  0.2692
19849W        W35983  10.351  15.854   1.938  0.0029 -0.2103 -0.2078
19850W        W35984   1.241   2.254  14.977 -0.1519 -0.1213 -0.1116
19851W        W35985   2.419  14.994   1.988 -0.1243  0.1098  0.1552
19852W        W35986   7.868  13.541   1.188 -0.2073 -0.0793 -0.1227
19853W        W35987  12.388   8.722  12.582 -0.0334  0.1352  0.0261
19854W        W35988   4.310   6.342   3.837  0.0881  0.3421  0.0113
19855W        W35989  13.247  14.037   2.965 -0.4554  0.0355  0.0929
19856W        W35990   6.411   0.741  15.079  0.0145  0.1838  0.0196
19857W        W35991  16.365  17.441  12.341  0.0481 -0.1129  0.0107
19858W        W35992   6.136   0.097  11.414 -0.2061  0.0447 -0.0630
19859W        W35993   3.469  14.739  10.852 -0.0337  0.0753  0.0411
19860W        W35994   8.286  12.596  12.250  0.2064 -0.0295  0.0471
19861W        W35995  12.233  13.524   2.091 -0.2413  0.2203 -0.0630
19862W        W35996  13.358  14.464   2.202 -0.1263 -0.2309  0.0703
19863W        W35997  11.026  11.481   2.939 -0.1016 -0.3319  0.1022
19864W        W35998  11.006   8.698   3.332 -0.2134 -0.0877  0.1636
19865W        W35999  12.029  16.803   2.654  0.1531 -0.0012  0.0539
19866W        W36000   9.256   1.336   2.610 -0.0505 -0.0012  0.0208
19867W        W36001   7.413  14.840  14.647 -0.1594 -0.0218  0.0176
19868W        W36002   6.593   1.677  16.227 -0.1662 -0.0698  0.0524
19869W        W36003  12.384   7.235   3.784 -0.2947 -0.2073 -0.1449
19870W        W36004  14.003   2.690  12.207  0.2820 -0.0377  0.2207
19871W        W36005  17.155  13.893   1.235  0.0875  0.1619  0.1044
19872W        W36006   9.919   6.931   2.550  0.4756 -0.1077 -0.3163
19873W        W36007  16.616  10.515   4.440  0.2217  0.0971 -0.0469
19874W        W36008   6.951  10.471   3.131 -0.3662  0.3073 -0.2212
19875W        W36009  17.613   9.229  11.439  0.0397 -0.0273  0.0988
19876W        W36010   7.998   5.059  11.986  0.0609 -0.1636 -0.2121
19877W        W36011   1.067   5.529   3.317  0.1462  0.1439 -0.0827
19878W        W36012  14.694  14.883   1.809 -0.0854  0.0279  0.1334
19879W        W36013   3.513  17.572  12.828  0.0061 -0.2653 -0.0147
19880W        W36014   4.679   7.360  12.669 -0.1078 -0.0038 -0.2217
19881W        W36015   3.387  10.178   0.872 -0.1656 -0.2840  0.0094
19882W        W36016  15.351   9.444  14.689 -0.1359  0.1080 -0.1469
19883W        W36017  15.297   5.532   4.324 -0.2876 -0.2268 -0.3461
19884W        W36018  14.887   8.416  14.457  0.0922 -0.0586 -0.2215
19885W        W36019   7.862  11.003  13.691 -0.1565 -0.0739 -0.0624
19886W        W36020   0.664  14.335  13.882  0.2035  0.0930 -0.0222
19887W        W36021   4.499  13.761  15.414 -0.2101 -0.1559  0.0729
19888W        W36022  16.727  15.484  12.114  0.2544  0.2131  0.0035
19889W        W36023   4.589  13.769  13.755 -0.2178 -0.1994 -0.1206
19890W        W36024   2.402  12.403  13.566  0.1558 -0.1452 -0.2687
19891W        W36025  11.788  10.252  16.281 -0.3569  0.0188 -0.0036
19892W        W36026  15.392  12.325  11.471 -0.2042  0.1411 -0.0874
19893W        W36027   5.597   0.595  13.497 -0.1468  0.1171 -0.1325
19894W        W36028   9.643   1.303  12.159  0.0194  0.2361  0.1877
19895W        W36029   8.700  16.013  14.524 -0.0659  0.2819  0.1434
19896W        W36030   5.046  14.492   5.744 -0.0931  0.1262 -0.1389
19897W        W36031   1.862  16.997   2.506  0.1951 -0.0035  0.0870
19898W        W36032   8.203   8.430   3.040  0.3230 -0.0894  0.0281
19899W        W36033   7.679  11.289   1.590  0.1750  0.0368 -0.0486
19900W        W36034   2.614  11.016  10.826  0.1810  0.0602 -0.2681
19901W        W36035   9.341  13.131  11.145 -0.1491  0.1057  0.0324
19902W        W36036   0.753   4.928  13.860  0.2350 -0.1824 -0.2203
19903W        W36037   8.953   9.262  15.807  0.2611 -0.0298  0.1718
19904W        W36038   4.455  15.462   4.572 -0.5023 -0.2394 -0.0478
19905W        W36039   4.461  16.309  15.240  0.1391  0.1751  0.0358
19906W        W36040   4.590  11.193  12.997 -0.1719 -0.0858 -0.0421
19907W        W36041  13.492   3.718   3.876 -0.1042  0.1098  0.0592
19908W        W36042   2.229   2.624  11.569 -0.1784  0.0972 -0.1658
19909W        W36043  14.919  17.376  10.702 -0.0800 -0.4382 -0.0595
19910W        W36044  17.853   3.601  12.493 -0.0965  0.2871  0.2404
19911W        W36045   7.241   2.118  15.707  0.1335 -0.3335  0.4391
19912W        W36046   4.343  17.935   5.874  0.2076  0.0326  0.2163
19913W        W36047  10.901  11.826   3.446 -0.1470 -0.2205  0.0163
19914W        W36048  13.853   4.657  12.813 -0.5188 -0.3299 -0.1308
19915W        W36049   7.399  11.315  11.340  0.2795  0.2567 -0.1940
19916W        W36050   6.876   9.950  14.793 -0.0031 -0.1551  0.0182
19917W        W36051   2.844  17.640  13.548 -0.2583  0.0137 -0.0081
19918W        W36052  14.876  13.663  14.923  0.0412 -0.0445 -0.1350
19919W        W36053   8.028  16.880  13.791 -0.2062 -0.2482 -0.1251
19920W        W36054  12.806   8.871   0.269 -0.0742 -0.0985 -0.1615
19921W        W36055   5.143   2.474  11.934 -0.0696 -0.3433 -0.0070
19922W        W36056   6.952   4.077  12.215  0.0468 -0.0419  0.0423
19923W        W36057  13.128   0.044  16.036 -0.1086  0.1908  0.3896
19924W        W36058   8.551   3.750   4.974  0.0998 -0.1988 -0.1715
19925W        W36059  12.193   6.509  11.983 -0.0995  0.0308  0.1308
19926W        W36060   9.435   6.759   2.671  0.4194 -0.1552  0.0713
19927W        W36061  14.357  15.578  12.131  0.1174  0.1382  0.1136
19928W        W36062   0.714  10.251  14.473  0.2176 -0.1508 -0.3606
19929W        W36063   7.556  15.590  13.966  0.0827  0.2739 -0.4130
19930W        W36064   9.734   1.768  14.649  0.0597 -0.0634 -0.1446
19931W        W36065   8.367  17.744  14.427  0.1316  0.0934  0.1599
19932W        W36066   4.766  14.761  16.077 -0.1195  0.0632  0.1594
19933W        W36067  12.479   0.438  15.361  0.0947  0.0088  0.1192
19934W        W36068  11.202  17.837  13.604 -0.2237 -0.3140  0.1095
19935W        W36069   5.169   9.989  16.110  0.1269  0.1419  0.0220
19936W        W36070  11.061   6.994  13.340 -0.1431  0.0384  0.0123
19937W        W36071   6.633   5.191  14.197  0.0830  0.0113  0.0448
19938W        W36072   3.901   8.639   0.934 -0.0926  0.1858 -0.0413
19939W        W36073   0.177   3.303   2.729 -0.2663  0.0983 -0.1009
19940W        W36074  11.856   0.203  15.945  0.1584  0.2900  0.0806
19941W        W36075  10.827   9.724   6.404  0.1362  0.0575 -0.2423
19942W        W36076   6.402  14.513  13.853 -0.0729  0.2113 -0.3144
19943W        W36077   6.451  17.042  12.969  0.3363  0.2406 -0.3762
19944W        W36078   3.618  13.648  15.249  0.2179  0.0901 -0.0078
19945W        W36079   3.517  10.239  15.929  0.0678  0.2723  0.1497
19946W        W36080  16.829   5.775  14.546 -0.0495  0.2766  0.0159
19947W        W36081   1.273   3.274  16.285 -0.0710 -0.0214  0.1042
19948W        W36082   2.841  12.850  11.271  0.1667  0.0509 -0.3604
19949W        W36083   2.246  16.568  15.502 -0.1202 -0.0165  0.0544
19950W        W36084   9.008  14.871   3.939 -0.4000  0.4619  0.0092
19951W        W36085   0.873   4.148  14.409  0.0954  0.0903  0.0431
19952W        W36086   3.801  13.398   2.580  0.0907  0.1535  0.1222
19953W        W36087  13.454  17.686  15.706 -0.0279 -0.1312  0.1466
19954W        W36088   9.216   7.490   0.502 -0.3509 -0.0213 -0.1118
19955W        W36089   0.553  13.852  16.388 -0.0302  0.0887 -0.2253
19956W        W36090   8.773  12.998  13.064 -0.1903 -0.0531  0.0368
19957W        W36091   3.839   9.221  11.558  0.2038  0.0928  0.0683
19958W        W36092  14.135  14.859  14.462 -0.0120 -0.0624 -0.1024
19959W        W36093   7.037   5.047  15.654 -0.1250 -0.3111 -0.3774
19960W        W36094   2.151   6.195  15.578 -0.1062 -0.3931 -0.1051
19961W        W36095  14.824   5.366   4.279  0.1193 -0.1130 -0.2905
19962W        W36096   8.262   8.051   0.500  0.1103  0.5232  0.1158
19963W        W36097  13.710  11.786  15.510  0.1777  0.0863  0.2012
19964W        W36098  11.345  13.986  14.707 -0.4604 -0.1009 -0.1662
19965W        W36099   9.377   3.355  16.103  0.0184 -0.0438  0.0507
19966W        W36100   0.048   0.647  14.051 -0.2183  0.2921 -0.0447
19967W        W36101  16.716   6.818   0.486 -0.1352 -0.0819  0.2674
19968W        W36102  12.983  17.602  15.341 -0.2653  0.0140 -0.1813
19969W        W36103   9.225  13.426  11.629  0.2022  0.1517 -0.0841
19970W        W36104   1.408  17.131   4.725 -0.0912  0.1051 -0.0747
19971W        W36105   2.966  10.499  11.695 -0.1138 -0.0074  0.1897
19972W        W36106   6.729  13.069   0.630 -0.1128 -0.1332  0.1762
19973W        W36107  14.034   1.056   4.096 -0.0136 -0.1475 -0.2996
19974W        W36108   9.033   7.766   3.842  0.0811 -0.0006  0.0943
19975W        W36109  17.663   4.019   4.994 -0.0636  0.1134  0.2859
19976W        W36110   5.718   8.610   2.873  0.3097  0.1097 -0.0710
19977W        W36111   8.969  17.372  12.262 -0.2133  0.1052 -0.2647
19978W        W36112  13.649   8.508  12.112  0.1715  0.1802 -0.1006
19979W        W36113   1.091   2.974   0.257  0.0469 -0.0210 -0.0543
19980W        W36114   0.145   7.102  16.273  0.3132  0.1522  0.2503
19981W        W36115  10.147  12.176  14.070 -0.2708  0.4382  0.0321
19982W        W36116  12.550   0.312  13.361  0.3151 -0.1574 -0.1695
19983W        W36117   9.481   1.270  14.371  0.0244 -0.1442  0.4301
19984W        W36118   5.235   8.982  13.750 -0.0434  0.2323  0.3164
19985W        W36119   8.003   1.472   4.460 -0.0058  0.0350  0.3976
19986W        W36120   6.159  17.517  13.006  0.2094 -0.2727 -0.5145
19987W        W36121  15.908  12.141  15.675  0.0477  0.0479 -0.0207
19988W        W36122  15.442   5.715   0.483 -0.1501  0.0458  0.2548
19989W        W36123   5.463   2.614  14.919 -0.0582 -0.2669 -0.1909
19990W        W36124  16.905  13.752   6.336  0.1498  0.0509 -0.1783
19991W        W36125  10.225   7.182  13.893 -0.1207 -0.3119  0.2629
19992W        W36126  10.786  13.151  12.668 -0.0943  0.0736  0.0092
19993W        W36127  11.901   1.618  13.285  0.1050 -0.2092  0.3070
19994W        W36128  11.032  11.349  11.168 -0.2171 -0.1201  0.1690
19995W        W36129  16.862   5.241  14.290 -0.0011  0.0561  0.0340
19996W        W36130  12.464   1.166  13.952  0.0187 -0.2333 -0.2510
19997W        W36131  11.539  17.432  12.547 -0.3808  0.0281 -0.1298
19998W        W36132   2.079   8.451  16.396 -0.0164  0.0618  0.1714
19999W        W36133   3.153  15.932  14.794 -0.1676 -0.0640 -0.0751
20000W        W36134  14.566  16.278   3.390 -0.2022 -0.1034  0.1479
20001W        W36135  16.166  14.936   0.299  0.1400  0.2960  0.0758
20002W        W36136  11.214   6.415  15.932 -0.2123 -0.1540  0.3635
20003W        W36137   2.385  16.979  14.234  0.0412 -0.3345  0.3689
20004W        W36138  17.354   3.297   5.718 -0.1568  0.3122 -0.0898
20005W        W36139  12.092   2.188   2.191 -0.0423  0.1356  0.0232
20006W        W36140   8.557   4.066  11.110 -0.1438 -0.1506 -0.2869
20007W        W36141   9.052  11.257  14.512 -0.2266 -0.0322  0.0357
20008W        W36142   3.879   6.581  14.559  0.2773 -0.0350 -0.1915
20009W        W36143   0.215  10.479  14.301 -0.0278 -0.2028 -0.0875
20010W        W36144   8.742  13.152   1.917 -0.2242  0.0735 -0.2812
20011W        W36145   3.209  15.545   3.420  0.2430 -0.1653  0.2281
20012W        W36146  12.214   1.149   3.463 -0.2279  0.0618 -0.1262
20013W        W36147   4.211   2.443   2.197 -0.1946 -0.0617 -0.0160
20014W        W36148  10.713   9.368   1.086 -0.0293 -0.0159  0.1352
20015W        W36149  13.777   0.636   2.239  0.1753  0.2235  0.0315
20016W        W36150  11.624   8.220  15.983 -0.2114  0.0645  0.0068
20017W        W36151  12.673   1.725  15.652 -0.0426 -0.0410  0.0641
20018W        W36152   8.999  12.082  15.503 -0.0478  0.0221  0.0788
20019W        W36153   5.057  17.450   1.599  0.2530  0.1639 -0.0719
20020W        W36154   3.303  11.544   4.150 -0.2180 -0.3763 -0.0787
20021W        W36155  10.977  18.077  15.929  0.1491 -0.0004 -0.0892
20022W        W36156   1.921  13.175  15.083  0.1300  0.0106 -0.1324
20023W        W36157   2.565  13.229   1.844 -0.1659 -0.0440  0.1411
20024W        W36158  15.136  14.542  12.084 -0.1027  0.1705  0.1417
20025W        W36159   6.500  17.031   0.848  0.0744 -0.2808 -0.1088
20026W        W36160   8.474   6.643   3.312 -0.1045  0.2441 -0.0272
20027W        W36161  13.631   0.049   2.986  0.0556 -0.0291  0.1254
20028W        W36162  12.752  16.664   2.379  0.0747  0.0212  0.1508
20029W        W36163   2.634   7.747  11.749 -0.0503  0.0049 -0.2608
20030W        W36164   9.396  13.294  16.130  0.2090  0.0907 -0.3371
20031W        W36165  16.165  14.592  14.682 -0.0936  0.1260  0.1651
20032W        W36166   4.265   3.037   0.231 -0.1775 -0.1609  0.0799
20033W        W36167  10.608  15.827   5.033 -0.0864  0.0692 -0.0615
20034W        W36168   4.942   0.607   4.724  0.0602 -0.0536 -0.0145
20035W        W36169   8.593   6.093  11.634 -0.0514 -0.1955 -0.1297
20036W        W36170  15.854   7.931   1.249  0.0313  0.0854 -0.0620
20037W        W36171   0.388   8.465   2.682  0.1847  0.0633 -0.0151
20038W        W36172  17.315  17.463  11.363 -0.0113 -0.0504  0.1159
20039W        W36173  11.974   6.064  11.773 -0.1349  0.1599  0.0232
20040W        W36174  13.271   9.598   3.112  0.0608  0.0903  0.2328
20041W        W36175   8.970   3.975   3.800 -0.1995  0.1002 -0.1865
20042W        W36176   1.341   0.803  13.860  0.1031 -0.4982 -0.0330
20043W        W36177   6.947  18.012   0.263 -0.2551 -0.0743 -0.0810
20044W        W36178   0.449  11.675   1.427 -0.1667 -0.0833 -0.0072
20045W        W36179  14.428  11.426  12.042 -0.1923  0.0868 -0.0718
20046W        W36180   2.833   7.282  14.291 -0.0600 -0.1554  0.2805
20047W        W36181  11.624   3.898   0.042 -0.0697 -0.0814 -0.1335
20048W        W36182   3.090   0.469  15.367 -0.0337 -0.1249 -0.2169
20049W        W36183  11.837   1.060   2.232  0.1581 -0.0186 -0.0732
20050W        W36184   8.278  14.955  14.372 -0.1805  0.0102 -0.0688
20051W        W36185   6.550  16.762   2.874  0.0024  0.0868  0.1331
20052W        W36186  10.577  15.390   2.739  0.1422  0.1408 -0.0578
20053W        W36187   3.958  15.298   2.201 -0.0284  0.0397  0.1531
20054W        W36188  14.562  16.183   0.759  0.1981 -0.2596  0.0973
20055W        W36189   0.608  10.771   0.210  0.1314  0.0084  0.2678
20056W        W36190   8.265   0.639   4.395 -0.1456  0.1860  0.0539
20057W        W36191   6.981  13.919  13.757 -0.5429  0.0912 -0.0617
20058W        W36192  13.733  14.778   4.463 -0.1714  0.1606  0.0352
20059W        W36193   4.249  12.648   2.977 -0.2959  0.0568 -0.0379
20060W        W36194   2.904   8.955  14.979  0.1113  0.0076 -0.3711
20061W        W36195   9.398   2.601   4.369 -0.3080  0.0411 -0.1587
20062W        W36196  10.513  17.878   0.737 -0.0194  0.0843 -0.0193
20063W        W36197   8.737   1.395   4.269  0.3168  0.0030 -0.0167
20064W        W36198  15.948   4.963  15.218 -0.1828 -0.0109 -0.1515
20065W        W36199   2.069  17.875   5.098  0.2220  0.0560  0.3304
20066W        W36200  15.421  15.144   4.849 -0.2482 -0.0444 -0.0154
20067W        W36201  12.796  17.774   1.529  0.1470  0.1269  0.2530
20068W        W36202   2.952   6.054  10.990  0.4462 -0.3739 -0.1002
20069W        W36203  10.916   2.880   1.389 -0.1587 -0.2175  0.0128
20070W        W36204   3.821  10.141  15.521  0.2945  0.1679  0.1128
20071W        W36205  17.868   7.326   1.714  0.1661 -0.1742  0.1046
20072W        W36206  10.676   2.102   0.156  0.0055  0.2017 -0.2163
20073W        W36207   7.775   2.634   5.163 -0.0504 -0.0708 -0.1433
20074W        W36208   2.743  11.634   3.373 -0.1834  0.0061 -0.2400
20075W        W36209   8.824   3.755  12.881  0.1108 -0.2317 -0.1990
20076W        W36210  10.867  11.288   3.440 -0.0002 -0.0329  0.2880
20077W        W36211   2.398  17.086  14.753 -0.0051 -0.1681  0.1518
20078W        W36212   3.763  14.960  14.417 -0.0416  0.1955  0.1559
20079W        W36213   8.807   4.818   4.734 -0.1599 -0.0017 -0.0163
20080W        W36214  12.736   1.962  16.407 -0.1652  0.0419 -0.1535
20081W        W36215  15.155  15.783  16.344  0.1956 -0.1067  0.1070
20082W        W36216  12.621  12.205   3.344  0.0877  0.0882  0.0344
20083W        W36217  18.059   7.640   3.090 -0.1902 -0.3342  0.3422
20084W        W36218   4.335   1.814  15.401 -0.0427 -0.2189  0.0424
20085W        W36219  17.996   0.622   4.955 -0.3134  0.0257  0.1758
20086W        W36220   8.514   0.553   2.149 -0.1335 -0.2257 -0.0939
20087W        W36221   0.293  16.995   1.524 -0.0918  0.0725 -0.2451
20088W        W36222  13.974  13.816  16.375 -0.1624  0.2353  0.0688
20089W        W36223   9.431   6.601   4.216 -0.0030  0.0355 -0.1228
20090W        W36224   3.498   6.264  11.818 -0.2157  0.1000  0.1401
20091W        W36225   8.713   5.632   0.611 -0.1586  0.0359 -0.2230
20092W        W36226   1.770  13.911  12.995 -0.2171  0.2296  0.3783
20093W        W36227   7.638   2.762  14.399 -0.0619  0.1955  0.0251
20094W        W36228  11.335   0.096   4.719  0.3366  0.1214  0.1389
20095W        W36229  11.763   1.651   4.110  0.0462 -0.1205  0.0034
20096W        W36230   1.489   4.414  11.593  0.1795  0.2280  0.2129
20097W        W36231  13.600   9.820  15.084 -0.0787 -0.0347 -0.0820
20098W        W36232   0.439   7.228  11.966  0.0204 -0.0786 -0.0666
20099W        W36233  13.395   6.549   5.533  0.0748 -0.0177 -0.2868
20100W        W36234   3.504   5.215  14.997  0.1029 -0.0409  0.1574
20101W        W36235  13.493   3.333   0.344  0.3456 -0.0738 -0.4363
20102W        W36236   6.892  14.433  13.726 -0.2327 -0.2845  0.2129
20103W        W36237   9.309  12.189   5.030  0.0824 -0.3153  0.2556
20104W        W36238  12.353  16.189  15.933 -0.2755  0.2593  0.0076
20105W        W36239  17.853   8.081   0.771  0.0281 -0.2416  0.0813
20106W        W36240   9.316  14.725  12.769 -0.1842 -0.0452 -0.0687
20107W        W36241  15.511   3.625  12.664 -0.0798  0.0017  0.2861
20108W        W36242  14.161   7.336  13.562 -0.1848  0.0663  0.2385
20109W        W36243   0.168   6.555   1.493 -0.1848 -0.0212  0.1322
20110W        W36244  15.296  17.635   3.873 -0.0392 -0.0067  0.0856
20111W        W36245   6.550   5.217  13.685 -0.0537  0.2954  0.0605
20112W        W36246  12.638   8.354   1.845 -0.0822  0.1860  0.1341
20113W        W36247   7.452  16.415  15.390  0.0278  0.2082  0.1574
20114W        W36248  10.197   9.714  15.253  0.3034 -0.0970 -0.0320
20115W        W36249   7.088   5.150  16.178 -0.0741 -0.2380 -0.1651
20116W        W36250   3.641   9.321  12.169 -0.0291 -0.1893  0.2092
20117W        W36251  15.901  17.012   6.079 -0.1495 -0.2441  0.1906
20118W        W36252  17.837   3.540   4.979 -0.0324  0.3386 -0.2431
20119W        W36253   0.851   6.952   2.957 -0.0909 -0.0651  0.3891
20120W        W36254  17.770   4.099   3.939 -0.0795 -0.2332  0.0161
20121W        W36255   2.989   9.505   2.220 -0.0811 -0.0822  0.0492
20122W        W36256  14.831   2.887  14.318  0.0533 -0.1655  0.0507
20123W        W36257  12.495   1.803   0.472  0.0894 -0.1920 -0.1194
20124W        W36258  14.229  13.590  13.047  0.1939 -0.2507 -0.0405
20125W        W36259   9.325   0.092   4.952 -0.1792 -0.1005 -0.0561
20126W        W36260   0.395   9.953   4.504 -0.2676  0.0258  0.1084
20127W        W36261   3.577   2.856  11.076 -0.1385  0.0582 -0.1328
20128W        W36262  11.580  10.623  15.435  0.1544 -0.1852  0.0641
20129W        W36263  17.531   6.179   4.785 -0.1776 -0.2581  0.3849
20130W        W36264  13.822   8.633  14.119 -0.0960 -0.1286 -0.1484
20131W        W36265  16.593  14.227  10.450 -0.0375  0.1367  0.0148
20132W        W36266  17.740   0.381   2.656 -0.2350 -0.3391  0.1316
20133W        W36267   3.714  13.771  14.723 -0.0381  0.1243 -0.0862
20134W        W36268   9.884  10.352  15.712 -0.0199  0.3432  0.1085
20135W        W36269   2.099   3.772  11.531 -0.1511  0.1960 -0.2067
20136W        W36270   8.378   0.528  13.809 -0.0725  0.3428 -0.1446
20137W        W36271   3.536   7.227  14.400 -0.1420  0.0393 -0.3228
20138W        W36272  10.261   4.561  13.019  0.0161  0.1826 -0.0133
20139W        W36273  12.115  15.654   4.427  0.2038 -0.0465  0.0467
20140W        W36274   2.186   9.314   5.382  0.0234 -0.0984 -0.0331
20141W        W36275   4.253  16.110  12.251  0.0271  0.0280  0.0271
20142W        W36276  11.595  14.221  16.044  0.0724 -0.0318  0.2137
20143W        W36277   9.435   9.053   3.314 -0.2798 -0.3161 -0.0669
20144W        W36278   6.186  10.838  16.323  0.0001  0.0741 -0.0482
20145W        W36279   3.025  12.283   1.354  0.0874  0.0121 -0.0862
20146W        W36280  15.662   9.401  16.106  0.2653 -0.2206 -0.0499
20147W        W36281  12.079   2.274   1.665 -0.1672 -0.2302  0.0418
20148W        W36282   9.125   5.371  13.636  0.2489 -0.1305  0.0601
20149W        W36283   5.582  15.619  13.901  0.0596  0.3761  0.2367
20150W        W36284  14.484   1.068  11.935  0.0716 -0.1513  0.0703
20151W        W36285   7.730   5.329  14.674 -0.1755 -0.1520  0.3246
20152W        W36286  12.628  13.815   4.111  0.1763 -0.0164  0.0750
20153W        W36287   2.181  15.376   1.618  0.1960  0.0432  0.0028
20154W        W36288  17.642   1.232  11.991 -0.0842 -0.2707  0.2578
20155W        W36289   5.125  13.206   3.660  0.0506  0.0246 -0.0249
20156W        W36290  13.519  17.996  16.276  0.2053  0.0145  0.0062
20157W        W36291   2.636   6.233   3.818 -0.0082  0.0105 -0.2544
20158W        W36292   0.511  13.414  14.634 -0.3918 -0.1528 -0.0274
20159W        W36293   8.105   5.167  14.943 -0.2455 -0.0770 -0.1679
20160W        W36294  15.551   7.685  12.556 -0.0542  0.0597 -0.0219
20161W        W36295  10.602  16.253   2.228 -0.0756 -0.0301 -0.0244
20162W        W36296   5.636  17.422  13.180 -0.1917 -0.0745  0.0744
20163W        W36297   2.996   6.775   4.635 -0.1826  0.0194 -0.1253
20164W        W36298   2.358  13.851   3.704 -0.1377  0.0465 -0.0354
20165W        W36299   3.533  13.017  15.137  0.1417  0.1066  0.1906
20166W        W36300   1.211  10.350   6.047 -0.1053  0.1328  0.0129
20167W        W36301   0.336  15.774   4.753  0.1298  0.1833  0.0207
20168W        W36302  13.426  10.348  12.448  0.2142  0.0191  0.2261
20169W        W36303   0.632  11.518   3.444 -0.0279 -0.0190 -0.1109
20170W        W36304   5.206   0.355   5.058 -0.0037 -0.0052 -0.0636
20171W        W36305   5.780  17.390  14.426 -0.0212 -0.0073  0.2632
20172W        W36306  17.342  14.459  13.536  0.0523 -0.1984 -0.1399
20173W        W36307  15.845  10.210  13.098  0.0545 -0.1452 -0.1231
20174W        W36308  12.016   4.852  15.317  0.3149 -0.0251  0.1502
20175W        W36309   5.106  11.996   2.915 -0.1949 -0.0256  0.0650
20176W        W36310  16.860   2.716  14.344 -0.0235  0.2309  0.0262
20177W        W36311  11.416   7.084   3.701  0.1596  0.0837  0.1791
20178W        W36312   6.057  15.492   2.001  0.2157 -0.0056 -0.1451
20179W        W36313  15.103   3.048   0.873 -0.0182  0.0547 -0.1584
20180W        W36314   5.941   5.887  13.737 -0.1217  0.0577 -0.0818
20181W        W36315   9.133  12.848   5.434 -0.0622 -0.2492 -0.2053
20182W        W36316   6.185   3.157  11.779 -0.0178  0.1898 -0.1289
20183W        W36317   1.347  13.759  13.536  0.2558  0.1545  0.0734
20184W        W36318   4.314   9.011   3.028  0.1656 -0.2512 -0.1217
20185W        W36319  16.452  11.925  14.568 -0.0066 -0.1002  0.0900
20186W        W36320  11.811  11.472  14.164 -0.1074 -0.1020 -0.1112
20187W        W36321  13.237   5.983   2.253 -0.1356  0.0580  0.1619
20188W        W36322   5.587  17.036   4.365  0.0823  0.1245  0.1424
20189W        W36323   9.277  11.683  11.144 -0.1155  0.1734  0.0955
20190W        W36324   8.566   9.516   1.477 -0.0487 -0.0285 -0.2482
20191W        W36325  10.529   0.179   0.285  0.1519  0.1892 -0.2636
20192W        W36326  15.665  10.650   1.123 -0.0149  0.0740 -0.1077
20193W        W36327   8.322   4.670  11.890 -0.0146 -0.0531 -0.1249
20194W        W36328   5.284   8.662  12.301 -0.1373  0.1325 -0.0813
20195W        W36329   7.471   2.559  14.920  0.0013 -0.1218  0.0803
20196W        W36330   9.248   6.113   1.751  0.2590 -0.1444  0.0194
20197W        W36331   3.414  17.146   0.450  0.2196  0.3960  0.0396
20198W        W36332   5.999   9.826   3.527 -0.0657 -0.2356 -0.0684
20199W        W36333   3.902  16.767   5.462 -0.1052  0.1215  0.0624
20200W        W36334   2.093   8.365   4.751  0.0707  0.2128  0.2135
20201W        W36335   3.757   3.160  14.213  0.0044 -0.1870 -0.0616
20202W        W36336  10.472  15.773  15.352  0.1142  0.0008  0.0852
20203W        W36337  15.768  11.449  11.049 -0.1223 -0.0258 -0.0299
20204W        W36338  14.663  14.893  13.738 -0.1987  0.0945  0.2165
20205W        W36339  14.728   0.822   0.064  0.0548  0.1729  0.0986
20206W        W36340  12.379  14.577  13.432  0.2256 -0.0852 -0.1708
20207W        W36341   9.438  15.284   4.614 -0.1980 -0.1599  0.2290
20208W        W36342   2.134   7.337   3.206 -0.0278 -0.0208 -0.2706
20209W        W36343  14.407   8.660  13.409 -0.0585  0.0126 -0.1412
20210W        W36344   5.456  10.049   0.575 -0.0685 -0.2207  0.0586
20211W        W36345  13.207  15.683   0.158 -0.2017 -0.0772 -0.0888
20212W        W36346  14.943  11.640   3.380  0.2276 -0.2975 -0.0253
20213W        W36347   9.437  10.405  14.656 -0.0888  0.0190  0.0037
20214W        W36348  11.209  17.549  12.199  0.0140  0.0162  0.3591
20215W        W36349  10.657  14.669  15.975  0.1368 -0.0807 -0.1878
20216W        W36350  12.430  15.031  13.722 -0.2848 -0.1375 -0.3071
20217W        W36351   2.065   2.863   4.551 -0.0050  0.2929 -0.4843
20218W        W36352   1.129  17.206   1.225 -0.0542  0.3877  0.0744
20219W        W36353   6.531  10.573  11.363 -0.1122  0.3248  0.2178
20220W        W36354   6.264   3.153   3.724 -0.0819  0.3087  0.0932
20221W        W36355   6.852   5.072   1.572  0.1636 -0.0525 -0.1207
20222W        W36356   4.461   5.833   4.609  0.0491  0.0723  0.1943
20223W        W36357   6.881   9.374  11.594 -0.0534  0.0314 -0.0578
20224W        W36358   1.975  10.504   1.049 -0.1235  0.0178  0.0140
20225W        W36359  18.031  17.325  12.682 -0.2884  0.1433  0.2086
20226W        W36360   4.606  10.409   3.505 -0.2494 -0.0024 -0.0677
20227W        W36361  17.237   2.375  15.806 -0.0096 -0.1001  0.2874
20228W        W36362  10.704  14.477  11.109 -0.1253  0.0068 -0.3081
20229W        W36363  10.056  17.584   1.798  0.0951 -0.3162 -0.0587
20230W        W36364   5.976   9.766   1.347 -0.1329 -0.1114  0.1051
20231W        W36365   6.867  11.442   3.067 -0.1835  0.1649 -0.2110
20232W        W36366  10.753  16.936   0.310  0.0824  0.2703 -0.0458
20233W        W36367   4.478  16.128   1.906  0.0154  0.1896 -0.1873
20234W        W36368  18.028   7.817  14.173  0.0147 -0.2322 -0.0496
20235W        W36369   9.004  11.243   3.728  0.0875  0.0076 -0.3717
20236W        W36370   1.750  12.103   2.187 -0.0010  0.0787  0.0858
20237W        W36371   4.132   1.306   2.830 -0.1192  0.1268  0.0897
20238W        W36372  16.375  16.848   3.926  0.3338 -0.1697  0.1570
20239W        W36373   3.723   3.174   0.745 -0.1569 -0.1829 -0.1116
20240W        W36374  17.755   3.032   2.907 -0.0304  0.0842 -0.0324
20241W        W36375  17.765   1.780   3.908  0.0192  0.1420 -0.0542
20242W        W36376  15.562   6.736   4.418 -0.2427 -0.1024  0.3975
20243W        W36377   1.282   7.887  15.406  0.0431 -0.1242 -0.0385
20244W        W36378   8.335  13.964  11.689 -0.0193 -0.3402  0.0976
20245W        W36379   0.479   1.035   0.097 -0.1454 -0.1224  0.2077
20246W        W36380  14.363   5.009   2.297 -0.1173 -0.0706  0.1649
20247W        W36381  13.232   6.686   1.950  0.0504  0.2663  0.4084
20248W        W36382  14.689   9.637   2.958 -0.2416 -0.1787 -0.0142
20249W        W36383   8.679  16.608   3.480 -0.0140 -0.0765  0.0142
20250W        W36384   2.495   8.064   3.473 -0.2298 -0.5576 -0.1761
20251W        W36385   5.043   7.885   4.755 -0.2136  0.0655 -0.0282
20252W        W36386   7.848   5.355  15.341 -0.1959 -0.1670 -0.0902
20253W        W36387   3.470   2.931  11.913 -0.1344 -0.2024  0.2328
20254W        W36388   2.789  17.236  15.028 -0.1921 -0.0423 -0.2042
20255W        W36389   9.674  17.059  13.959 -0.0336  0.0188 -0.2540
20256W        W36390   0.050   1.249  14.529 -0.1366 -0.1089 -0.1556
20257W        W36391  12.097  13.070   3.647  0.2111 -0.0253  0.2557
20258W        W36392  17.545  16.307  13.537  0.0365 -0.0146 -0.1022
20259W        W36393   3.897   4.987   3.347 -0.2776  0.0899 -0.0633
20260W        W36394  17.330   7.098   1.685  0.1161  0.1562 -0.0682
20261W        W36395  10.240  15.041  13.867 -0.2662  0.0848 -0.3070
20262W        W36396   4.456   9.793   5.347 -0.0035  0.4342 -0.1675
20263W        W36397   7.595  14.344   4.829  0.2314  0.4547  0.2447
20264W        W36398  17.366   6.105   3.995 -0.2301 -0.1347  0.0322
20265W        W36399   8.747   9.477  14.755  0.0409 -0.0100 -0.0507
20266W        W36400  13.921   4.821   2.011 -0.2602 -0.0245  0.1149
20267W        W36401  11.990   1.412  14.205  0.1495  0.1079  0.0659
20268W        W36402  11.683  13.635   4.866  0.0754  0.1879 -0.1764
20269W        W36403   9.898  15.977  11.694  0.0033  0.0098 -0.2908
20270W        W36404   5.942   6.375  13.784  0.1725 -0.1339 -0.4162
20271W        W36405  13.713  17.896  14.886 -0.3563 -0.0678 -0.0014
20272W        W36406  14.937   2.818  12.363  0.3505  0.1221  0.3025
20273W        W36407   5.880  13.870   1.412 -0.3375 -0.0645  0.1628
20274W        W36408  17.241   4.393   3.372  0.3208  0.0797 -0.0103
20275W        W36409  10.705   8.388   4.076  0.3278 -0.0015 -0.0517
20276W        W36410   6.428  15.325   0.299 -0.2496  0.1276 -0.1623
20277W        W36411   0.853   9.756   0.723  0.1438  0.2193 -0.1911
20278W        W36412  11.292  14.034   2.417  0.2905 -0.0583  0.0125
20279W        W36413   8.253  15.583   1.247  0.1506  0.0489  0.0356
20280W        W36414   7.680   5.609   1.061  0.1529  0.3529  0.0773
20281W        W36415  16.659  10.540  13.238 -0.0554  0.1585  0.0582
20282W        W36416   3.748   8.033   1.032  0.1376 -0.1963  0.0031
20283W        W36417  16.848   5.455   0.083 -0.0727 -0.2047  0.2004
20284W        W36418   6.555   1.912  14.094 -0.0384 -0.1452  0.0308
20285W        W36419  13.701   8.683  15.493 -0.0950 -0.1778 -0.3123
20286W        W36420  12.215  18.083   2.131 -0.2097  0.1878  0.1039
20287W        W36421   1.447   4.795  11.894 -0.0046 -0.3871 -0.1975
20288W        W36422  16.444   3.782   3.314 -0.0814 -0.1971 -0.4431
20289W        W36423   5.774   9.908   4.896 -0.1456  0.2167 -0.2512
20290W        W36424   5.243  14.200  12.540  0.1729 -0.0547  0.0874
20291W        W36425   9.706  10.750   3.000  0.1275  0.1379 -0.1266
20292W        W36426   2.516  15.199   5.417  0.0714  0.0956  0.3853
20293W        W36427   1.663  15.399   4.160  0.0586  0.1046 -0.0461
20294W        W36428   9.382   9.618   5.361  0.0995  0.1611 -0.1612
20295W        W36429  14.795   7.103  11.162 -0.0250  0.1631  0.3234
20296W        W36430  16.195  13.329   6.138 -0.2054  0.0863 -0.0098
20297W        W36431  17.717   2.776   0.464 -0.1012 -0.2705 -0.3018
20298W        W36432   3.504   2.772   4.180  0.1191  0.0528  0.0955
20299W        W36433   4.618  10.053   1.951  0.2423 -0.1137 -0.0003
20300W        W36434   4.400   8.544  12.103  0.2489  0.0606 -0.1351
20301W        W36435  10.455  12.800   3.431 -0.1969  0.0812  0.2621
20302W        W36436  11.265   5.832   1.288  0.1375  0.3436  0.0571
20303W        W36437  13.104   7.669  14.938  0.1368 -0.0280  0.0235
20304W        W36438   7.051   6.491   2.619  0.0069  0.1879  0.1515
20305W        W36439   1.537   3.022   1.098 -0.0235 -0.0639 -0.1673
20306W        W36440  16.921  12.046   4.459  0.0249  0.1474 -0.0630
20307W        W36441  14.590   9.090   2.938  0.1668 -0.4542 -0.0762
20308W        W36442   2.536  14.803   3.261  0.0544 -0.2625 -0.0824
20309W        W36443  12.788   6.608  13.289  0.0604 -0.0162 -0.0908
20310W        W36444  14.731   4.580  12.434 -0.1549 -0.2608  0.0810
20311W        W36445   8.350   7.730  11.577 -0.0625 -0.1779 -0.1954
20312W        W36446  14.132   2.891  16.312 -0.1772  0.1413 -0.0590
20313W        W36447   0.666  14.095   3.407 -0.1399  0.3368  0.0487
20314W        W36448   8.036   0.676   0.980  0.0170 -0.0445 -0.1387
20315W        W36449   3.049  12.663   0.926  0.1251 -0.1658  0.3762
20316W        W36450   4.068   8.617   1.866  0.1254  0.0486 -0.2558
20317W        W36451  15.915   2.637  10.996  0.0351 -0.0380  0.1773
20318W        W36452   7.370   0.272   2.477 -0.3086 -0.1368 -0.0569
20319W        W36453  10.553   6.433   0.007  0.0570 -0.0044 -0.2772
20320W        W36454   6.490   2.301  12.425 -0.0197  0.0391  0.0913
20321W        W36455  14.109  13.453   4.490 -0.4452 -0.1726  0.2780
20322W        W36456  11.947  13.673   1.315 -0.2086 -0.0477  0.2815
20323W        W36457  17.939  10.928  12.994  0.0282  0.2772 -0.1525
20324W        W36458  12.625   3.910  13.210 -0.0216 -0.2413  0.0509
20325W        W36459   4.796  11.210   1.297  0.2610  0.0457 -0.0626
20326W        W36460   2.843   7.664   4.577 -0.0409 -0.2694  0.1087
20327W        W36461   8.353  12.931   2.295  0.0824  0.1072  0.2213
20328W        W36462  16.634  13.657  14.930 -0.2559  0.1605 -0.1325
20329W        W36463   5.328  11.932  13.826  0.1286 -0.2311 -0.0062
20330W        W36464  14.663  12.050  12.612 -0.1486  0.0922  0.1536
20331W        W36465   4.524   6.757   5.392  0.2754 -0.0692  0.0100
20332W        W36466  17.037  14.771  13.868 -0.1362 -0.1986  0.2081
20333W        W36467   1.082   4.082   3.252 -0.0062 -0.3590 -0.3363
20334W        W36468  10.418   6.046  12.630 -0.2607 -0.0900  0.0873
20335W        W36469   5.559   2.532   2.259 -0.1971 -0.2094  0.0015
20336W        W36470  10.040   8.825   3.563 -0.0129 -0.3456 -0.1668
20337W        W36471   6.164   6.857   5.741  0.1764  0.0621 -0.1282
20338W        W36472  10.875   6.894  11.706 -0.2769 -0.0890  0.2416
20339W        W36473   5.311  11.357  12.524 -0.1091 -0.3521  0.1906
20340W        W36474   0.020   0.230   4.074  0.1490  0.1724 -0.0316
20341W        W36475   8.175  17.024  15.961 -0.0218  0.2513  0.3938
20342W        W36476  16.832  16.145   3.109  0.1020 -0.1383 -0.2287
20343W        W36477  12.818  14.880   2.859 -0.3216 -0.4556 -0.3199
20344W        W36478   9.267  12.255   0.452  0.2871 -0.0326  0.2562
20345W        W36479  18.036   3.685  13.160 -0.4131  0.1987 -0.1191
20346W        W36480   6.445  10.139   4.745 -0.2527 -0.2773  0.3298
20347W        W36481  13.931   6.998   3.148  0.0531 -0.4319  0.1087
20348W        W36482  10.633  11.523   3.827  0.4547  0.0560 -0.3813
20349W        W36483  12.052   3.756  15.336 -0.0180 -0.0043  0.2443
20350W        W36484   3.427   4.845  11.836  0.0026  0.2157  0.2432
20351W        W36485  15.303   3.249  11.231 -0.1164  0.0565 -0.4119
20352W        W36486   1.937   5.261   5.259 -0.2465 -0.1918 -0.0904
20353W        W36487  11.018  14.925   3.278 -0.2604 -0.0980 -0.0152
20354W        W36488  12.514   5.222   1.300 -0.0675 -0.1424 -0.0423
20355W        W36489  10.152   7.789  12.520 -0.1118  0.0937 -0.0153
20356W        W36490   5.435   6.737  11.776 -0.1126 -0.0037 -0.0126
20357W        W36491   9.567   7.877   4.960  0.1165  0.0457 -0.0346
20358W        W36492  11.035   0.939   4.461  0.1209 -0.2605  0.4079
20359W        W36493  16.066   1.666   3.846 -0.4640  0.1351  0.1839
20360W        W36494   4.558  15.393  12.798 -0.0890 -0.1327 -0.0527
20361W        W36495  15.829  12.058   4.454 -0.1185 -0.1840  0.0068
20362W        W36496   3.433  16.936   3.634  0.0351  0.1061  0.1511
20363W        W36497  10.752   3.713  15.919 -0.1836  0.2070 -0.2929
20364W        W36498   2.006  17.501   5.950 -0.1012  0.0753  0.0613
20365W        W36499   1.429   2.265  11.837 -0.2884 -0.0197  0.0011
20366W        W36500  17.508   0.572   4.590 -0.0064  0.3971  0.3960
20367W        W36501   4.357   9.239   5.209 -0.0165  0.2911 -0.0783
20368W        W36502  11.351  16.775  11.763  0.1388 -0.2496 -0.2327
20369W        W36503   4.505   7.119  14.533 -0.0315  0.0075  0.0523
20370W        W36504   5.683  13.800   5.813  0.1535  0.0036 -0.6486
20371W        W36505   8.498   8.718   3.873  0.2562 -0.1801  0.0032
20372W        W36506  15.686  11.140  14.665  0.0344  0.1643  0.1613
20373W        W36507  15.898   8.929  16.328 -0.2945 -0.0716  0.0239
20374W        W36508   8.915  10.467   1.270 -0.0480  0.0242 -0.2136
20375W        W36509   2.265  15.381  12.790  0.0772 -0.0431 -0.1775
20376W        W36510   5.583  17.873  15.435 -0.1931  0.0240 -0.1515
20377W        W36511  17.585  16.303   5.342 -0.1060  0.0065  0.0036
20378W        W36512  15.830  12.248   5.184  0.0155 -0.0805  0.0149
20379W        W36513  11.509  10.026  11.747 -0.0416 -0.4000 -0.1594
20380W        W36514  14.020   9.672   5.839 -0.1084  0.2886  0.1256
20381W        W36515   3.211  11.591  15.305 -0.2454 -0.1353  0.2061
20382W        W36516  17.592   0.318   2.078  0.0643  0.1188 -0.1086
20383W        W36517   1.159  15.316  15.846  0.1225 -0.0408  0.0063
20384W        W36518   6.632   2.406  16.039 -0.0841 -0.0167 -0.3143
20385W        W36519  17.146   6.011   1.406  0.0609  0.1575  0.0816
20386W        W36520  17.033   4.063   4.632 -0.0498 -0.0697  0.1351
20387W        W36521  10.693  16.378   0.695 -0.0761  0.0050 -0.0715
20388W        W36522   0.848  15.832   2.919 -0.1793 -0.0599  0.1917
20389W        W36523   7.024   1.104   1.996 -0.3345 -0.0299 -0.1994
20390W        W36524   5.297  16.259  14.523 -0.0727  0.2780 -0.0190
20391W        W36525  13.045   7.600   3.862 -0.2065  0.0989  0.5450
20392W        W36526   8.244   0.265   0.741 -0.1049 -0.2300  0.2130
20393W        W36527   5.912   9.513  16.046 -0.2640  0.2338  0.1029
20394W        W36528   0.468   4.750  14.989 -0.1967  0.1589 -0.2471
20395W        W36529   5.119  14.661  13.798  0.0463 -0.0913  0.1854
20396W        W36530   3.392   7.849  12.571 -0.0615 -0.2958  0.1564
20397W        W36531   8.849   4.264   1.718  0.3444 -0.3099  0.1691
20398W        W36532   1.216   4.235   1.437 -0.1362  0.4499 -0.3735
20399W        W36533   3.504   9.266   1.528  0.2409  0.1987  0.0312
20400W        W36534   0.592   6.415  10.828 -0.3228 -0.1400  0.1055
20401W        W36535  14.441   8.296   2.737  0.1034 -0.2005  0.2380
20402W        W36536   8.137  12.176   4.903 -0.2148  0.2592 -0.0792
20403W        W36537  11.031   9.799   3.924  0.0193 -0.1483  0.1790
20404W        W36538  13.082   7.475   1.674 -0.1056  0.0207 -0.0008
20405W        W36539  10.406   5.978   2.928  0.1552  0.0211 -0.0689
20406W        W36540   4.563  16.551  12.710 -0.0130 -0.0822  0.1386
20407W        W36541  18.084  17.097  16.384  0.0173 -0.0869 -0.2831
20408W        W36542   9.787   5.360   5.191 -0.1211 -0.1424  0.0001
20409W        W36543  17.753   2.060   0.001  0.0297 -0.4514 -0.1656
20410W        W36544  13.440  11.978  14.737 -0.2147  0.1699 -0.4313
20411W        W36545  10.965   4.097   0.870 -0.3305  0.1954 -0.0833
20412W        W36546  16.239   5.065  13.742 -0.2221 -0.1404  0.2116
20413W        W36547   2.145   7.331  11.385 -0.0459  0.1052 -0.4601
20414W        W36548  17.477   7.963  13.041 -0.0637  0.1362 -0.1301
20415W        W36549   6.331   1.558   0.784  0.1533 -0.1580  0.4824
20416W        W36550  14.960  15.255  11.190  0.1756 -0.3353 -0.0658
20417W        W36551   2.570  13.722   4.977  0.1299  0.0079  0.0977
20418W        W36552   0.262   2.076  11.666 -0.0175  0.0419  0.4280
20419W        W36553  17.221   1.144  15.743  0.0912 -0.3083 -0.0640
20420W        W36554   8.310   1.911   5.077  0.3555 -0.3990  0.0903
20421W        W36555  10.315   0.619   4.969 -0.1471 -0.2161 -0.0855
20422W        W36556   7.616   9.263  15.734 -0.0889 -0.2188  0.0409
20423W        W36557   3.761   0.660  14.814 -0.1478 -0.0934  0.1436
20424W        W36558   4.761  11.181   3.144  0.1515 -0.1119 -0.0723
20425W        W36559  11.811  16.929  14.191  0.0726 -0.1676  0.0457
20426W        W36560  14.826   1.249  16.251  0.2706 -0.2188 -0.2177
20427W        W36561   6.493   3.304  13.431 -0.0367 -0.0556 -0.1492
20428W        W36562  13.854   8.059   3.524 -0.1143 -0.2197  0.2883
20429W        W36563  13.493  13.476   4.698  0.2179 -0.1930  0.2918
20430W        W36564  12.015  10.538  14.213 -0.0197  0.1892  0.1057
20431W        W36565   6.517  10.878  15.561 -0.1946 -0.0222 -0.0317
20432W        W36566   7.989   1.197  13.263 -0.0926 -0.0717  0.4498
20433W        W36567  15.577  10.479  15.932  0.3703 -0.0351 -0.0549
20434W        W36568   0.566  11.068   4.564  0.0344  0.0099  0.0343
20435W        W36569   7.661   1.974   3.648 -0.0246  0.1272 -0.1584
20436W        W36570  10.601  13.885   0.061 -0.1662  0.0409  0.0539
20437W        W36571   5.472   3.129   2.598 -0.0020  0.1084 -0.1511
20438W        W36572  14.336   1.055   0.902 -0.0446  0.1865 -0.0335
20439W        W36573   9.989  14.614   2.329 -0.4230 -0.0602  0.1976
20440W        W36574   6.824  17.882   5.640 -0.2713 -0.3319 -0.1185
20441W        W36575   6.491  17.983  11.031  0.2478 -0.0363 -0.0043
20442W        W36576  13.226   5.292   0.056 -0.3279 -0.0526 -0.0416
20443W        W36577  11.289   5.663   4.299 -0.0435 -0.0331  0.0257
20444W        W36578  14.507  11.325   3.320  0.0552  0.1232  0.1051
20445W        W36579  16.434   5.849  11.326 -0.0907 -0.1192 -0.3124
20446W        W36580   5.409   9.932  13.768 -0.2105  0.0697 -0.1562
20447W        W36581   6.358   9.637  12.499  0.1812  0.0014  0.2540
20448W        W36582   3.162   8.823  15.416 -0.0194 -0.0907 -0.2337
20449W        W36583  10.630   4.634  15.831 -0.0599  0.0607 -0.0619
20450W        W36584   8.869   2.009  16.026 -0.2301  0.0448 -0.4447
20451W        W36585  12.868   2.523  11.382  0.2420  0.1121 -0.0267
20452W        W36586   4.763  10.601   2.640  0.4489 -0.1889 -0.1630
20453W        W36587  11.851  17.204  12.870 -0.0895  0.1054  0.0861
20454W        W36588   7.419  17.356  11.570  0.0012  0.0966 -0.1492
20455W        W36589   9.561   4.567   1.049 -0.0107 -0.2667  0.1711
20456W        W36590  15.600  12.498   4.562  0.3418  0.2639 -0.0864
20457W        W36591  13.073  12.548   1.495 -0.1033  0.1790  0.0562
20458W        W36592   5.841  12.356   4.416 -0.2688  0.3884  0.4747
20459W        W36593   7.921   0.412   4.711  0.0827 -0.2664 -0.0006
20460W        W36594  13.476  14.516   3.052  0.0268 -0.0234 -0.3390
20461W        W36595   7.812   6.578  13.314  0.0317 -0.0673 -0.1717
20462W        W36596   1.816   5.174   3.363 -0.0488  0.0213  0.0760
20463W        W36597  15.527  11.460  15.032  0.0088 -0.1241  0.0650
20464W        W36598  16.074  10.244  11.575  0.1376  0.0156 -0.2092
20465W        W36599  10.710   5.787  14.912  0.0252 -0.0813 -0.0076
20466W        W36600  15.837  11.802   3.716 -0.5683 -0.0660 -0.4272
20467W        W36601  11.547   1.093   1.569 -0.2775  0.1551 -0.2504
20468W        W36602  12.952   9.455  12.415  0.0382  0.0176 -0.2019
20469W        W36603  10.504   5.006  12.325 -0.0410 -0.1309  0.0032
20470W        W36604   9.042  10.290  13.570  0.0231 -0.2894 -0.1970
20471W        W36605   5.628  12.009   1.303  0.2746  0.0491 -0.3343
20472W        W36606   0.340   7.583  15.480 -0.2121 -0.4571  0.0303
20473W        W36607  17.694   8.466  14.825  0.1161 -0.6085 -0.1573
20474W        W36608  17.899  11.786  15.895 -0.0568  0.1740 -0.1127
20475W        W36609  10.607   8.498  13.645  0.0600 -0.1578 -0.1361
20476W        W36610  11.736   8.711   6.087  0.3103  0.4252  0.2355
20477W        W36611  15.336  14.454  12.554 -0.2346  0.0966 -0.1119
20478W        W36612  15.231   8.097  14.140 -0.1304 -0.0802  0.1396
20479W        W36613   1.330  11.444  12.946  0.0933 -0.5709 -0.1436
20480W        W36614   4.595   4.357  16.234 -0.1098 -0.3127  0.1074
20481W        W36615  14.493  11.374  16.371 -0.2485 -0.0940  0.0491
20482W        W36616   3.445   3.366  11.091  0.1114 -0.2249 -0.0626
20483W        W36617   8.617  11.965   4.283 -0.2444 -0.2270 -0.0564
20484W        W36618  15.130  11.129  11.358 -0.0706  0.2493 -0.0695
20485W        W36619  12.368  14.949   1.613  0.0269  0.3259 -0.0643
20486W        W36620  17.000   5.230   2.306 -0.1906 -0.0886  0.1135
20487W        W36621  10.369  13.496   4.868  0.0863 -0.1171  0.2575
20488W        W36622   6.253  12.709  13.706 -0.0044  0.0282  0.1034
20489W        W36623   9.385   8.221   2.032  0.2545  0.0131  0.0529
20490W        W36624  13.578   3.498   4.352 -0.0803  0.1776  0.3399
20491W        W36625  15.259   2.642   1.649 -0.3235 -0.3297  0.2521
20492W        W36626  15.607   9.806   5.145 -0.0551 -0.0284 -0.1410
20493W        W36627  13.840  16.352   2.814 -0.4727 -0.2245 -0.0205
20494W        W36628  10.814   9.031   5.545  0.2834  0.0892  0.2671
20495W        W36629   4.188   3.351  13.249 -0.3276  0.0533  0.0010
20496W        W36630  15.127   7.868  11.676 -0.3022  0.0006 -0.1715
20497W        W36631   4.927   2.747   1.508  0.0507 -0.0094 -0.2505
20498W        W36632  10.138   5.028   1.294 -0.1867 -0.0036 -0.0602
20499W        W36633  11.620  16.674   5.976 -0.1367 -0.0275 -0.0919
20500W        W36634  12.292   8.836   0.020 -0.2359 -0.0585 -0.4415
20501W        W36635  11.050  10.000   4.742  0.1523  0.0901 -0.1446
20502W        W36636  11.483  15.619   3.308 -0.0435 -0.2352  0.0636
20503W        W36637   3.959   0.018  14.479  0.0309  0.1644  0.0218
20504W        W36638  12.077  16.963   1.808 -0.3017 -0.1241  0.2344
20505W        W36639  16.383   0.506  14.877 -0.1870  0.1437  0.2084
20506W        W36640  14.733  11.167   0.327  0.0477 -0.1286 -0.1209
20507W        W36641   7.750   3.814  14.260 -0.0221  0.1006  0.1885
20508W        W36642  15.533   0.368   4.593 -0.0756  0.2516  0.1948
20509W        W36643   9.083  15.697  13.537 -0.0218  0.0715 -0.1990
20510W        W36644   0.494  10.323   1.438 -0.0174  0.0411 -0.0931
20511W        W36645   1.611   5.821   4.441  0.1184  0.1763 -0.0747
20512W        W36646  10.221   8.412   3.940  0.0840 -0.1341 -0.1228
20513W        W36647  14.148   2.434  12.967  0.3296  0.4901 -0.1311
20514W        W36648   1.732  15.462   0.529  0.2061  0.2153 -0.1131
20515W        W36649   3.342   1.615  13.751 -0.2054  0.1082 -0.2980
20516W        W36650  11.949   2.443  13.106 -0.0402 -0.0272 -0.1229
20517W        W36651   9.708  12.564   1.070  0.0372  0.4774  0.0914
20518W        W36652   0.954  16.663   4.096 -0.3565 -0.0732 -0.2020
20519W        W36653   3.710   0.594   1.405 -0.1815  0.1069  0.2367
20520W        W36654   2.328   8.980   3.577 -0.0949 -0.4733  0.1256
20521W        W36655   5.521  17.941   2.641  0.3610  0.0137  0.0381
20522W        W36656   5.145  15.015  15.950  0.2462 -0.2379 -0.0457
20523W        W36657  16.890   7.714  11.369 -0.1832 -0.1392  0.0867
20524W        W36658   1.465   9.281   1.052 -0.2543 -0.1246  0.0008
20525W        W36659   6.363  10.946   6.432 -0.0979 -0.2341 -0.1132
20526W        W36660   0.542   8.030  16.380  0.4160 -0.1375 -0.0971
20527W        W36661  12.265   0.061  11.912 -0.3653 -0.3690  0.0250
20528W        W36662  10.224   9.750  12.097  0.0815  0.0239  0.0700
20529W        W36663   1.657   5.606  16.176 -0.1007 -0.2308  0.3876
20530W        W36664  16.322  14.729   3.495  0.1321 -0.2206  0.0877
20531W        W36665   8.959  16.225   1.695  0.0975 -0.2461  0.2164
20532W        W36666   5.101   6.699   0.595  0.2211 -0.2464  0.2469
20533W        W36667   1.188   9.248  15.474 -0.2517  0.0899  0.3031
20534W        W36668  12.216  13.277   5.981 -0.0714 -0.0766 -0.2296
20535W        W36669  11.714  13.900   5.389 -0.0887  0.0005 -0.1325
20536W        W36670  17.130   5.027   0.369  0.0276  0.0687  0.1080
20537W        W36671   9.862   8.765   4.066  0.0772 -0.0626  0.1367
20538W        W36672  13.773   4.108  13.362  0.2359  0.0685  0.2125
20539W        W36673  13.938  11.215  11.085  0.3797  0.1190 -0.0790
20540W        W36674   4.604   2.195   1.033 -0.1293 -0.0236  0.0567
20541W        W36675   4.976   2.716   3.834  0.1780  0.1090  0.0859
20542W        W36676   9.980  14.348   2.769  0.2147  0.1777 -0.1132
20543W        W36677   9.750  17.922   3.643  0.0607  0.0503 -0.0940
20544W        W36678  17.744  16.082  14.617  0.1739  0.0883  0.0749
20545W        W36679   3.939   3.326  12.008 -0.0530 -0.0322  0.1853
20546W        W36680  17.254   4.110  15.958  0.1933  0.0927  0.3383
20547W        W36681  17.215   3.342   3.713 -0.1001 -0.0918  0.0051
20548W        W36682  16.721   0.069  12.083  0.0966  0.1669  0.2553
20549W        W36683   8.480  16.151   3.646  0.1374  0.0798 -0.1528
20550W        W36684   4.583   4.783  11.074 -0.2668  0.0723  0.0363
20551W        W36685   5.172   9.460  13.464 -0.2158 -0.0486 -0.2825
20552W        W36686   4.008   0.850   5.271 -0.0911  0.2232 -0.1597
20553W        W36687   5.886  11.616  11.832  0.1878 -0.1329  0.0008
20554W        W36688  15.518   3.515  13.226 -0.0953  0.1670 -0.0509
20555W        W36689   8.833   9.381  15.321 -0.1362  0.1631  0.1862
20556W        W36690   5.646  14.813   2.943 -0.0564 -0.0720 -0.0712
20557W        W36691   3.132   1.672   0.868 -0.4292 -0.0821  0.0797
20558W        W36692   6.808   4.719  13.949 -0.0348 -0.0072 -0.0353
20559W        W36693  16.137   7.542  14.428 -0.0869 -0.3094 -0.1441
20560W        W36694   4.009   8.322   0.121 -0.0952  0.1151 -0.1671
20561W        W36695   2.379  18.037  15.088 -0.1074  0.1356  0.1361
20562W        W36696   0.043   5.454  13.745 -0.3597  0.0293 -0.0837
20563W        W36697  17.615  14.247   4.938  0.0564 -0.2013  0.0965
20564W        W36698  16.701  16.673   3.018  0.1546  0.2014 -0.0339
20565W        W36699   3.176   0.613   1.398 -0.0646 -0.0034 -0.1294
20566W        W36700   7.658  11.987   4.848 -0.1253 -0.2319  0.1285
20567W        W36701   7.673   5.979  14.108 -0.0984 -0.0474  0.0578
20568W        W36702  17.353   6.937   2.157  0.1960  0.0728  0.2686
20569W        W36703  13.178   8.099   0.856  0.1798 -0.0856 -0.1764
20570W        W36704   3.494   8.283  13.732  0.1506 -0.1626 -0.1793
20571W        W36705   6.102   4.720  15.306  0.1808  0.1196  0.1177
20572W        W36706   0.050   5.473   4.837  0.2071  0.0265 -0.1498
20573W        W36707   4.096  10.833  12.985  0.1004 -0.1314 -0.0221
20574W        W36708   8.639  13.254   6.309 -0.0456 -0.0951  0.4514
20575W        W36709  17.506  16.498  12.995 -0.1453  0.2978 -0.3156
20576W        W36710   3.372   1.810  15.471 -0.0297 -0.0428 -0.3201
20577W        W36711   8.094  10.801   2.908  0.1409 -0.1211  0.1009
20578W        W36712   6.616  12.398   1.929  0.0473 -0.1109  0.0212
20579W        W36713   1.686  10.573  11.343  0.1810 -0.1291  0.0217
20580W        W36714  12.917  13.593   3.038  0.3611 -0.2361  0.0092
20581W        W36715  17.074  15.271  11.824 -0.2045  0.1632 -0.1848
20582W        W36716  17.425   8.102   1.570 -0.2079  0.1640  0.0480
20583W        W36717  14.392  11.495  10.919 -0.0223  0.0177 -0.0665
20584W        W36718  13.810   3.054  10.955 -0.0448  0.0934  0.0464
20585W        W36719  11.183   3.425  15.858 -0.1291  0.2571  0.3183
20586W        W36720   0.826   3.112  13.501 -0.1114 -0.4322  0.1622
20587W        W36721  10.712   4.984  15.323 -0.0008 -0.0199  0.1311
20588W        W36722  15.105   6.658   4.572 -0.1362  0.0841  0.1044
20589W        W36723   7.966  17.273  16.400  0.0134  0.1545  0.0831
20590W        W36724   1.537   9.040  13.414  0.0046  0.0784 -0.1063
20591W        W36725   1.602  10.831   3.040 -0.1267  0.1287  0.0510
20592W        W36726   4.363   2.791  14.655  0.0274  0.1248 -0.2737
20593W        W36727   6.048  10.077  15.202 -0.0613 -0.0535 -0.2798
20594W        W36728   3.212  16.369   3.903 -0.4661  0.1342  0.1174
20595W        W36729   9.017   2.137   5.495  0.2898  0.2755 -0.1612
20596W        W36730   3.012   8.132  13.968 -0.0534  0.1218 -0.1645
20597W        W36731  15.327  14.369   5.518  0.1654  0.0644  0.2313
20598W        W36732  10.329   1.259   1.734 -0.0186 -0.0561 -0.0413
20599W        W36733   0.297   6.020   0.829 -0.0150 -0.0682  0.1503
20600W        W36734  15.933  13.437  11.600  0.2117  0.2816  0.1414
20601W        W36735  16.705  11.764   1.999  0.2875  0.1685 -0.0226
20602W        W36736   6.933   9.422   4.673  0.1137 -0.0398  0.0468
20603W        W36737   1.755   8.647   2.969  0.0334 -0.1344  0.2730
20604W        W36738   7.990   1.655  11.676  0.0393 -0.0724  0.2002
20605W        W36739   8.378   3.548   1.535 -0.2137 -0.2245  0.0266
20606W        W36740   0.914  18.035  13.945 -0.4540 -0.1234  0.1637
20607W        W36741  13.311   1.758  14.979  0.2915 -0.0529 -0.0540
20608W        W36742   3.867   7.282   0.468 -0.5018 -0.4001  0.2249
20609W        W36743   6.100   9.112  11.108 -0.0582 -0.1964  0.3186
20610W        W36744   3.253  16.881   2.779  0.1263 -0.0934 -0.1233
20611W        W36745   5.994   7.541   3.340 -0.1643  0.1753  0.0240
20612W        W36746   9.415  17.434   2.483 -0.2166 -0.0301  0.1873
20613W        W36747  11.333  14.217  12.424  0.0210 -0.0076  0.1529
20614W        W36748  15.012   7.647   1.837 -0.0337  0.0703 -0.3589
20615W        W36749   7.088   7.235  13.798  0.0582  0.1462 -0.2873
20616W        W36750   7.577   4.475  14.919  0.1373 -0.1281 -0.1858
20617W        W36751   6.845   3.614  12.459 -0.0371  0.1013  0.1232
20618W        W36752  14.722  15.807  16.164  0.1658  0.0323  0.2729
20619W        W36753  13.754  14.988  12.763  0.4414 -0.0587  0.0911
20620W        W36754   8.006   0.964   0.528 -0.2551 -0.2576 -0.1796
20621W        W36755   5.902  13.712   3.293 -0.0447 -0.0746 -0.2418
20622W        W36756   8.318   0.926  14.088  0.2103  0.0561  0.0170
20623W        W36757  15.158   6.106  15.990  0.1893 -0.2632  0.0650
20624W        W36758  11.808   3.070  13.355  0.0653  0.1437 -0.0112
20625W        W36759   3.577  18.051  11.437  0.1915 -0.2223 -0.1252
20626W        W36760   9.204  13.384  12.903 -0.1195 -0.3279 -0.0960
20627W        W36761  11.349   8.241  14.164 -0.0379  0.0103  0.0697
20628W        W36762  12.232  17.451   4.360  0.2229 -0.2183 -0.1764
20629W        W36763  11.016  17.397   3.246  0.0778 -0.0805 -0.0054
20630W        W36764   8.250   7.759   4.675  0.2390  0.0199  0.4010
20631W        W36765  11.864   5.016  14.328  0.0744 -0.0263  0.0364
20632W        W36766  10.528  11.368   0.601  0.1399 -0.0153  0.2226
20633W        W36767  12.824  10.882  15.680  0.0577  0.0403 -0.3282
20634W        W36768  17.169   9.707  13.344  0.2199  0.0989  0.0822
20635W        W36769   6.168   1.576   4.498  0.0179 -0.0203 -0.0921
20636W        W36770   7.575   9.986  13.023  0.4755 -0.0435 -0.2187
20637W        W36771  16.771   5.117  13.636 -0.1360  0.0460  0.1504
20638W        W36772   9.686  13.129   2.183 -0.1607 -0.1612 -0.0322
20639W        W36773  10.507   2.783   4.799  0.1562  0.0986 -0.1250
20640W        W36774   7.719  10.366   0.629 -0.2728 -0.0402 -0.1067
20641W        W36775   4.951  14.445  12.147  0.0024  0.2408 -0.2262
20642W        W36776   3.006  11.918  16.150  0.1062 -0.1782 -0.0910
20643W        W36777  11.691   2.389   5.326  0.0985 -0.2138 -0.1147
20644W        W36778   9.720  15.142  12.661  0.0116  0.1270  0.1821
20645W        W36779   9.412   4.346   3.904 -0.2925 -0.1065  0.1437
20646W        W36780   3.359  16.867   4.538 -0.1169 -0.0998 -0.2986
20647W        W36781  12.518  15.776  13.086 -0.1033  0.1582  0.0065
20648W        W36782  10.893  12.608  15.143 -0.2193 -0.2184 -0.0057
20649W        W36783   1.326  17.973   0.648 -0.0319  0.0185  0.0183
20650W        W36784  16.779  12.190  11.502  0.0219  0.1483  0.1064
20651W        W36785  11.047  14.897   4.397  0.0793  0.0272 -0.1651
20652W        W36786  16.747   2.142  11.472  0.0947  0.3987 -0.2383
20653W        W36787   4.328   7.285   4.245 -0.2443 -0.1928  0.0539
20654W        W36788  11.750  11.238   5.844  0.2261  0.0809  0.0009
20655W        W36789  14.150   5.438  15.422 -0.2087  0.0775 -0.1137
20656W        W36790  12.732  17.181  14.185 -0.1678 -0.0040  0.1349
20657W        W36791  17.865   7.573   0.856 -0.0424 -0.0085 -0.0505
20658W        W36792  10.735   8.098  12.408 -0.4103  0.0384 -0.3871
20659W        W36793   2.691  11.693   4.075  0.1683  0.0996  0.1108
20660W        W36794  16.026   9.094  11.813 -0.1916 -0.0742  0.1356
20661W        W36795  17.659   5.502   0.611  0.2293 -0.0917 -0.0163
20662W        W36796   3.660  17.331   4.755 -0.0749  0.0570 -0.0269
20663W        W36797   6.061   5.723   4.609  0.1470 -0.0751  0.0280
20664W        W36798   8.080   1.437   0.168  0.2934 -0.2724 -0.1862
20665W        W36799   6.944  14.419   0.750 -0.0102 -0.3328  0.0575
20666W        W36800  13.914  15.311  12.142 -0.2035  0.1946 -0.0342
20667W        W36801  10.842  16.570  11.802  0.0556  0.1470  0.1358
20668W        W36802   8.793   5.833  13.269  0.2061  0.0458  0.0814
20669W        W36803   8.743  10.696   5.595 -0.3290  0.1239 -0.0232
20670W        W36804  13.807   8.624   3.609  0.1257 -0.0444  0.0305
20671W        W36805   8.955  13.053   0.335 -0.1504 -0.0335 -0.1875
20672W        W36806   8.154  12.130   1.911 -0.1030 -0.1706 -0.1211
20673W        W36807   2.151   7.626   1.811 -0.1124  0.1458  0.0686
20674W        W36808  15.295  12.484   0.258  0.0536 -0.3227  0.1445
20675W        W36809  14.351   0.913   0.445  0.1635  0.2010 -0.0518
20676W        W36810   2.500   5.562  15.811 -0.0101  0.2363 -0.1665
20677W        W36811   1.494  13.969   4.633 -0.0820 -0.1380 -0.0977
20678W        W36812  15.118  11.360   1.255  0.1366  0.1771  0.0428
20679W        W36813   2.560   5.892  10.707 -0.0468 -0.1401 -0.0738
20680W        W36814  10.980   1.487  14.061 -0.2395  0.3667  0.0489
20681W        W36815   5.140  17.110  13.014  0.0301 -0.1310  0.0951
20682W        W36816   0.721   9.862   4.095  0.0816 -0.1034 -0.0046
20683W        W36817   9.730  13.907   4.881  0.2678 -0.2935  0.0337
20684W        W36818  15.944  17.162   5.418 -0.2038 -0.2829  0.1398
20685W        W36819  17.342  15.627   0.781  0.1919 -0.1678  0.0146
20686W        W36820   5.650   5.604  15.253 -0.1501  0.0336 -0.0780
20687W        W36821  18.089   8.382  11.122  0.1683  0.3321 -0.0407
20688W        W36822  11.999   6.960   3.008  0.0869  0.0137 -0.2096
20689W        W36823  11.483   3.519  14.611  0.1532 -0.0505  0.1918
20690W        W36824  12.192  16.050  14.113  0.2731  0.1948  0.1837
20691W        W36825   7.635   1.031  12.762  0.1308 -0.1151 -0.1130
20692W        W36826   6.913  13.205   4.308 -0.0139 -0.0969  0.0953
20693W        W36827  10.494   3.506  15.095 -0.1938  0.0825 -0.1558
20694W        W36828   1.503  12.865   3.428 -0.4373 -0.2482 -0.2420
20695W        W36829   7.933  12.774  11.179 -0.1115 -0.1960 -0.0024
20696W        W36830  13.242   9.320   5.577  0.0794  0.1677  0.2088
20697W        W36831   5.112   8.705   2.849  0.0263  0.2240 -0.2270
20698W        W36832  10.751   5.301  14.027  0.2449  0.0371  0.3487
20699W        W36833  12.516   6.037  13.094  0.1068 -0.1073  0.1474
20700W        W36834  17.777   4.969   2.746 -0.1036  0.2281 -0.1817
20701W        W36835  13.141   3.790   3.494 -0.0934 -0.1655 -0.0481
20702W        W36836   4.940  13.209  11.314 -0.0285  0.1550  0.0517
20703W        W36837  14.077   0.018  11.490 -0.0930  0.0383 -0.3121
20704W        W36838  11.318   3.323   1.574  0.1787 -0.0182  0.1845
20705W        W36839  13.290  15.283   1.300  0.0817 -0.3010 -0.0618
20706W        W36840  11.756   9.336  16.332 -0.0475 -0.3060 -0.2075
20707W        W36841  12.484   2.141   2.482  0.2267  0.0725 -0.0782
20708W        W36842   3.537   5.843   3.784 -0.0097  0.0343 -0.2791
20709W        W36843  17.705   2.232   3.614  0.2646  0.1151 -0.0164
20710W        W36844  17.269   7.360  15.333 -0.1939  0.1528  0.2455
20711W        W36845  16.428   4.133  15.432 -0.0837  0.0162  0.1383
20712W        W36846   5.784   8.027   2.722 -0.1114  0.1765 -0.2894
20713W        W36847   2.023  13.268  13.569  0.0469  0.1642 -0.2431
20714W        W36848  13.764  15.520   0.798  0.2545 -0.0766 -0.1876
20715W        W36849  14.667  13.405  12.866  0.1927 -0.2318  0.2726
20716W        W36850   8.743  16.770   1.723  0.0054  0.0476  0.0698
20717W        W36851  14.721  16.388   1.210  0.0795  0.1192  0.0518
20718W        W36852   8.488   7.482  12.801 -0.1509 -0.4201  0.1554
20719W        W36853  14.229   5.100  14.123  0.0227  0.3999 -0.1514
20720W        W36854  16.325  10.156   3.740 -0.2091  0.1281  0.1299
20721W        W36855  10.577   5.596  11.983  0.2668 -0.1340 -0.0082
20722W        W36856  12.437   8.204   5.757 -0.1285  0.1397 -0.1311
20723W        W36857  15.635   2.979   1.564  0.0988  0.2741 -0.0600
20724W        W36858  16.956   8.555  16.266 -0.0862 -0.1442  0.0056
20725W        W36859   6.895   4.356   4.023  0.1437  0.1833 -0.0582
20726W        W36860  11.367   5.431  11.929 -0.2427 -0.2745  0.3503
20727W        W36861   0.283  16.726  13.715 -0.2380 -0.3000 -0.0490
20728W        W36862   7.877  10.837  11.901 -0.0011  0.0225  0.0287
20729W        W36863  13.535   5.028  11.935 -0.0607 -0.0435 -0.0686
20730W        W36864   9.983   3.261  12.071  0.3287 -0.0251 -0.0274
20731W        W36865   1.659   9.909  12.061  0.1438 -0.2077 -0.0851
20732W        W36866  15.899   5.442  12.379 -0.0820 -0.1430  0.2410
20733W        W36867   0.407  17.351   5.569  0.4119 -0.0973  0.1088
20734W        W36868   7.746  17.785   3.316  0.0385 -0.0687  0.0523
20735W        W36869   3.458  11.939   0.168  0.0925  0.0343  0.0053
20736W        W36870  13.466  12.188   1.652  0.0606 -0.2097 -0.1145
20737W        W36871  12.375  13.570   0.578  0.0202  0.0986  0.0807
20738W        W36872   7.740   6.255   5.422 -0.0787  0.2233 -0.1689
20739W        W36873   8.779   8.396   0.384  0.1242  0.3329 -0.1299
20740W        W36874   5.786   2.645   0.889  0.2536  0.2311  0.0187
20741W        W36875   7.408  10.061  13.642 -0.0177  0.4031 -0.3363
20742W        W36876  15.437   7.705   3.483 -0.2544  0.1420 -0.1352
20743W        W36877   1.678   9.697  12.632  0.1535 -0.3523  0.0175
20744W        W36878   0.736   3.140  16.391  0.3045  0.1611 -0.3832
20745W        W36879  16.092  12.396   4.744  0.0146 -0.0494 -0.1730
20746W        W36880  16.209  10.053   5.820  0.1738  0.1097 -0.2974
20747W        W36881   7.132  11.444   5.330 -0.2021 -0.1697 -0.1505
20748W        W36882   2.517   0.215  15.962  0.0777 -0.0026 -0.0440
20749W        W36883  13.035  15.547  12.789  0.0816  0.1512 -0.4004
20750W        W36884  17.927   6.125   1.658  0.0653  0.1756 -0.1071
20751W        W36885  10.044  14.854   4.065  0.3678 -0.3484  0.1081
20752W        W36886  15.638  11.284  11.441  0.1428  0.1629  0.1236
20753W        W36887   2.835  11.464  13.563 -0.0122 -0.2180  0.0774
20754W        W36888  11.301   6.637   2.419  0.1199 -0.0361  0.0438
20755W        W36889   1.103   4.645  12.996 -0.2015  0.0933 -0.0655
20756W        W36890   1.040   6.508  12.600  0.0110 -0.0765  0.2035
20757W        W36891  12.583   2.277   5.736 -0.1779 -0.1346  0.0283
20758W        W36892  15.276  15.852   4.962 -0.1038 -0.2668 -0.1014
20759W        W36893   2.195   7.526   6.584 -0.0393 -0.0297  0.1007
20760W        W36894   1.828  11.545   1.362  0.2675  0.0889  0.3772
20761W        W36895  10.567  17.475  11.922 -0.0373 -0.2871 -0.0849
20762W        W36896   3.512  11.589  15.694  0.3800  0.0147  0.0206
20763W        W36897  13.729  10.913   5.333  0.1223 -0.0419  0.2007
20764W        W36898   6.520   2.919  12.093 -0.0873  0.1386 -0.0813
20765W        W36899  13.510   9.230   2.228  0.3517  0.1293 -0.3598
20766W        W36900   9.082   8.675   2.382  0.0331  0.1566 -0.4573
20767W        W36901   2.098  16.285  14.746  0.0088 -0.0673 -0.1903
20768W        W36902  17.127   5.694   1.840 -0.1026 -0.0290  0.0174
20769W        W36903  13.341  12.027   3.823 -0.0235  0.0093 -0.0572
20770W        W36904   2.214   9.504  11.263  0.0914  0.0189 -0.2013
20771W        W36905  16.478   3.303   4.425 -0.0305 -0.0610 -0.1660
20772W        W36906   5.652   4.558   1.786  0.1328  0.1694 -0.0222
20773W        W36907   7.670  12.537  11.506 -0.0079  0.0326  0.0569
20774W        W36908   4.405   4.749  14.048 -0.0229 -0.0550  0.1021
20775W        W36909   7.387   0.037   3.274 -0.2562 -0.2037 -0.3969
20776W        W36910  12.883  15.474   2.758  0.2226  0.0474  0.0741
20777W        W36911  11.110  11.504   5.039 -0.1264  0.0696  0.1796
20778W        W36912  17.459  10.698  14.685  0.1026 -0.0436  0.0653
20779W        W36913   9.225  14.138   0.927 -0.1620  0.1469 -0.1370
20780W        W36914   1.626  17.465  13.681  0.1923 -0.3107 -0.0921
20781W        W36915   1.524   1.896   1.780  0.1431  0.1684 -0.1687
20782W        W36916  16.963  16.492  13.034 -0.2868  0.0694  0.0835
20783W        W36917   3.369  13.036   1.022  0.0055 -0.0103 -0.2508
20784W        W36918  17.951  13.338  16.230 -0.2167 -0.1963 -0.1218
20785W        W36919   1.903  13.656  15.093  0.1799 -0.0661 -0.0350
20786W        W36920   5.702  14.168  15.178 -0.2254 -0.2696  0.0046
20787W        W36921  17.251  13.534   0.385 -0.1287  0.1442  0.1379
20788W        W36922   2.647   1.768   0.814  0.2419  0.1996 -0.1161
20789W        W36923   6.548   3.122   4.578 -0.0270 -0.0975  0.0426
20790W        W36924  11.372   3.181  15.403  0.0802  0.1726 -0.1119
20791W        W36925   5.336   5.110  14.205  0.0202  0.2362  0.0972
20792W        W36926  14.866  14.384   1.931 -0.2447 -0.2354 -0.0832
20793W        W36927   1.113  13.412  11.733 -0.0555 -0.2129 -0.0764
20794W        W36928   4.027  10.038   0.846 -0.3634 -0.0250  0.1394
20795W        W36929   8.886  12.160  14.898  0.1706 -0.2231  0.1785
20796W        W36930  11.837   7.474  15.450 -0.1909  0.2718 -0.0596
20797W        W36931   6.751   6.886   1.370 -0.1762 -0.0921 -0.2644
20798W        W36932   7.828   5.317   0.685  0.1446  0.1207  0.0271
20799W        W36933  12.996   0.224  13.691  0.1540  0.2813  0.0645
20800W        W36934  10.015   6.939  13.070 -0.1354 -0.1313 -0.1668
20801W        W36935   8.572  10.014  14.060 -0.2187 -0.0474  0.2539
20802W        W36936  12.851  11.928   2.881 -0.2731 -0.3395  0.0395
20803W        W36937  15.007  17.130  15.779 -0.2050  0.1093  0.1050
20804W        W36938   2.272   2.709   5.315 -0.1382 -0.0306  0.0962
20805W        W36939   2.296  11.700  12.927  0.1336  0.2700 -0.1616
20806W        W36940  12.987   8.039  12.224 -0.1019 -0.2374 -0.0798
20807W        W36941   9.023  12.418   2.669  0.0539  0.1344  0.1873
20808W        W36942  15.712  14.575  14.122 -0.2263  0.0839  0.1067
20809W        W36943  15.220   3.091   3.521 -0.0333  0.0701 -0.0478
20810W        W36944   3.076   5.063  15.477 -0.2681 -0.0837 -0.0056
20811W        W36945  15.151  11.171  16.408  0.0327  0.0123 -0.1483
20812W        W36946  17.689   4.932   1.694  0.2843  0.1054 -0.0159
20813W        W36947   5.399   1.088   0.910 -0.0246 -0.0011 -0.0494
20814W        W36948  13.293   8.588   3.288  0.0182 -0.1230  0.1084
20815W        W36949   6.490   5.210   5.138 -0.0564 -0.1505  0.0374
20816W        W36950   3.102  15.533  12.390 -0.2019  0.1929 -0.1472
20817W        W36951  15.246  11.434   3.730  0.0562  0.0762 -0.1713
20818W        W36952   2.399   2.982  15.285  0.0803  0.0486 -0.2681
20819W        W36953  14.560   2.713  10.781  0.0805  0.2557  0.1439
20820W        W36954   2.116  16.574  13.029 -0.0987  0.1354 -0.1020
20821W        W36955  14.333  13.329   3.510 -0.1746  0.1393  0.1760
20822W        W36956   4.480   2.647   1.329 -0.0066  0.2362 -0.2853
20823W        W36957   0.980   0.083  12.072 -0.1820  0.1504 -0.1023
20824W        W36958  12.992   7.163   2.068  0.2324 -0.1801  0.2618
20825W        W36959   8.695   0.654   4.756 -0.0284  0.3373  0.2499
20826W        W36960  10.876   5.667   4.913  0.0727 -0.3674  0.2175
20827W        W36961   5.653   6.468  12.120  0.0076  0.0825  0.1246
20828W        W36962  10.776  10.283   0.082  0.1585  0.4264 -0.0164
20829W        W36963   4.764  14.140   0.380 -0.1170 -0.0668  0.2154
20830W        W36964   3.215   9.870  11.145  0.1026  0.1105  0.0096
20831W        W36965  11.056   4.534   3.122  0.3008  0.1154 -0.3293
20832W        W36966   5.653   8.021  12.158  0.0106 -0.0716  0.0394
20833W        W36967   6.062   0.982  12.283 -0.0974  0.0438  0.1139
20834W        W36968  16.968  10.843  14.963 -0.4283 -0.0510  0.2830
20835W        W36969  16.868   6.891  13.943  0.2250 -0.0599 -0.2679
20836W        W36970   4.825   1.791   2.351  0.0174  0.1156  0.0419
20837W        W36971   4.633   3.742  14.654 -0.2271  0.0310  0.1938
20838W        W36972   5.100   2.459   3.226  0.1066 -0.2806  0.2877
20839W        W36973  15.037   3.148   1.792 -0.0133 -0.1527  0.2522
20840W        W36974  13.357   2.983   3.375  0.1985 -0.0717 -0.0533
20841W        W36975   1.262  13.070   4.839 -0.3221 -0.0936 -0.0643
20842W        W36976   1.103   8.010  12.820  0.4401 -0.1769 -0.3637
20843W        W36977  12.057   1.840  13.883 -0.1044 -0.1919  0.2246
20844W        W36978   3.210   6.236   2.086  0.1126 -0.0717  0.0428
20845W        W36979   6.128  12.870  16.192 -0.0701  0.3314  0.5269
20846W        W36980  14.426   5.006   4.433  0.0380 -0.0210  0.1449
20847W        W36981   3.391   0.159   4.082 -0.2383  0.0641  0.0063
20848W        W36982  11.097   9.997  13.220 -0.0282  0.0161  0.1927
20849W        W36983   6.669  17.526   1.035  0.0064 -0.0394  0.0626
20850W        W36984   1.959  15.332  15.725 -0.0692 -0.1094  0.1707
20851W        W36985  17.634   3.203   5.283  0.1783  0.2597  0.1554
20852W        W36986  17.033  17.606   0.657  0.3337 -0.1273  0.1078
20853W        W36987   6.173   0.589   5.721  0.0472  0.0500  0.1927
20854W        W36988   2.073   6.957   5.247  0.1668 -0.2571  0.0395
20855W        W36989   9.699   4.011   0.381 -0.2252 -0.1403  0.0086
20856W        W36990   1.855  12.334   4.168  0.1065  0.0297  0.0389
20857W        W36991   1.516   3.365  14.119 -0.1085  0.1952  0.1509
20858W        W36992  17.471  15.368  11.491 -0.0350 -0.0480  0.1007
20859W        W36993   9.597   7.307  10.856 -0.2247  0.0212  0.0683
20860W        W36994  15.054   1.900  13.363 -0.1839 -0.3169  0.3740
20861W        W36995  11.983  11.409  12.346 -0.1548  0.0145  0.0223
20862W        W36996  15.894   3.126   5.712 -0.1474 -0.1330 -0.1780
20863W        W36997   7.641  11.973   0.368  0.0321 -0.0769 -0.0711
20864W        W36998   0.915   7.835   0.893 -0.1082  0.1840 -0.4083
20865W        W36999   1.881  17.882   4.090 -0.0497  0.4974  0.3618
20866W        W37000   9.585  14.525   1.337  0.0165 -0.0653  0.0337
20867W        W37001  16.648  12.364   5.487  0.0942 -0.0385 -0.1953
20868W        W37002   1.943  13.529   0.271  0.0707  0.1129 -0.0222
20869W        W37003  16.837  17.353   0.243 -0.2150  0.2257  0.2164
20870W        W37004   1.356   7.338   4.014 -0.1113  0.1579  0.1917
20871W        W37005  12.174   0.549  12.010  0.0680 -0.3147  0.1510
20872W        W37006  10.214  14.755  14.711  0.0266  0.1061  0.0001
20873W        W37007  14.820   4.726   2.359  0.2355 -0.0539  0.1781
20874W        W37008   7.091   3.246  14.752  0.0964 -0.0966 -0.1099
20875W        W37009   6.377   2.014  14.565 -0.0982 -0.1527 -0.0518
20876W        W37010   6.172   7.476   0.088  0.0199 -0.0613  0.0287
20877W        W37011  17.293   6.283  11.906  0.1089 -0.1654 -0.0167
20878W        W37012  17.335   9.966   4.321 -0.0495 -0.2579 -0.1005
20879W        W37013  14.274  12.791   3.694  0.0445  0.2614 -0.2571
20880W        W37014   2.744  11.308   2.982 -0.3234  0.3048  0.1832
20881W        W37015   2.183  14.364   0.602 -0.0877 -0.0016 -0.0959
20882W        W37016  12.049  14.632   1.865  0.0220  0.0117 -0.2581
20883W        W37017  10.729   8.444  12.046 -0.1363  0.0483 -0.0631
20884W        W37018   3.552   3.616   4.366  0.0338  0.1258 -0.2536
20885W        W37019   7.128  10.873  11.269 -0.0200 -0.2879  0.0430
20886W        W37020   0.799   9.068  11.558 -0.2837 -0.1373  0.3588
20887W        W37021  16.653   5.766   0.723 -0.1522  0.1068 -0.2404
20888W        W37022  10.205  15.169   1.484 -0.0253  0.0596 -0.0910
20889W        W37023  15.483   0.484   1.087 -0.0878  0.0116 -0.3702
20890W        W37024  13.337  13.457  12.441 -0.1640  0.2203 -0.0004
20891W        W37025  14.899   8.641  13.509 -0.0024 -0.3793  0.2700
20892W        W37026   4.633   2.655   1.924  0.1604  0.1665  0.3508
20893W        W37027   1.302   5.783  15.313 -0.0102  0.2940 -0.1533
20894W        W37028   3.315  11.077  15.817 -0.4636  0.1476  0.0711
20895W        W37029   8.464   7.277  13.846 -0.3121  0.1461 -0.0142
20896W        W37030  10.279   2.698   2.568 -0.0570 -0.2951 -0.2284
20897W        W37031   1.483  13.529  14.806 -0.2637 -0.1466 -0.0196
20898W        W37032   1.685   6.694   0.332  0.1495 -0.2557  0.3681
20899W        W37033   5.329   4.953  15.935 -0.1458 -0.1060 -0.2834
20900W        W37034   7.609  12.602  14.786 -0.2687  0.0266  0.1154
20901W        W37035   0.925  12.939  14.482  0.0422  0.0371 -0.0152
20902W        W37036  12.231  15.712   0.389  0.0076 -0.0592 -0.2723
20903W        W37037   7.023   3.760  13.802  0.0177 -0.0588 -0.2581
20904W        W37038  11.294   1.336   2.670 -0.0287 -0.1571  0.1518
20905W        W37039   3.659  17.589  14.192 -0.1576  0.0764 -0.3632
20906W        W37040   7.974  12.293   0.526 -0.1441 -0.0665  0.3711
20907W        W37041  17.646   5.476  13.876 -0.2022  0.0024  0.2570
20908W        W37042   7.456   0.703   4.722  0.0541 -0.0841 -0.1697
20909W        W37043   8.633  11.448  13.859 -0.1401  0.1522  0.0407
20910W        W37044  16.502  13.437  14.139 -0.0489 -0.1347  0.0607
20911W        W37045   8.533   0.277   1.687  0.0086  0.0190 -0.1394
20912W        W37046   4.673  14.498   5.367 -0.0149  0.0107 -0.0339
20913W        W37047  11.209  10.062   0.430 -0.0964 -0.1175  0.1606
20914W        W37048   6.350   3.018  16.123 -0.0703  0.1340  0.3107
20915W        W37049   0.885  15.536  11.445  0.1848  0.1213  0.1365
20916W        W37050   9.354   6.036   6.213  0.1761  0.1338  0.0098
20917W        W37051   4.884   5.413  14.942  0.2125  0.0051 -0.0811
20918W        W37052  10.508   8.236   1.992  0.2568 -0.4254 -0.1455
20919W        W37053  16.007  17.709  13.203  0.2510 -0.2395 -0.1581
20920W        W37054   5.407   2.793   5.626  0.1001  0.0259  0.3225
20921W        W37055   9.009  11.463  15.515 -0.0481  0.0360  0.0021
20922W        W37056  11.745   9.816   2.074 -0.2178  0.0810 -0.0705
20923W        W37057   7.876   1.776  15.076  0.1829  0.0326 -0.0014
20924W        W37058  12.992  12.359  15.335 -0.0218 -0.2728  0.0990
20925W        W37059  14.551  11.140  10.528 -0.1253 -0.2080  0.1327
20926W        W37060  16.140   1.494  15.509 -0.4112  0.1492 -0.4230
20927W        W37061   4.044  17.246  13.812 -0.4297  0.2417 -0.0835
20928W        W37062   9.192  16.951  13.188  0.1204  0.4324  0.0997
20929W        W37063  14.586  15.555  12.619 -0.0392 -0.0186  0.0299
20930W        W37064  10.042  10.589  10.619  0.3366  0.0654 -0.0560
20931W        W37065   4.981  16.934  11.840 -0.0236 -0.1250  0.0223
20932W        W37066  17.591   2.075  15.224 -0.2718  0.2887  0.2071
20933W        W37067   4.992   7.001   1.427 -0.3681  0.0300 -0.0013
20934W        W37068  14.749   7.590   0.601 -0.0792  0.0711  0.3218
20935W        W37069   7.254   6.537  15.058 -0.2450  0.0769 -0.0065
20936W        W37070   5.625  12.300   2.946  0.1092 -0.1738 -0.0578
20937W        W37071   6.010   1.663  16.252  0.0795 -0.2526  0.1823
20938W        W37072   3.385   5.236  14.087 -0.2449  0.0110 -0.0910
20939W        W37073   9.985   6.686   4.234 -0.1214  0.1265  0.0454
20940W        W37074   3.409  10.340  12.949 -0.0139  0.0626 -0.0246
20941W        W37075   1.291   4.643   9.731  0.1077  0.0554  0.0535
20942W        W37076  13.012  11.047   4.205 -0.1841 -0.0965  0.0065
20943W        W37077   2.868  12.580   3.592 -0.0337  0.1305 -0.2472
20944W        W37078   7.045   1.713  14.072  0.0924 -0.1431  0.1083
20945W        W37079  14.016  12.792  13.105  0.0573  0.1899  0.2201
20946W        W37080  17.292   3.960  12.432 -0.1077 -0.0051 -0.1435
20947W        W37081   5.598  17.291  13.970 -0.0206  0.0085 -0.0220
20948W        W37082   4.480   0.412  11.465 -0.3846  0.0066  0.0397
20949W        W37083   1.660  17.299   0.007 -0.1783 -0.1296  0.1341
20950W        W37084  12.991   5.964  11.650  0.2285  0.1953 -0.0234
20951W        W37085  15.490   0.221   2.609 -0.2821  0.0713  0.0426
20952W        W37086  13.299   6.610  12.754 -0.3835  0.0808  0.2503
20953W        W37087   9.367   2.995   1.924 -0.2013 -0.0128 -0.0441
20954W        W37088  12.810  12.356  14.862  0.0948 -0.1424  0.2522
20955W        W37089   6.010   5.534  16.359  0.2406  0.1989 -0.2233
20956W        W37090  11.708  16.501   2.975  0.1544  0.1395  0.0659
20957W        W37091  10.814  14.212   3.605  0.1830 -0.1134  0.2246
20958W        W37092   5.159   0.436   1.956  0.0098 -0.0242  0.0218
20959W        W37093  10.950   1.868  13.144  0.2420 -0.0372 -0.0022
20960W        W37094   4.761   2.525   2.873  0.0832 -0.3124 -0.3053
20961W        W37095  10.225   6.688  13.470  0.1709  0.0766  0.2153
20962W        W37096  10.401   8.080  12.003  0.2141  0.1172 -0.2461
20963W        W37097  11.430  12.703   4.041  0.0185 -0.0577  0.0946
20964W        W37098   6.334   8.541   1.569  0.1353 -0.1908 -0.0745
20965W        W37099  13.069   7.574   5.238 -0.4468 -0.0765  0.1047
20966W        W37100   7.747   6.918  16.166 -0.0528  0.1471 -0.4377
20967W        W37101  16.301   3.439   0.193 -0.0107 -0.1592  0.3331
20968W        W37102  11.717  14.786   3.819  0.0392 -0.0513 -0.0146
20969W        W37103  11.526  16.532  14.387 -0.0983  0.1185 -0.0740
20970W        W37104   1.229  14.215  12.237  0.1090  0.1765 -0.0290
20971W        W37105   8.175   2.875  16.066  0.1826 -0.2211 -0.1876
20972W        W37106   6.418  17.431   0.580 -0.0170  0.3636  0.1180
20973W        W37107   7.901  13.911  14.433 -0.0547  0.0361 -0.2266
20974W        W37108   1.863  16.250  14.302 -0.3403 -0.0220  0.0765
20975W        W37109  11.808   0.835   5.150 -0.1089 -0.0629 -0.2563
20976W        W37110  13.465  16.824   1.798  0.0139 -0.1558  0.1139
20977W        W37111   5.426  12.057  15.912 -0.1099  0.3669  0.0598
20978W        W37112  11.054  12.473   5.313  0.2937  0.3747 -0.1794
20979W        W37113   2.663  17.312  13.279  0.0783  0.1606  0.1560
20980W        W37114  15.597  12.040  14.314  0.1675 -0.1236  0.6372
20981W        W37115  15.756   9.332   0.272 -0.0612  0.1055  0.0347
20982W        W37116   9.404  10.539   1.897  0.0519  0.1931 -0.0688
20983W        W37117   8.895  17.663  13.644  0.0668 -0.1120  0.1754
20984W        W37118  12.608  13.738  12.206 -0.2519 -0.0222  0.2458
20985W        W37119   5.275  14.688  16.294 -0.1076 -0.0857 -0.0234
20986W        W37120   0.744  10.003  12.048 -0.0083  0.1963  0.1469
20987W        W37121   3.582  14.473   4.348  0.0510 -0.1217 -0.2537
20988W        W37122  13.811   9.948   2.413  0.0620 -0.0630 -0.1269
20989W        W37123   6.382   1.029  15.532 -0.0449 -0.1411  0.1428
20990W        W37124   5.645   0.283   2.917 -0.1535 -0.1644  0.0009
20991W        W37125   1.162   0.643   0.394 -0.0015 -0.1530  0.0875
20992W        W37126   7.201  13.253   3.441  0.2285 -0.0740  0.0346
20993W        W37127   9.141  16.844   4.748  0.3132  0.0475  0.0118
20994W        W37128   7.751  14.942  15.126 -0.1729 -0.0587  0.1398
20995W        W37129   6.363  15.229   4.843 -0.0517 -0.2572 -0.1694
20996W        W37130   3.349  11.033   5.293  0.0129  0.0216  0.1260
20997W        W37131   6.870  17.413   3.919  0.0369 -0.0009  0.1398
20998W        W37132   5.107  12.309   5.116  0.1399  0.3452 -0.0053
20999W        W37133  16.484  10.426  11.751 -0.1639  0.0023 -0.1362
21000W        W37134  13.225   6.743   4.702 -0.1280 -0.1293  0.3161
21001W        W37135   4.495   5.663   2.832 -0.1587 -0.0400  0.2191
21002W        W37136   7.170   2.647  14.118 -0.0822  0.1525 -0.0272
21003W        W37137  14.050  15.791  15.455  0.3019  0.1197  0.1617
21004W        W37138   5.089   8.520   5.247  0.1348  0.0245 -0.1455
21005W        W37139  10.098  16.975   5.451  0.0104 -0.1246  0.0934
21006W        W37140   4.331   7.231  12.299  0.1027  0.0375  0.1486
21007W        W37141   7.745  15.043  13.808  0.0297  0.2021  0.2221
21008W        W37142   5.044   6.671   5.457  0.1744 -0.0648 -0.1451
21009W        W37143   9.738  16.512  13.975 -0.0890 -0.1450  0.2975
21010W        W37144   4.005   6.107   1.127 -0.3755 -0.1897  0.1511
21011W        W37145   4.622  17.772  13.239  0.0771  0.2037 -0.1008
21012W        W37146  12.953  10.848  16.222  0.2952 -0.0060  0.0584
21013W        W37147  10.153  10.712   4.894  0.0925  0.1370  0.0695
21014W        W37148  15.385   2.938  14.389  0.2482  0.1652  0.1445
21015W        W37149   7.344   5.340   4.728 -0.3978  0.6315 -0.2274
21016W        W37150  10.848   2.465   5.619  0.1898  0.2777 -0.0193
21017W        W37151   2.607  17.012  15.543 -0.0008  0.5028 -0.0504
21018W        W37152   5.134   5.622  15.369 -0.1558  0.1419 -0.0126
21019W        W37153  17.539  17.192   0.222 -0.0522 -0.2718  0.0763
21020W        W37154  11.485   3.346   3.472 -0.0299  0.0695 -0.2315
21021W        W37155  12.007  12.208  16.093  0.0738  0.0474 -0.0651
21022W        W37156   2.977  13.721   3.261 -0.0476  0.2133 -0.1540
21023W        W37157  13.403   3.167   3.844 -0.1294 -0.0275 -0.0357
21024W        W37158  12.582  11.736  11.280 -0.0210  0.2421 -0.1213
21025W        W37159   9.601  10.333   4.913 -0.2480 -0.0944  0.0069
21026W        W37160  12.745   2.606  15.079 -0.2992  0.2125  0.0013
21027W        W37161   4.124  18.003  15.292 -0.2582 -0.1032  0.0566
21028W        W37162  12.522   3.080  14.929 -0.1992  0.1661 -0.1582
21029W        W37163   4.173   3.641  14.872 -0.1086 -0.0570  0.3420
21030W        W37164   9.594  13.634  10.974 -0.3590 -0.0781 -0.1297
21031W        W37165  16.928   1.504   2.177  0.1682  0.2311  0.2027
21032W        W37166  11.721   6.301   4.452 -0.0669  0.0405 -0.1535
21033W        W37167   8.496   0.057  14.691 -0.3402 -0.1017  0.3328
21034W        W37168   9.412  17.137   0.274 -0.1290  0.1128  0.0643
21035W        W37169   2.718   2.951   0.604  0.0873  0.2116 -0.2400
21036W        W37170   0.228  11.702  12.333 -0.4565 -0.2025 -0.0207
21037W        W37171   4.321  16.522   4.623  0.0367 -0.1081  0.1876
21038W        W37172   2.587  14.386  11.879  0.1855  0.1556  0.0489
21039W        W37173   0.077   6.807  14.282 -0.0229 -0.0205 -0.0222
21040W        W37174   9.388   4.247  13.312 -0.1047  0.3142  0.2519
21041W        W37175   7.421   6.106  11.668 -0.0131  0.1301  0.1314
21042W        W37176  13.302  11.142   0.600  0.0803  0.2717  0.1218
21043W        W37177   6.505  17.850  15.006 -0.1862 -0.2973  0.0280
21044W        W37178   9.883   5.318   3.444 -0.3364  0.0562 -0.0959
21045W        W37179   9.814  12.562   4.181 -0.3142 -0.3206 -0.2276
21046W        W37180  12.802   5.701   2.106 -0.1086 -0.1648  0.2097
21047W        W37181   9.869   4.445  14.182  0.0932 -0.0612  0.0034
21048W        W37182  12.050  11.669   4.795 -0.0791  0.0612  0.0190
21049W        W37183  10.017   5.627   2.797  0.0438  0.1242  0.1495
21050W        W37184   9.985   9.070  12.078 -0.2533 -0.0613  0.0182
21051W        W37185   5.419  13.708   1.635  0.2980  0.0672 -0.1870
21052W        W37186   4.083  11.121   5.719 -0.2631  0.1355  0.0759
21053W        W37187  13.738  13.805  15.406 -0.2420  0.0454  0.1109
21054W        W37188   5.023  18.053  13.577  0.1219 -0.0866  0.0956
21055W        W37189  10.208  15.538   4.835  0.1559 -0.0479  0.1534
21056W        W37190   5.010  17.771  12.171 -0.1850 -0.1077  0.0403
21057W        W37191   6.250  16.239   5.698 -0.3934  0.2864  0.0020
21058W        W37192   4.379   6.764  15.867 -0.0893 -0.1327 -0.2090
21059W        W37193   0.556  11.425   2.860  0.0696 -0.1964  0.0827
21060W        W37194   7.826   2.730  15.256  0.3989 -0.1260 -0.4817
21061W        W37195   4.625   2.797   0.386 -0.4070  0.0223  0.2558
21062W        W37196   0.396   4.684  15.661  0.2979 -0.1047 -0.1981
21063W        W37197  16.561  10.617  14.794 -0.2249  0.3882 -0.0891
21064W        W37198   1.603  10.346  13.824 -0.0930 -0.3125 -0.1959
21065W        W37199   0.010  17.339  12.140 -0.0320 -0.2282 -0.1482
21066W        W37200  10.901  15.370   4.364 -0.0901  0.2552 -0.0882
21067W        W37201  10.199   3.469  11.589 -0.3338  0.0345 -0.3202
21068W        W37202   3.566  14.223   3.019 -0.0019 -0.0888 -0.0944
21069W        W37203  16.438  13.702   1.517  0.2802 -0.1134  0.0102
21070W        W37204  13.653   8.311   3.146 -0.2102  0.0141  0.1593
21071W        W37205   7.460   3.150   4.478 -0.0070 -0.0262 -0.0285
21072W        W37206   7.011  10.111   5.316 -0.2608  0.0022 -0.0679
21073W        W37207  11.226  16.110  12.947 -0.0581  0.0233  0.1791
21074W        W37208   1.169  17.224   1.764  0.1491 -0.0994 -0.1176
21075W        W37209   7.734  13.226  15.491 -0.3248  0.1411  0.1193
21076W        W37210   2.043  15.526  16.330 -0.1010 -0.0415 -0.2343
21077W        W37211  14.107   6.661  11.839 -0.2452 -0.2703 -0.0622
21078W        W37212   4.950   8.487  16.035 -0.1747 -0.1757  0.1780
21079W        W37213  16.110   4.447   2.673  0.3777 -0.2008  0.0912
21080W        W37214   8.491  14.103  14.379  0.2005 -0.1308 -0.0031
21081W        W37215   3.963   3.167  14.700 -0.1880 -0.1688 -0.0971
21082W        W37216   7.448  16.614  12.367  0.0109 -0.3934  0.1825
21083W        W37217  14.042   5.271  12.104 -0.2673 -0.2402 -0.0281
21084W        W37218  10.401   0.166  10.415  0.0247 -0.2243 -0.1239
21085W        W37219  17.165   9.087  15.593  0.0873  0.0284  0.0300
21086W        W37220  10.020   5.388   2.360  0.1247 -0.0180  0.0850
21087W        W37221  14.087  17.449  15.865  0.1455 -0.1339 -0.1192
21088W        W37222  14.884  14.340   4.659  0.2798  0.2701  0.0561
21089W        W37223  10.977   6.583  10.877 -0.2446 -0.0382  0.3703
21090W        W37224   9.100   2.609  14.937 -0.0100  0.1523 -0.0747
21091W        W37225  12.179   1.518  14.886 -0.0386  0.0875  0.0967
21092W        W37226   4.096  12.088  12.544 -0.2506 -0.2761 -0.0122
21093W        W37227  13.616   5.934  13.303 -0.2384 -0.0910 -0.2288
21094W        W37228  14.037  11.248   1.141  0.0572 -0.2455 -0.1179
21095W        W37229  13.870   7.277   0.298  0.1294  0.1925  0.2485
21096W        W37230   5.974   9.355   1.783 -0.2497 -0.0351 -0.0728
21097W        W37231  10.027   3.514   2.947  0.0326  0.1746 -0.0615
21098W        W37232   3.213  15.049  15.016 -0.2911  0.1923  0.1002
21099W        W37233  15.849   6.235   2.725 -0.0838 -0.2163  0.0087
21100W        W37234  13.090  16.151   2.399  0.0212 -0.0799  0.4056
21101W        W37235   5.732  10.422  12.383  0.0797 -0.0121  0.0666
21102W        W37236   6.109  14.053  12.894  0.2689 -0.2936 -0.2299
21103W        W37237   3.233  14.432  15.145  0.2349  0.1326  0.0202
21104W        W37238   0.316  16.447   2.349  0.2624  0.0287 -0.3927
21105W        W37239   9.181  13.998   0.040 -0.3039 -0.4247  0.0301
21106W        W37240  16.200  15.365   1.870  0.0439 -0.3536 -0.1126
21107W        W37241  10.538   8.810  15.393  0.1844  0.0162 -0.0684
21108W        W37242   0.565   3.196   5.463 -0.0962  0.0707  0.0692
21109W        W37243   0.850   0.999  12.346  0.1629 -0.1710 -0.0631
21110W        W37244   6.877   1.647   4.057  0.1708  0.1087  0.1824
21111W        W37245   0.802   5.997   2.413 -0.1005 -0.1281  0.3125
21112W        W37246   9.509  11.920   3.198  0.0108  0.0965  0.0468
21113W        W37247   3.574   7.294   3.454  0.0057  0.0560  0.3264
21114W        W37248  16.189  10.795  13.082  0.0986  0.2374  0.0563
21115W        W37249   9.552  12.049   1.271 -0.0691 -0.1471  0.2167
21116W        W37250  11.717  15.389  11.942  0.1678 -0.1547 -0.0377
21117W        W37251  10.390  12.304  15.832 -0.2262 -0.0305  0.0155
21118W        W37252   1.114  17.121   3.484 -0.2090  0.0596  0.0023
21119W        W37253   4.226  13.687   5.383 -0.1388 -0.1832  0.0262
21120W        W37254  18.073   5.867   2.493  0.0587  0.3177 -0.1179
21121W        W37255  13.788   5.039   2.448  0.1168  0.0326  0.1595
21122W        W37256  12.792  12.024   0.560  0.0470  0.2393  0.1877
21123W        W37257  12.186   2.121   5.385 -0.0439 -0.0990 -0.2556
21124W        W37258   8.598   4.701   3.419 -0.0079 -0.0695  0.1359
21125W        W37259  11.509   7.283  11.902 -0.0683 -0.2431  0.1085
21126W        W37260  17.595  10.711  13.243 -0.0514 -0.1899  0.1476
21127W        W37261  11.889  11.918  13.383  0.0307  0.1839 -0.0234
21128W        W37262  14.326   0.512   0.018 -0.0275 -0.0465 -0.0046
21129W        W37263  12.773   8.741   2.127 -0.1571  0.0639 -0.0261
21130W        W37264  11.236   8.147  13.026 -0.0500 -0.0784  0.0260
21131W        W37265  11.767   8.423   3.583 -0.0215 -0.2469 -0.2989
21132W        W37266   1.027   5.787   3.772 -0.0479 -0.2728 -0.0246
21133W        W37267   7.499   6.571   2.589 -0.3180 -0.4075 -0.0548
21134W        W37268   0.127   0.458   5.788 -0.1062 -0.0316 -0.1477
21135W        W37269   1.762  16.040   0.269  0.0241 -0.1576 -0.0259
21136W        W37270  11.283   4.891  11.957 -0.0481 -0.2267  0.1388
21137W        W37271   3.596  16.240   2.264  0.0765 -0.2503  0.2706
21138W        W37272  12.718  14.180  12.520  0.1134 -0.1524  0.2620
21139W        W37273  13.103   4.927  14.713  0.0567  0.0690 -0.0454
21140W        W37274   2.891   4.568   1.340  0.0024 -0.1758 -0.0013
21141W        W37275  10.157  11.788   2.049 -0.0239 -0.0593 -0.3580
21142W        W37276  12.851  12.113  12.711  0.0171 -0.0103 -0.1409
21143W        W37277  14.728   6.176  13.709 -0.1318 -0.1603 -0.4030
21144W        W37278  11.759  18.020  13.046 -0.2916  0.0378  0.0826
21145W        W37279  10.239  14.548  15.203 -0.0028 -0.0933 -0.0336
21146W        W37280   0.894  11.890   2.527 -0.0739  0.0452 -0.0357
21147W        W37281  13.838  12.590   4.978  0.1821  0.0394 -0.1815
21148W        W37282  12.699   5.803   3.270 -0.1105  0.2244  0.1892
21149W        W37283  15.966  13.751   1.739 -0.0428 -0.3046 -0.0606
21150W        W37284  17.418   0.198   4.171 -0.1780  0.2521 -0.1611
21151W        W37285  11.839  13.552  15.791  0.0277  0.0146  0.1620
21152W        W37286   3.054  16.682  13.785  0.1669 -0.2078  0.1858
21153W        W37287   9.156  16.332   5.459  0.1467 -0.0356  0.2178
21154W        W37288  12.313  16.144   1.604 -0.0088 -0.0375 -0.0218
21155W        W37289   2.409   6.743  12.516  0.2845 -0.0699  0.0201
21156W        W37290   0.084  13.044  11.921  0.1450 -0.1329 -0.2894
21157W        W37291  17.196  13.606   2.758 -0.0087  0.0350  0.0809
21158W        W37292  13.989   5.824  11.440 -0.0827  0.0947 -0.0227
21159W        W37293  14.023  11.343  11.654 -0.3505  0.2079  0.0933
21160W        W37294   1.889  14.411   1.589 -0.2383  0.2965 -0.0501
21161W        W37295   0.858   6.218   0.235 -0.1473  0.2142  0.2792
21162W        W37296   7.412   1.551   1.914 -0.1542  0.1944 -0.0960
21163W        W37297   5.806   3.987  11.107  0.2252 -0.1247 -0.1271
21164W        W37298   1.355   4.856   1.521  0.2751 -0.0246  0.1006
21165W        W37299  15.209   1.863   5.181  0.1606 -0.1831  0.2237
21166W        W37300   9.827   1.868  11.158 -0.1451 -0.0515 -0.2308
21167W        W37301  13.932   7.334  14.308 -0.2415 -0.4029  0.0445
21168W        W37302   7.929  13.768   3.290  0.0809  0.1376  0.2120
21169W        W37303  16.445   2.363  14.270  0.1930 -0.1289  0.0964
21170W        W37304  15.989   8.644   2.868  0.0463 -0.0207 -0.1964
21171W        W37305   1.737  14.374  12.403 -0.1367  0.2228 -0.1267
21172W        W37306  14.310   0.427  14.953 -0.2068 -0.1513  0.2624
21173W        W37307   4.006  16.032  13.274 -0.1039  0.1698  0.0461
21174W        W37308   3.409  14.150  12.836 -0.2365 -0.1968 -0.1015
21175W        W37309   2.871   6.412  11.380  0.0190  0.0811 -0.2709
21176W        W37310  12.427  17.162   1.455 -0.1011  0.2187  0.0119
21177W        W37311  12.416   5.340  14.176 -0.1432  0.4622 -0.1749
21178W        W37312   7.806   8.080   5.794 -0.1362  0.1602  0.0650
21179W        W37313  17.176  15.276   3.401 -0.3596  0.0065  0.0863
21180W        W37314   8.047   5.372  16.233 -0.1468 -0.1905 -0.0726
21181W        W37315   5.713   5.190  13.375  0.2536 -0.1034  0.4299
21182W        W37316   3.672  16.203   0.978 -0.0895 -0.0225  0.3897
21183W        W37317   9.854   2.985  13.365  0.0981  0.0666  0.1639
21184W        W37318   3.322   2.139   0.055 -0.1190  0.1469  0.0253
21185W        W37319  14.589   7.793  11.689  0.1952 -0.0762  0.0122
21186W        W37320   8.489   1.928  13.402 -0.0278 -0.0038 -0.1740
21187W        W37321   0.751   6.399   5.996 -0.3010  0.2448  0.2084
21188W        W37322   1.422   9.680   4.708 -0.4116  0.0515 -0.0014
21189W        W37323  13.328  16.040  11.639 -0.0065  0.1827 -0.0292
21190W        W37324   5.351  12.801  11.262 -0.2272 -0.1341 -0.1348
21191W        W37325  11.540   1.037   1.048  0.2786  0.0513  0.0997
21192W        W37326   1.063   2.416  12.140  0.2528  0.1549 -0.1715
21193W        W37327   3.703   0.035  12.818  0.3592  0.0316  0.1694
21194W        W37328   5.413   2.023  14.155 -0.2727  0.0172  0.1441
21195W        W37329   0.609   6.187  12.552  0.0055 -0.3298 -0.0773
21196W        W37330  10.676  14.853  12.628  0.0541 -0.3352  0.1072
21197W        W37331  10.264   8.531   4.421 -0.0669  0.0087  0.2434
21198W        W37332   1.880  16.038  13.547  0.1525 -0.0629 -0.0920
21199W        W37333  17.748   2.967  11.348  0.1168 -0.0292 -0.0223
21200W        W37334   1.463  18.088   5.600 -0.1843  0.1085 -0.1777
21201W        W37335  14.649  15.421   2.724 -0.1947 -0.0795 -0.1430
21202W        W37336  16.238   8.572   2.450 -0.0616  0.1799 -0.1492
21203W        W37337  14.443  16.724   3.697 -0.0713 -0.5243 -0.2343
21204W        W37338  11.940  11.579   5.508 -0.1576 -0.0680 -0.0976
21205W        W37339  11.721  13.810   3.660  0.0516  0.0913 -0.2060
21206W        W37340   5.835  11.549  10.661 -0.0374 -0.1294 -0.0056
21207W        W37341   2.877  17.808  15.204  0.1969  0.0521  0.1230
21208W        W37342   4.128   2.102  12.761 -0.0628  0.0059 -0.1330
21209W        W37343   0.826   0.898  15.067  0.1197 -0.2405 -0.0359
21210W        W37344   9.205   1.754  13.749  0.0517 -0.1558 -0.6052
21211W        W37345   4.824  13.969  14.159  0.2670 -0.0238 -0.1249
21212W        W37346   5.758  11.021  12.558  0.1879  0.1930  0.2755
21213W        W37347   3.831  12.069  11.981  0.0994 -0.0703 -0.0556
21214W        W37348   1.265   9.709  13.237 -0.2535 -0.0946  0.0609
21215W        W37349   3.957  16.598  14.549 -0.4008 -0.0207 -0.0970
21216W        W37350   3.650   1.361  15.563  0.0659 -0.2622 -0.1779
21217W        W37351  16.591  15.970  13.018  0.0628  0.2412  0.1532
21218W        W37352  17.240  10.132   0.133 -0.0399 -0.0228 -0.0866
21219W        W37353   1.379   1.372   5.351 -0.2043  0.0065  0.0794
21220W        W37354   0.198  11.989  16.283 -0.2653 -0.0353  0.4510
21221W        W37355   6.746  16.198   2.939 -0.0684  0.1161  0.0964
21222W        W37356  16.653  14.552   5.663 -0.0711  0.2853  0.0207
21223W        W37357  15.131  10.868  13.915 -0.1195  0.2911  0.0711
21224W        W37358   3.373   9.068  11.827  0.3261  0.0484 -0.1716
21225W        W37359   0.497   5.252  13.582 -0.0890  0.2119 -0.0855
21226W        W37360   5.212   9.744   0.139  0.3304  0.0546  0.1708
21227W        W37361   4.805   4.305   5.084 -0.0059 -0.1007  0.0398
21228W        W37362  15.791  12.718   5.660  0.0070 -0.0264  0.1699
21229W        W37363   7.866   7.849  15.010 -0.3552 -0.1123  0.0490
21230W        W37364   7.108  11.929   5.695  0.2370 -0.1937  0.0243
21231W        W37365   7.815   0.504   2.838 -0.1244 -0.4183  0.1770
21232W        W37366   6.862   8.758  15.815  0.2473 -0.0456 -0.1509
21233W        W37367  15.904  10.855  15.173  0.2610  0.1664  0.1690
21234W        W37368   4.891   7.608   1.223  0.1522  0.1461 -0.2324
21235W        W37369   8.496   7.349   2.398  0.1426  0.1146  0.1092
21236W        W37370   1.409  14.585   1.780 -0.3649 -0.2574 -0.3239
21237W        W37371   7.519   7.782  12.938 -0.1941 -0.3724  0.1674
21238W        W37372   6.466   5.081  15.235  0.1982 -0.1149  0.1441
21239W        W37373   8.687  15.560  15.863  0.0459 -0.0841 -0.1779
21240W        W37374  12.658   6.555   3.780 -0.2948 -0.1390 -0.0953
21241W        W37375  17.547   3.508  11.369  0.0181  0.1273  0.2185
21242W        W37376  10.429   6.761   2.455  0.0151  0.6512 -0.0609
21243W        W37377   4.593  10.808  14.436 -0.1051 -0.0355  0.3102
21244W        W37378  10.126   3.673   1.067 -0.1256  0.0696 -0.0039
21245W        W37379   3.095   7.069  10.787  0.0753 -0.2497  0.1997
21246W        W37380   9.095  15.866   2.704 -0.3159 -0.0042  0.0667
21247W        W37381  10.842   2.628  13.492  0.0621 -0.1145 -0.0612
21248W        W37382   3.213  14.139   4.279 -0.2140 -0.3815  0.1396
21249W        W37383   0.620  16.315   3.838  0.1404 -0.1318 -0.1989
21250W        W37384   3.010   0.749   0.889  0.1891 -0.1060 -0.1916
21251W        W37385   4.225   4.217  12.909 -0.1075  0.0594  0.1308
21252W        W37386  13.831  16.413  12.120 -0.0254  0.2266 -0.1592
21253W        W37387   1.507   1.739  11.962 -0.0168 -0.1245  0.0726
21254W        W37388   1.639   7.111  12.134  0.0532 -0.0632  0.3007
21255W        W37389  17.259  15.170   5.199  0.0335  0.0861 -0.1561
21256W        W37390   8.160   5.463  12.193 -0.1699  0.1536  0.2447
21257W        W37391  12.947   7.114   4.427  0.0072  0.1777 -0.0475
21258W        W37392   3.055   7.844  11.455  0.1187 -0.3098  0.0271
21259W        W37393  17.228  14.902  12.652  0.0213  0.3644  0.3839
21260W        W37394  11.996   0.317   4.694  0.0927 -0.1226 -0.0170
21261W        W37395   7.502  13.316  11.858 -0.0105 -0.0419 -0.3657
21262W        W37396   1.156   2.390   3.763  0.0768 -0.0812  0.1167
21263W        W37397  11.233  16.257  11.701  0.0231  0.1606  0.2678
21264W        W37398   1.574   1.234   3.601 -0.1141 -0.5038  0.1116
21265W        W37399   5.193   9.197   5.544  0.1851 -0.2956 -0.0830
21266W        W37400  16.603   9.615   1.120  0.1585  0.1642 -0.0993
21267W        W37401   4.499   9.728   0.692 -0.1212  0.1367  0.0692
21268W        W37402  17.205   0.649  13.625 -0.0083  0.0502  0.1668
21269W        W37403   2.742   2.654  13.300  0.2449  0.4198  0.2276
21270W        W37404   2.995   4.665  16.162 -0.2327 -0.0217  0.2100
21271W        W37405  10.181   1.403  14.482 -0.0971  0.0974  0.3159
21272W        W37406   0.284   0.573  11.561 -0.3087 -0.1490  0.0155
21273W        W37407   5.283   3.678  15.918 -0.0004 -0.1786  0.0086
21274W        W37408  15.330   3.614  13.814  0.1030 -0.4306 -0.1918
21275W        W37409  10.926   7.408   4.801  0.1166  0.1111 -0.0964
21276W        W37410   3.804   7.633   3.765  0.1049  0.0798  0.2127
21277W        W37411  17.311   4.966  11.464  0.0766 -0.1932 -0.1627
21278W        W37412   9.943  14.349  14.692 -0.0698  0.0903 -0.0250
21279W        W37413  13.722  16.958   2.256 -0.0561 -0.0614 -0.0158
21280W        W37414   8.976   0.082  14.412  0.0463 -0.1190 -0.1136
21281W        W37415  11.816   1.865  11.754 -0.0417 -0.0953 -0.3012
21282W        W37416  18.041  15.899   0.833 -0.0385  0.0074 -0.3434
21283W        W37417   3.505  10.861   4.496  0.1325  0.0647 -0.0012
21284W        W37418   0.438   7.065  15.124  0.0784 -0.0685 -0.1146
21285W        W37419   2.665  14.092   3.383 -0.0369  0.1264  0.0167
21286W        W37420   9.560  17.365  16.242 -0.1659 -0.2117 -0.2471
21287W        W37421   3.458   9.886   0.458  0.0066  0.1151  0.3801
21288W        W37422   8.713  17.430   4.145  0.0283 -0.0990  0.1358
21289W        W37423   8.671   2.916  11.237  0.1384 -0.0248 -0.2198
21290W        W37424   2.059  17.628   3.664  0.1893  0.1408  0.0744
21291W        W37425   6.089   2.601   6.055  0.1738  0.0927 -0.1819
21292W        W37426   2.595   9.888   3.088  0.2008  0.1345  0.0516
21293W        W37427   7.737  15.336  12.890  0.0161 -0.2363  0.0254
21294W        W37428   5.487   3.052   6.565 -0.2011  0.0200  0.3364
21295W        W37429   0.413  11.780   1.930 -0.1666 -0.1521  0.1430
21296W        W37430   4.846   5.890   0.922  0.2219  0.2712  0.0902
21297W        W37431   5.786   1.593   2.842 -0.0398 -0.1174  0.0835
21298W        W37432   1.242  11.862   2.105  0.0076  0.1337 -0.0090
21299W        W37433   2.122  14.195   2.663 -0.0632  0.2065  0.2278
21300W        W37434   3.196   4.408   4.997  0.0826 -0.0338 -0.2856
21301W        W37435   5.754   5.044   2.880  0.3510  0.1672  0.0266
21302W        W37436  17.353   1.730  12.125 -0.0349 -0.2000  0.1448
21303W        W37437  16.458   8.300  11.180  0.1848  0.0908  0.0069
21304W        W37438   6.992  14.591   3.019  0.1442 -0.0188 -0.0791
21305W        W37439  17.701   9.253   0.216 -0.2502 -0.2999  0.1834
21306W        W37440  10.985  12.718   1.693  0.0668 -0.1458 -0.1151
21307W        W37441  16.417   6.866   3.932 -0.0699 -0.0393 -0.2757
21308W        W37442   0.774   8.291   3.001  0.0103 -0.1079 -0.1793
21309W        W37443   2.231   3.536  13.115 -0.3353 -0.0018 -0.2823
21310W        W37444  10.909   5.084   2.357 -0.3762 -0.0588 -0.0104
21311W        W37445  16.581  11.794   4.227  0.3026  0.1693 -0.2012
21312W        W37446   5.028  12.523   2.231  0.0497 -0.0179  0.1801
21313W        W37447  11.545   0.939  12.699  0.1163  0.1324 -0.1950
21314W        W37448  17.383   1.496   4.082  0.2380 -0.0195 -0.1237
21315W        W37449  14.268  13.691   0.715 -0.0543 -0.0031  0.1641
21316W        W37450   9.399  13.441   4.891  0.2617 -0.1731  0.2848
21317W        W37451   2.838  13.677   3.727  0.3860  0.0811 -0.0454
21318W        W37452   3.937  10.863  13.629  0.2982 -0.0438  0.0667
21319W        W37453  15.236  16.013  13.942 -0.0679 -0.1980 -0.1322
21320W        W37454  13.612   7.459  16.314 -0.1242  0.1715  0.0078
21321W        W37455  14.055  15.682  16.230  0.2415 -0.2297 -0.1192
21322W        W37456   4.571  13.441  14.897  0.0802  0.0981  0.1629
21323W        W37457   2.046   5.521   2.635  0.2127 -0.4837  0.0202
21324W        W37458   3.151   0.895   2.772 -0.2190  0.0160 -0.3854
21325W        W37459   7.005   8.950   5.318 -0.0097 -0.1259  0.2228
21326W        W37460   2.969  15.104  13.656 -0.0205 -0.0818  0.2157
21327W        W37461  17.369   1.915  14.788  0.0954  0.1018  0.1160
21328W        W37462   4.415  17.639   0.263 -0.1954 -0.1095 -0.0312
21329W        W37463   8.895   0.037   2.739  0.1505 -0.1920  0.1282
21330W        W37464  10.291   2.846   0.585 -0.0040 -0.1473  0.1397
21331W        W37465  13.707   7.462  12.784 -0.4039 -0.2629 -0.1284
21332W        W37466  10.394   1.641   5.899 -0.0521  0.2401 -0.2067
21333W        W37467   5.800  10.356  15.549 -0.4008 -0.0189  0.2055
21334W        W37468  17.616   5.097  14.725  0.2674 -0.1073 -0.0290
21335W        W37469  12.813  17.051  11.129  0.0022  0.0274  0.2866
21336W        W37470   0.274   9.234  13.219  0.0197 -0.0378  0.2944
21337W        W37471  12.145   7.404  16.292 -0.0427  0.4112  0.0578
21338W        W37472  10.148   4.537   3.587  0.1027 -0.3741  0.2594
21339W        W37473   3.305   1.074   3.185 -0.2521  0.1558 -0.3032
21340W        W37474  10.347  17.761  13.188  0.0588 -0.2416 -0.2344
21341W        W37475  16.137   4.845  11.525  0.2490 -0.2438 -0.0075
21342W        W37476  11.311   6.435   4.233  0.0094  0.0884  0.1149
21343W        W37477   9.449   8.597  16.263 -0.1395  0.2675 -0.0273
21344W        W37478   7.261   3.702   1.572  0.1872  0.0257 -0.0323
21345W        W37479  14.906   1.800  11.601 -0.0739  0.0758 -0.0219
21346W        W37480   1.474  15.983  13.841 -0.3780  0.1657  0.3332
21347W        W37481   5.180   5.350  12.318  0.3789  0.0986  0.1417
21348W        W37482  12.413   3.902   0.235 -0.2330  0.1109 -0.0739
21349W        W37483   6.645   8.246   3.202 -0.0762 -0.0660  0.3690
21350W        W37484   5.163   6.498  13.505 -0.2600 -0.2336  0.0721
21351W        W37485   7.986  17.749  14.096  0.1270 -0.0197  0.0717
21352W        W37486  17.465  14.053   3.750  0.0846  0.0156  0.1737
21353W        W37487   6.168   7.673  13.845 -0.0480  0.0349  0.0376
21354W        W37488  12.637   6.282   4.284 -0.1333 -0.0904 -0.3166
21355W        W37489   4.740   7.580  14.551 -0.0343  0.1099 -0.1100
21356W        W37490  11.481  11.197  11.436  0.3408 -0.2628  0.0097
21357W        W37491  11.692   1.776   2.929 -0.1692  0.0357 -0.2673
21358W        W37492  16.291   5.086  12.278  0.1063  0.1974 -0.0742
21359W        W37493   8.861   4.890  12.823 -0.1128 -0.0218 -0.1096
21360W        W37494   7.323   4.148   3.800 -0.0466  0.4049  0.2304
21361W        W37495  10.435   1.975   3.120  0.1502 -0.1806  0.1983
21362W        W37496   4.313  14.503   1.058 -0.3662 -0.0088  0.0395
21363W        W37497   9.007  18.077   5.331 -0.0110  0.0653 -0.0476
21364W        W37498   2.770   5.297   4.827 -0.2420  0.0828 -0.2665
21365W        W37499   5.599   6.647   0.530  0.0580  0.1871  0.2582
21366W        W37500   4.624   1.367  13.406 -0.3626 -0.0472  0.0864
21367W        W37501  11.809  15.602  14.751  0.0814 -0.2449  0.3206
21368W        W37502  12.527   4.739   0.939 -0.1569 -0.0610  0.1738
21369W        W37503   5.195  13.995  15.121 -0.0449  0.2316  0.0604
21370W        W37504  17.788  12.101   4.171 -0.1329  0.0653  0.2698
21371W        W37505   8.967  17.031  11.575  0.0738 -0.3457  0.2611
21372W        W37506  13.566  16.770  11.881 -0.0700  0.0663 -0.0141
21373W        W37507  15.678  16.244  14.121 -0.3417  0.0614  0.0553
21374W        W37508   0.771  13.277   4.539 -0.4526 -0.0531 -0.2673
21375W        W37509   5.987   1.463  12.059  0.1332 -0.1439 -0.1287
21376W        W37510   9.808   3.697   5.056 -0.1737  0.0544  0.0227
21377W        W37511   4.565  12.702  14.625 -0.0754  0.0386 -0.0742
21378W        W37512  16.564   2.239  14.697  0.0841  0.0073 -0.2247
21379W        W37513  17.525  14.666  12.148 -0.3665 -0.0427 -0.1312
21380W        W37514   7.059   4.503  14.874 -0.1162  0.1287 -0.0172
21381W        W37515  12.610   3.155  14.313 -0.2498 -0.0179  0.1786
21382W        W37516   2.149  11.610  16.062 -0.3216  0.2003  0.2051
21383W        W37517  15.908   3.846  12.366 -0.2143 -0.1253 -0.1159
21384W        W37518   0.973   3.437   0.247 -0.1718 -0.0073 -0.0738
21385W        W37519   5.827  15.320   2.860 -0.1271  0.1088  0.0226
21386W        W37520   2.753   0.994   3.163  0.1787 -0.1075  0.1930
21387W        W37521  18.042  12.092  14.332 -0.2471 -0.3743  0.0699
21388W        W37522  15.057   3.675   0.942  0.0928  0.4753  0.1461
21389W        W37523   1.737   8.977  12.233  0.1326 -0.0249 -0.0522
21390W        W37524   5.648  13.300   5.806 -0.1072 -0.0040 -0.1118
21391W        W37525  11.546   9.256   1.038  0.0182  0.3903  0.0698
21392W        W37526  13.112   5.722   4.547  0.1640  0.0132 -0.0179
21393W        W37527  15.489  15.784  15.324 -0.1594 -0.0141 -0.0023
21394W        W37528   9.459  12.097   4.426 -0.0653  0.3087  0.4001
21395W        W37529   3.351  11.504  13.853  0.2527  0.0033 -0.0328
21396W        W37530  10.936   8.884  16.224  0.2991 -0.3301 -0.1565
21397W        W37531  10.908   5.548  14.393 -0.0283  0.1534 -0.2788
21398W        W37532   5.525  14.821   1.560  0.2166  0.1022  0.0123
21399W        W37533  11.114   9.122   1.237 -0.1598  0.1102  0.2773
21400W        W37534  16.379  15.565  13.234 -0.0522  0.1724 -0.0629
21401W        W37535  12.942   3.987   0.910 -0.3333 -0.1237  0.1551
21402W        W37536  16.810  15.938   1.078  0.0443 -0.1008 -0.0765
21403W        W37537   4.727   8.468   2.514 -0.3483 -0.1782 -0.1723
21404W        W37538   8.610  15.781   4.290  0.0427 -0.3078  0.0803
21405W        W37539  16.338   1.984   4.825 -0.4817  0.2134  0.0912
21406W        W37540   6.967   5.795  11.108 -0.0064  0.1251 -0.0374
21407W        W37541   3.757  11.108   1.512  0.2283  0.0025 -0.0756
21408W        W37542  10.229   3.716   0.514  0.0360 -0.0076 -0.3921
21409W        W37543  16.118   4.005   0.328 -0.2229 -0.1666  0.2329
21410W        W37544   0.972   7.382  13.875  0.0208 -0.0894  0.2123
21411W        W37545  17.927  17.548   6.033 -0.0996 -0.0116 -0.1421
21412W        W37546   4.555  12.623   3.394 -0.1805  0.2876 -0.1618
21413W        W37547  15.693  17.440   3.665  0.1506  0.0633 -0.1125
21414W        W37548   0.974   1.261   2.353  0.0395  0.1889  0.2638
21415W        W37549  17.315   0.131   2.470  0.2245 -0.0859  0.0931
21416W        W37550   3.269   7.645  14.286 -0.0006 -0.0932  0.2372
21417W        W37551   7.380  16.355   2.739  0.0665  0.1131  0.2071
21418W        W37552  10.938   8.543   5.593  0.0693  0.0902 -0.1202
21419W        W37553   9.826  10.554  12.899 -0.2878 -0.2850  0.0962
21420W        W37554   5.194  17.152   3.135 -0.2335  0.0313 -0.0805
21421W        W37555  15.121  11.021   6.250  0.0157  0.2144 -0.1037
21422W        W37556  10.992  10.719   5.440 -0.2310 -0.2386  0.0527
21423W        W37557   6.509   7.624   0.935  0.1244  0.2257  0.1111
21424W        W37558   5.897   9.952  13.374 -0.1985  0.2265  0.2283
21425W        W37559   8.658  10.835  13.211  0.0255 -0.1342  0.0570
21426W        W37560   3.433  10.006  11.613  0.2075 -0.2196 -0.0006
21427W        W37561   1.534   9.773  11.568  0.3139  0.2781  0.0874
21428W        W37562  10.433   2.507   0.173  0.0112  0.0225 -0.0898
21429W        W37563   0.665  13.755   3.841 -0.2051  0.1563 -0.0894
21430W        W37564   1.865  14.166   0.985 -0.0183  0.0820  0.2613
21431W        W37565  12.938   3.280   5.426  0.1097  0.1741  0.3132
21432W        W37566   2.252  16.336   1.946  0.3522 -0.0064 -0.0559
21433W        W37567   2.038  15.816   5.387 -0.1862  0.0291 -0.2627
21434W        W37568  16.741  12.580   0.202  0.0129 -0.4979 -0.0641
21435W        W37569   6.684   1.406   1.148  0.0926 -0.0682 -0.0643
21436W        W37570   2.495   8.036   0.119  0.2354 -0.1204  0.3148
21437W        W37571  16.863   5.871  13.740 -0.1588  0.1199 -0.0765
21438W        W37572  10.787  13.436  10.275 -0.0858 -0.3662  0.0493
21439W        W37573   5.528   4.587   0.883  0.4118  0.0051  0.0221
21440W        W37574   4.620  17.610  15.612  0.3214 -0.1733  0.0611
21441W        W37575   5.957   9.596   0.118  0.1424 -0.2307  0.4153
21442W        W37576  10.925  14.262  16.371 -0.1976 -0.2706  0.1170
21443W        W37577   7.250   9.584  15.513 -0.0533 -0.0159 -0.0617
21444W        W37578   0.420  11.534   4.345 -0.1432 -0.0640  0.0146
21445W        W37579   3.139   4.949   1.002  0.0592  0.1054 -0.0071
21446W        W37580  16.666   3.896   0.563  0.1817 -0.0525 -0.1218
21447W        W37581   1.054   4.490  11.212 -0.1556  0.1994  0.0756
21448W        W37582  18.057   1.056   1.074 -0.3036  0.2103 -0.3153
21449W        W37583   9.145   7.036  15.516 -0.2454  0.0627 -0.1245
21450W        W37584  11.539   5.853  14.816  0.0647  0.1266  0.0273
21451W        W37585   1.521   2.685  12.020  0.2231 -0.3911  0.1387
21452W        W37586  17.652   7.296   3.041  0.1446  0.0574 -0.0664
21453W        W37587   8.792  12.163  14.403  0.0302  0.2567 -0.1928
21454W        W37588  15.537   4.969   5.123  0.0289 -0.2187  0.0827
21455W        W37589   9.402  17.826  13.053  0.0063  0.0668  0.0370
21456W        W37590   6.362  17.565   4.080 -0.2218 -0.0267  0.1079
21457W        W37591   5.777  15.126   2.443 -0.0025 -0.0219 -0.1545
21458W        W37592  11.918   7.587   5.082 -0.1294 -0.3567  0.0542
21459W        W37593   7.520  15.278   5.062 -0.1801 -0.3048 -0.1995
21460W        W37594   4.622  14.677   0.222  0.0926  0.0722 -0.0579
21461W        W37595   4.198   2.677   3.275  0.1825  0.0574 -0.3838
21462W        W37596  16.393   1.956  15.064  0.0522 -0.2622  0.0733
21463W        W37597   3.512   0.469  14.024  0.1118  0.0535  0.0651
21464W        W37598   8.024   8.783  16.389 -0.0683 -0.0412  0.0091
21465W        W37599   7.014  13.814  15.605 -0.2863  0.1822 -0.0695
21466W        W37600   5.352   5.393   1.780 -0.0835 -0.2839 -0.1297
21467W        W37601   6.107  13.167  14.983 -0.0417  0.1432  0.1785
21468W        W37602   1.838  12.514  11.856 -0.2728  0.0985 -0.1367
21469W        W37603  13.154   0.146  11.523  0.0021  0.1754  0.0443
21470W        W37604   3.045   2.277  15.444 -0.0116 -0.1934  0.0260
21471W        W37605   7.572  17.309   1.265 -0.1520 -0.0625 -0.0332
21472W        W37606   0.552  13.829  12.407  0.1990  0.0727 -0.0284
21473W        W37607  10.345   1.572   4.125 -0.0399  0.0512 -0.0563
21474W        W37608  14.441   5.533   1.831 -0.1053 -0.3357  0.1672
21475W        W37609   6.268   0.138  14.119 -0.0458  0.0026 -0.0914
21476W        W37610   8.615  16.469   2.080  0.1582  0.3278  0.2103
21477W        W37611  16.440   6.248  15.625 -0.3109 -0.1412 -0.1682
21478W        W37612   1.923   1.110  16.325 -0.0089 -0.0227  0.0379
21479W        W37613  16.176   3.525  11.995  0.2335  0.0748  0.1537
21480W        W37614   5.750  11.935  14.731 -0.0899  0.0133  0.0846
21481W        W37615  12.463   4.396  13.184  0.2722  0.2773  0.2179
21482W        W37616   4.539  17.801   4.561  0.0561  0.0589 -0.0612
21483W        W37617   1.166  11.491   2.468  0.1310  0.1078  0.0571
21484W        W37618  10.077   6.446   0.040  0.1162  0.0670  0.1673
21485W        W37619   5.534   0.231  14.667 -0.0010  0.0508 -0.1186
21486W        W37620  13.600   2.197   3.510 -0.3517  0.3357 -0.1545
21487W        W37621  12.436  17.321  12.237 -0.2796  0.3354  0.0243
21488W        W37622  10.419   0.650   3.893 -0.2268  0.2829  0.0240
21489W        W37623   3.437   1.517  15.030 -0.2336  0.1281 -0.0435
21490W        W37624   6.148  15.028  16.032 -0.2176  0.0835 -0.0583
21491W        W37625   9.025   8.246   5.596  0.0699 -0.4093  0.1027
21492W        W37626   8.649   2.425  15.101 -0.0154  0.1592  0.0696
21493W        W37627  18.048   0.361   2.232  0.0192 -0.0743 -0.0356
21494W        W37628   4.611  15.770   1.611 -0.0696 -0.1763  0.2198
21495W        W37629  17.273   0.637   1.815  0.1507  0.1877 -0.2047
21496W        W37630   2.925   4.643  14.650  0.0008  0.2815 -0.2068
21497W        W37631   3.799   6.519   0.133  0.1685  0.0494 -0.3004
21498W        W37632  11.756   4.420  12.102  0.1856  0.1556 -0.1426
21499W        W37633   4.984   8.303   3.373  0.1077 -0.1391 -0.2938
21500W        W37634  15.479  15.004   1.575 -0.1776 -0.1595 -0.0551
21501W        W37635   8.361   8.463   0.087 -0.1256  0.2133  0.0374
21502W        W37636  18.068   7.537   4.962  0.1211 -0.1328  0.2737
21503W        W37637   0.827  13.601  14.197  0.0190 -0.0912 -0.1790
21504W        W37638  10.390   1.793   0.746 -0.1839  0.2387 -0.1084
21505W        W37639   6.772   9.751   5.023  0.0863  0.0232  0.0706
21506W        W37640  16.939  11.875   1.565 -0.1747  0.4953  0.0708
21507W        W37641   0.201   7.073  12.412  0.0554  0.0769  0.0268
21508W        W37642   9.785   6.588  13.702 -0.1425 -0.1075 -0.1060
21509W        W37643  11.058   8.701   0.291 -0.2460 -0.0125 -0.0062
21510W        W37644  16.913  17.124  11.154 -0.2889 -0.4618  0.0447
21511W        W37645  13.520   4.733  14.443  0.1057 -0.0242  0.0832
21512W        W37646   4.787   0.898  12.560 -0.2429 -0.3401  0.0162
21513W        W37647  13.999  16.678  11.616 -0.2135  0.0383  0.2208
21514W        W37648   5.384  13.690  13.319 -0.1544  0.0969  0.3781
21515W        W37649  11.879   8.128   2.276  0.0466 -0.0334  0.0054
21516W        W37650   0.752   7.253  11.581 -0.1347 -0.3640 -0.0317
21517W        W37651  13.365  17.468  12.867 -0.0273  0.1455 -0.0067
21518W        W37652   1.464   6.682  11.728  0.1704  0.2197 -0.2228
21519W        W37653   3.084   6.762   5.172  0.0801  0.0352 -0.3001
21520W        W37654   4.868  17.620  14.144 -0.1914 -0.1999  0.3357
21521W        W37655   9.988   8.469   5.470 -0.1652 -0.0947 -0.1984
21522W        W37656   7.167   3.456  16.114 -0.0585 -0.0726 -0.0175
21523W        W37657   2.385   6.894  11.407 -0.5041  0.0335 -0.0440
21524W        W37658  10.624  18.049  15.601  0.2460  0.4144 -0.1040
21525W        W37659  13.332   9.325   1.215  0.0581  0.0082  0.0835
21526W        W37660  11.285   3.958  14.871 -0.2070 -0.0734 -0.1990
21527W        W37661   2.556   6.743  13.061  0.0445  0.0702  0.1086
21528W        W37662   7.500  16.569  14.836 -0.3728  0.0751  0.0798
21529W        W37663   2.785   8.163   5.385 -0.2265 -0.2213 -0.2163
21530W        W37664   2.357  14.145  14.646 -0.1125  0.3551 -0.1208
21531W        W37665  17.172   0.897  11.972 -0.2322 -0.3868 -0.1450
21532W        W37666   3.503  10.590   4.064  0.0435 -0.0160 -0.0831
21533W        W37667  15.107   8.711  16.206  0.0719  0.0330  0.0698
21534W        W37668   9.219  11.081  12.048 -0.0426  0.0306  0.2718
21535W        W37669   2.493   0.194  14.095  0.1995  0.1980  0.0530
21536W        W37670  16.007  11.635   4.207 -0.1351  0.1092  0.1816
21537W        W37671  14.819  14.060   0.238  0.3622 -0.2327  0.0191
21538W        W37672  10.935   6.551   5.147 -0.2107 -0.1354 -0.0847
21539W        W37673   1.291   8.080  14.908 -0.0347  0.0224  0.0412
21540W        W37674   0.998  10.765  14.932 -0.2403 -0.0877  0.0924
21541W        W37675  15.946   0.389   1.894 -0.1407  0.0665  0.3824
21542W        W37676   3.334   0.907   4.295  0.0716 -0.0603 -0.1821
21543W        W37677  10.357  11.628  15.678 -0.1396  0.1189  0.1661
21544W        W37678   4.056  16.188   4.331 -0.1852 -0.1970 -0.2455
21545W        W37679   5.478   9.966   4.180 -0.2467 -0.2487 -0.1804
21546W        W37680   7.219  17.740   2.095 -0.0240  0.1592  0.1354
21547W        W37681   3.998   2.758   0.565 -0.1345  0.3573 -0.0515
21548W        W37682  12.721   5.062  12.617 -0.0112  0.0780 -0.1836
21549W        W37683  12.741   1.436   4.246 -0.1036 -0.2107 -0.0274
21550W        W37684   9.883  10.525   3.756 -0.3013  0.3341  0.0894
21551W        W37685   6.178  16.620   0.817 -0.0132  0.0449 -0.0558
21552W        W37686  10.444  13.252  12.317 -0.2456 -0.2578  0.2500
21553W        W37687   3.337  16.534   1.891  0.2585 -0.0049  0.3344
21554W        W37688  12.628  15.248  15.694 -0.1122  0.2085  0.1056
21555W        W37689   9.783   8.058   4.526 -0.0882 -0.0402 -0.1631
21556W        W37690  12.219  12.941   0.622 -0.0372 -0.1560  0.2794
21557W        W37691   3.283  11.809   5.427  0.0953  0.4274 -0.0952
21558W        W37692   4.079   2.070  13.244  0.1841 -0.3926  0.2317
21559W        W37693  10.575  15.444   2.276  0.0039  0.0925 -0.0596
21560W        W37694  10.207  10.625   2.963  0.2421  0.2352  0.1104
21561W        W37695   1.837   1.582  15.409 -0.0332 -0.1371 -0.0538
21562W        W37696   4.436  12.329   1.582 -0.2051 -0.1326  0.2139
21563W        W37697   0.836   3.169   0.636 -0.2214 -0.1302  0.0059
21564W        W37698  15.194  14.190  16.248  0.3245 -0.2315  0.2535
21565W        W37699   2.582  12.160   0.499  0.2143 -0.1757 -0.3634
21566W        W37700   9.673   3.803   1.382  0.3518  0.0784 -0.1824
21567W        W37701  10.986  11.728  12.088 -0.0986 -0.0949 -0.1432
21568W        W37702  14.573   9.598   5.058 -0.0017  0.0804 -0.1097
21569W        W37703   9.612  12.136  11.816  0.0981  0.0626  0.0238
21570W        W37704   0.441   7.146  13.017 -0.0269 -0.1914  0.1393
21571W        W37705   7.243   5.515  15.822  0.1209  0.0402  0.1719
21572W        W37706   0.531   7.283  11.104 -0.0815 -0.3137 -0.1556
21573W        W37707   0.844   0.207  16.171  0.0177  0.0348 -0.0548
21574W        W37708  10.045   5.749   1.372  0.2535  0.0048  0.0032
21575W        W37709  12.394   5.096   4.686 -0.0965 -0.0682 -0.0610
21576W        W37710  14.430  11.098  14.684  0.0976 -0.0020 -0.0252
21577W        W37711  15.375   1.576   4.763  0.2682 -0.0351 -0.0354
21578W        W37712   8.383  10.184   0.912  0.2641 -0.2839 -0.2216
21579W        W37713  11.854  10.297  14.654  0.0134 -0.2917  0.1818
21580W        W37714  12.750   3.391   1.084 -0.1071 -0.2062  0.3043
21581W        W37715   7.841   9.861  12.006  0.0975  0.0064  0.1262
21582W        W37716   4.303   8.518  14.707 -0.1939 -0.0189 -0.2447
21583W        W37717   0.627   9.098  10.736  0.0722 -0.3082 -0.3627
21584W        W37718  10.263  17.463  12.688 -0.0614  0.1138  0.1125
21585W        W37719  13.357   1.242   1.262  0.1106  0.0668 -0.1480
21586W        W37720   7.471  16.768   3.915  0.2177 -0.0201  0.0813
21587W        W37721   1.920   5.524  13.411 -0.1209  0.0167  0.0309
21588W        W37722   0.140  14.037   4.418 -0.1588 -0.1013  0.1084
21589W        W37723   6.982  12.730   1.878  0.3332  0.0830  0.1812
21590W        W37724   0.187  17.104   3.574 -0.2318  0.0116  0.1751
21591W        W37725   1.331   3.878  14.304  0.0568 -0.1682  0.0756
21592W        W37726   0.185   0.581  15.733 -0.0336 -0.3013 -0.1495
21593W        W37727  15.085  15.777   2.702 -0.1130 -0.1499 -0.0441
21594W        W37728   4.090  15.842   3.018  0.0421 -0.0903  0.0300
21595W        W37729   4.370  12.058  12.955 -0.1124  0.1249 -0.0193
21596W        W37730   6.170   5.342  14.390 -0.1472 -0.3283 -0.2319
21597W        W37731  14.345   3.617  15.246  0.0145  0.1848  0.2393
21598W        W37732   3.926   2.547   5.162  0.0714 -0.1263 -0.0327
21599W        W37733  15.684  16.673  12.888 -0.1155  0.1298 -0.2676
21600W        W37734  11.591  14.404   5.536 -0.1430 -0.1244 -0.0098
21601W        W37735  15.740   0.022  16.336  0.0199 -0.0402 -0.1624
21602W        W37736   5.298   3.512   0.486 -0.1019 -0.0645 -0.2888
21603W        W37737  10.256  16.037   0.279 -0.1372  0.0362 -0.1695
21604W        W37738   2.601  12.901   0.958  0.3893  0.0096  0.0771
21605W        W37739   5.075   4.517   2.734  0.3021  0.4422 -0.0145
21606W        W37740   3.868   8.782  14.594 -0.0732 -0.2645 -0.3786
21607W        W37741   9.458   8.592   1.067  0.1239 -0.0462 -0.1974
21608W        W37742  10.473   2.108   2.084  0.0150 -0.1226  0.0017
21609W        W37743   6.240  16.206  15.427  0.1946  0.0753  0.0730
21610W        W37744  17.783  17.680   5.235 -0.1122 -0.2894  0.1781
21611W        W37745  17.688  14.766  14.391  0.1500 -0.0899  0.1328
21612W        W37746   4.032   4.204   1.507  0.0780 -0.1621 -0.4363
21613W        W37747   9.604   2.788   1.134 -0.0692 -0.2506  0.2821
21614W        W37748  13.048  17.240   6.138  0.0464  0.1444 -0.2306
21615W        W37749  16.320  15.734  14.914 -0.2525  0.0530 -0.2915
21616W        W37750  17.516  15.293  15.659  0.2853  0.1787  0.1020
21617W        W37751   1.115   0.001  15.608 -0.0362  0.1148  0.1049
21618W        W37752   5.979  10.958   2.788  0.1207  0.0554  0.1466
21619W        W37753  17.503   9.398   2.894  0.1015 -0.0085  0.0020
21620W        W37754  15.889   5.356  13.504  0.2704  0.0690 -0.1381
21621W        W37755   1.417  12.084  16.013 -0.1038 -0.0934  0.1809
21622W        W37756  10.308  11.392   6.073 -0.1184 -0.1026 -0.3019
21623W        W37757   0.090   9.342  13.649  0.1253  0.4423  0.0905
21624W        W37758   4.082  17.457  15.019  0.3023 -0.1126 -0.2304
21625W        W37759   5.066  15.816  14.675 -0.3947  0.0556 -0.2656
21626W        W37760  14.823  13.852   3.826 -0.0456 -0.1057  0.4917
21627W        W37761  16.956  10.499   5.367 -0.0451 -0.1458  0.1723
21628W        W37762  15.182   0.023   1.236 -0.3058  0.4092  0.0274
21629W        W37763   9.189  11.638   5.006  0.0145 -0.2528 -0.3555
21630W        W37764   6.993   0.768  13.850  0.4018  0.3581 -0.3340
21631W        W37765   4.922   5.854   4.836 -0.0470 -0.1077  0.0058
21632W        W37766   4.186   5.507   3.335 -0.0692 -0.1052 -0.1609
21633W        W37767  13.387  14.048  13.383 -0.1646  0.0343 -0.0940
21634W        W37768   7.987   3.679   4.172 -0.0874  0.0469  0.1204
21635W        W37769  12.593   3.030  13.790  0.2886  0.1113 -0.0163
21636W        W37770  17.529   2.366  14.572 -0.2861  0.3308  0.2725
21637W        W37771  13.520   4.562   1.721 -0.0684 -0.2659 -0.5097
21638W        W37772  15.112   0.670   1.423 -0.0322 -0.0111 -0.3780
21639W        W37773  10.897  14.598  14.574  0.1183 -0.1050 -0.0752
21640W        W37774  13.231  16.629   3.549  0.4186 -0.0608  0.2116
21641W        W37775   6.096   8.802  11.855  0.1136 -0.0959 -0.3702
21642W        W37776   6.319   0.924  12.695  0.0939 -0.1537 -0.1630
21643W        W37777   4.366  11.024  11.564  0.1150  0.0721 -0.2430
21644W        W37778   7.071  15.769  12.173  0.0717 -0.2755  0.0859
21645W        W37779  11.811   6.305   4.926 -0.0660  0.1058 -0.1698
21646W        W37780   9.061  12.343  13.556 -0.0844  0.0509  0.0378
21647W        W37781  15.285  12.843   0.635  0.2841 -0.1788 -0.1073
21648W        W37782   8.900   1.697  14.196 -0.3613  0.3778  0.1616
21649W        W37783   2.703   6.650   4.219 -0.2006 -0.2090 -0.1889
21650W        W37784   3.374   2.215  14.482 -0.2744 -0.0527 -0.2008
21651W        W37785  10.276   7.302  12.877 -0.0414  0.2189  0.2584
21652W        W37786   3.221   3.566  13.756  0.2205 -0.1520  0.0709
21653W        W37787   2.495  11.117  15.152  0.2155 -0.2308 -0.0692
21654W        W37788  10.234  17.159   0.607  0.0251  0.1710  0.0765
21655W        W37789   5.730   5.359   4.495  0.0058  0.1202  0.3425
21656W        W37790   2.616   7.148   4.425  0.2301 -0.0176  0.0837
21657W        W37791   2.824   5.193  15.940 -0.1651 -0.2012 -0.0837
21658W        W37792  14.851   9.056  15.933  0.1850 -0.0646  0.1284
21659W        W37793  17.933  16.187   0.011 -0.1398 -0.1146  0.1979
21660W        W37794   1.062   6.926  13.514 -0.1176  0.1737  0.2276
21661W        W37795   9.015   4.615  13.227  0.0305 -0.0802  0.3482
21662W        W37796  14.554  17.850  11.477  0.1433 -0.3436 -0.0063
21663W        W37797  15.092   7.203  13.730 -0.2850  0.0922 -0.1200
21664W        W37798  12.791   0.149   3.171 -0.1309 -0.0368 -0.2856
21665W        W37799  14.172   1.951  14.811 -0.1145  0.0686 -0.1255
21666W        W37800   4.069  12.321   3.796  0.4844  0.0468  0.0775
21667W        W37801  10.358   6.617  10.879  0.2211  0.1219 -0.0396
21668W        W37802   7.032   8.671  14.135 -0.0622 -0.1823  0.3501
21669W        W37803   6.697  17.406  13.826 -0.1071 -0.0656 -0.3124
21670W        W37804  11.123  14.765  11.304  0.1654 -0.1824 -0.1736
21671W        W37805  13.720   2.276  13.169 -0.0684 -0.4164 -0.4804
21672W        W37806   4.312   9.067   1.948 -0.0098  0.2657  0.3488
21673W        W37807  12.006   3.291   5.191 -0.0344 -0.0241 -0.0014
21674W        W37808   9.739   9.544  12.203 -0.3060 -0.1092 -0.2425
21675W        W37809  11.487  16.312   4.485 -0.1417 -0.1502 -0.2185
21676W        W37810   9.044   5.973  11.779  0.1280  0.3933  0.2519
21677W        W37811  15.072  15.300  12.572 -0.2316  0.0770 -0.0559
21678W        W37812   5.359  16.499  15.414 -0.0719  0.2009  0.2078
21679W        W37813   0.997   1.190   0.404  0.0926  0.0073  0.0784
21680W        W37814   2.620   9.570   5.424 -0.4120  0.0774  0.1032
21681W        W37815  18.061   3.951   5.385 -0.1564 -0.1769  0.2187
21682W        W37816   0.662  13.638   1.679  0.0213  0.1545  0.1371
21683W        W37817  11.268  17.036   0.237  0.0763 -0.0347  0.2712
21684W        W37818   8.941   3.152   3.381 -0.0031 -0.2174 -0.0703
21685W        W37819  16.167  12.390  16.162 -0.1057  0.2433  0.2172
21686W        W37820  11.608   7.027  15.271  0.1785  0.0763 -0.1195
21687W        W37821  12.616   3.397  13.071  0.1319  0.0795  0.2531
21688W        W37822   9.633   7.511  14.697 -0.1412 -0.1523 -0.0993
21689W        W37823  11.702   6.613   1.140 -0.0603 -0.0443  0.1466
21690W        W37824  17.219  10.076   0.659 -0.3716 -0.2709 -0.1580
21691W        W37825   0.731  16.119  16.105  0.1552 -0.1783  0.0452
21692W        W37826   1.297  17.304   0.352 -0.2095  0.1557 -0.0479
21693W        W37827   3.099   8.580  13.750  0.1447 -0.1729  0.1426
21694W        W37828  12.991  15.795   1.216 -0.3636 -0.2804  0.2928
21695W        W37829   4.019   0.686   6.281  0.0510 -0.1355  0.0271
21696W        W37830   6.716  14.861  11.888 -0.0946 -0.2833 -0.4953
21697W        W37831  11.019  12.824  14.690 -0.0284  0.0562  0.0301
21698W        W37832  13.603   0.610   4.382 -0.3068  0.0629 -0.0905
21699W        W37833   4.832   0.830   5.151  0.0790  0.0828 -0.0501
21700W        W37834   9.531   8.365   4.205  0.0930  0.1847 -0.1727
21701W        W37835   4.344   2.763  11.794 -0.1574  0.3512 -0.1754
21702W        W37836  15.711  12.795  12.529 -0.0238 -0.1234  0.0074
21703W        W37837  10.505   8.592   2.789 -0.0659  0.0247  0.0313
21704W        W37838  17.089   5.319  12.379  0.0080  0.0085  0.0859
21705W        W37839   2.857  17.003   2.445 -0.1938  0.0880 -0.0602
21706W        W37840   5.641  14.515   1.939 -0.0812 -0.0300  0.1145
21707W        W37841  17.661   8.015   3.313  0.1834  0.0385 -0.0993
21708W        W37842   9.564  11.663   6.076  0.3388 -0.3393 -0.1621
21709W        W37843  13.581  17.634   5.462  0.0375 -0.0556  0.0958
21710W        W37844  16.890  14.414  11.638  0.3453 -0.1418  0.0983
21711W        W37845   9.339  17.744  15.829 -0.3282  0.1728 -0.0671
21712W        W37846  12.175   6.958  14.045  0.0508  0.0410  0.2593
21713W        W37847  12.431   9.460  13.146  0.0642 -0.0584  0.0630
21714W        W37848   7.595  15.575   0.131  0.2156 -0.5656 -0.1733
21715W        W37849  16.851   9.117   2.215 -0.1868  0.3580 -0.3166
21716W        W37850  16.613   6.046  12.829  0.2133  0.0151 -0.1606
21717W        W37851   3.937   5.947   5.334  0.0201  0.2477 -0.1061
21718W        W37852  13.975   0.815   3.100 -0.0791 -0.0007 -0.0273
21719W        W37853  14.467   9.203   0.280 -0.4688 -0.0574 -0.1047
21720W        W37854  11.680   0.793  11.601 -0.3247 -0.1611  0.1483
21721W        W37855   9.893   0.749   3.733 -0.2589  0.0796  0.0399
21722W        W37856  15.038   8.984  14.604 -0.0440  0.1846  0.3309
21723W        W37857   6.934  12.508  15.494 -0.0935 -0.1887  0.0904
21724W        W37858  18.018  11.027  15.276  0.0389  0.0488 -0.1739
21725W        W37859   0.747  13.437   2.170 -0.0006  0.2262 -0.0967
21726W        W37860  15.216   7.593   2.713  0.0776 -0.0746  0.1938
21727W        W37861  14.569   5.189  12.342  0.0882 -0.1133  0.2582
21728W        W37862   7.504   7.874   6.174 -0.3241 -0.0693 -0.2568
21729W        W37863   1.750   5.845   2.294 -0.1808 -0.1131 -0.0891
21730W        W37864  12.545   4.074  13.780  0.0818 -0.0211  0.1217
21731W        W37865   7.598  14.103  14.080 -0.1790  0.4926 -0.1014
21732W        W37866  14.417  16.440  12.088 -0.2149  0.0889 -0.1500
21733W        W37867   4.915  15.200   4.698 -0.1696 -0.1990  0.1928
21734W        W37868   1.324   0.993   4.901 -0.2824  0.0519 -0.3088
21735W        W37869  16.840   1.087  12.335 -0.1309  0.2127 -0.1454
21736W        W37870   4.116  16.609   3.364 -0.2247  0.1096 -0.0978
21737W        W37871   3.575  17.219   6.153  0.0059 -0.0391  0.0279
21738W        W37872  14.587   6.465   2.379 -0.0769  0.2483  0.0293
21739W        W37873  10.504   2.493   1.316  0.1304  0.4186  0.1109
21740W        W37874   4.986   3.090   5.703  0.1240 -0.1968 -0.0801
21741W        W37875   1.392   3.585   2.470 -0.0015 -0.0138 -0.0353
21742W        W37876  13.819  14.037   0.922 -0.0816 -0.3342 -0.2565
21743W        W37877   7.403   9.644  12.689 -0.0661 -0.2383 -0.1792
21744W        W37878   9.946  12.684   0.716  0.0123 -0.1314  0.1259
21745W        W37879   7.867  12.946   1.303 -0.2579 -0.2586 -0.1546
21746W        W37880   1.312   7.813   2.364  0.0226  0.0139  0.2474
21747W        W37881   9.087   4.930  11.526 -0.1731  0.2352 -0.0839
21748W        W37882   7.407   9.991   0.902 -0.2065 -0.0602 -0.0590
21749W        W37883   0.763   9.545   2.164  0.0257  0.0886 -0.0083
21750W        W37884  15.257   8.006   4.505 -0.2457  0.0140  0.3035
21751W        W37885   1.248  12.556   4.924 -0.0232  0.2405 -0.0869
21752W        W37886   0.534   5.779  12.914 -0.0968 -0.1418  0.0574
21753W        W37887   3.263  12.123   4.692 -0.4554 -0.4078 -0.0839
21754W        W37888  10.739  14.190   0.407 -0.1253  0.2338  0.1973
21755W        W37889  13.039   4.480  14.474 -0.3074 -0.0955  0.1661
21756W        W37890  13.824   2.220  10.974 -0.2483 -0.0701  0.2712
21757W        W37891   2.938  10.156  14.020  0.1913  0.0729  0.2348
21758W        W37892   8.537  11.057   5.368  0.2306  0.0178  0.0069
21759W        W37893   6.137   9.231   5.295 -0.2145 -0.0996  0.0471
21760W        W37894  12.818   0.419   2.741  0.0623  0.1242  0.1022
21761W        W37895  16.444   2.586  15.854  0.1068  0.1946  0.0310
21762W        W37896   3.434  14.958   5.613  0.0646 -0.1324  0.1914
21763W        W37897   1.090   8.180   3.779  0.0350 -0.0452 -0.1332
21764W        W37898   5.626   8.612  15.843 -0.1096  0.0022  0.2220
21765W        W37899   8.509  16.863   5.496  0.4002  0.0145  0.3871
21766W        W37900  15.861   2.353  12.204 -0.1493 -0.2567 -0.0787
21767W        W37901  12.038   7.283   6.136  0.1611 -0.0901 -0.1190
21768W        W37902   2.074   2.705  14.818  0.1631 -0.1371 -0.1860
21769W        W37903  10.745  15.906  13.734  0.0872 -0.4107  0.2300
21770W        W37904   4.152   4.901   4.179 -0.1855 -0.1777 -0.2051
21771W        W37905   5.328  11.184  14.371  0.2904 -0.0519  0.0539
21772W        W37906   1.390  13.832   4.139 -0.0528 -0.1586  0.1894
21773W        W37907  10.175  13.175   1.923  0.0869  0.1334  0.0738
21774W        W37908   6.132   5.509  12.305  0.1233 -0.0269  0.1004
21775W        W37909  17.537  13.666   4.996 -0.0246  0.1161 -0.3673
21776W        W37910   8.144   6.648   4.545 -0.1631 -0.1690 -0.2544
21777W        W37911   5.113  17.011   0.254 -0.2557  0.2131 -0.3713
21778W        W37912   3.872   0.455  11.914 -0.3040  0.4645 -0.0057
21779W        W37913   8.720  17.943   3.699 -0.0778 -0.0663 -0.0789
21780W        W37914   4.118  10.595   5.251 -0.0332 -0.3121  0.0789
21781W        W37915  14.283  16.042  13.428  0.0934  0.0522 -0.0517
21782W        W37916   7.291  13.815  12.797 -0.0002  0.0566  0.2984
21783W        W37917   9.727  11.720  13.283  0.1089 -0.0134  0.0074
21784W        W37918   9.483   2.203   1.697  0.0671 -0.0054  0.2210
21785W        W37919  15.796  10.205   0.729 -0.0167  0.3202  0.1762
21786W        W37920  12.985  12.597  12.628  0.3640 -0.0381  0.0239
21787W        W37921  16.049   5.955  11.544 -0.0313 -0.1734 -0.0933
21788W        W37922  11.367  12.039  11.317 -0.2826  0.3582 -0.0550
21789W        W37923   5.081   4.307   3.179  0.0618 -0.1630  0.2087
21790W        W37924  13.878   6.519   2.823 -0.4115 -0.0695 -0.1041
21791W        W37925  15.906   3.330   4.008  0.2371  0.0065  0.2330
21792W        W37926  14.080   1.108  15.910  0.0567  0.2025  0.1426
21793W        W37927  13.450   4.269  14.151 -0.0293 -0.1717 -0.3882
21794W        W37928   1.888  13.893  14.629 -0.2159  0.0603  0.2355
21795W        W37929   0.400   9.905  12.632  0.0536  0.1204  0.2649
21796W        W37930   2.644  17.050   4.180  0.2679  0.0492  0.1359
21797W        W37931   2.336  10.383  13.289  0.2571  0.1569  0.0516
21798W        W37932  12.285  13.795  13.933  0.1188  0.0678 -0.2006
21799W        W37933  10.821   5.799  13.961  0.2634 -0.2781  0.1042
21800W        W37934   2.462  15.110  13.399  0.1229  0.1369  0.0441
21801W        W37935  13.327  12.523  12.133 -0.0291  0.0282 -0.0257
21802W        W37936  14.549  15.341  13.497  0.0048 -0.0108 -0.2564
21803W        W37937   4.832   0.211   3.244  0.0413  0.0454  0.1175
21804W        W37938   7.626   5.716   1.608  0.2622 -0.1315  0.0488
21805W        W37939   5.587   0.360   5.418 -0.1584  0.3482 -0.0818
21806W        W37940  14.643  16.147   2.164  0.0648 -0.0736 -0.2587
21807W        W37941  17.088  16.745   1.493  0.2369  0.3211  0.2181
21808W        W37942   0.039   9.298  15.618  0.2003 -0.2427 -0.2687
21809W        W37943   6.068   8.955   1.426 -0.1361  0.0457  0.2093
21810W        W37944   8.201  13.396   2.020 -0.2043  0.0276  0.1089
21811W        W37945   8.976   3.088  10.771  0.1163  0.0395 -0.1718
21812W        W37946  17.741   0.615   4.123  0.2123 -0.1650  0.1515
21813W        W37947  15.433   4.052  15.407  0.0863  0.0572  0.3494
21814W        W37948   0.193   2.675  12.222 -0.1379 -0.0617  0.0276
21815W        W37949  10.461   9.405   5.537  0.1921  0.0415  0.1414
21816W        W37950   4.481   7.213   5.730  0.2260 -0.0635  0.0842
21817W        W37951  10.484   4.839   1.664 -0.3660  0.0379  0.2355
21818W        W37952   5.805   8.268  16.211 -0.1592 -0.0670  0.1522
21819W        W37953  13.861  16.927  14.718 -0.0835 -0.4346  0.2546
21820W        W37954   8.844  13.321  15.987  0.0044  0.2842  0.0466
21821W        W37955   9.363  15.114  11.705 -0.1900  0.0518 -0.0893
21822W        W37956  14.779   2.278   2.438  0.0535 -0.0207  0.1738
21823W        W37957  14.864  15.704   2.294 -0.0538 -0.0373 -0.1929
21824W        W37958  17.610   4.730   0.019 -0.0140 -0.4545  0.1472
21825W        W37959   0.911  11.113   3.639 -0.0325  0.0853 -0.0179
21826W        W37960   2.579   2.033  15.327  0.1042  0.0881 -0.0543
21827W        W37961  12.215   8.149   2.684 -0.0586 -0.2959  0.0724
21828W        W37962   2.224  14.853   5.678  0.0223  0.0243 -0.0793
21829W        W37963  12.604   3.545  13.573 -0.1714 -0.1208 -0.0156
21830W        W37964  14.093   3.843   2.529 -0.1561 -0.0562  0.1413
21831W        W37965  17.926   7.391  15.481 -0.1390  0.1729  0.0527
21832W        W37966  16.348  12.575   5.836  0.0072  0.2111  0.0481
21833W        W37967   0.380  12.097   1.165 -0.0891 -0.0840 -0.0053
21834W        W37968   9.352   6.617   1.808  0.3572 -0.0926 -0.0232
21835W        W37969   6.574  17.755   4.486 -0.4618  0.2202  0.1400
21836W        W37970   5.982  14.947   5.042  0.0275  0.0977  0.2495
21837W        W37971  16.351  11.415  14.609 -0.0629  0.0854  0.1263
21838W        W37972   4.443   2.247   5.044 -0.2370 -0.0177  0.0992
21839W        W37973   4.836  15.254   2.876 -0.0582  0.0187  0.1702
21840W        W37974  11.567  16.163  16.326 -0.0554 -0.1047 -0.0716
21841W        W37975   4.904  16.180   0.407  0.0348 -0.0924 -0.1346
21842W        W37976   4.206  14.910   1.343 -0.0502  0.2973  0.1809
21843W        W37977   6.927   0.074  11.272 -0.0077  0.1533 -0.2901
21844W        W37978   3.722   9.451  12.649 -0.1656  0.0418  0.0122
21845W        W37979   4.028   9.949  15.958 -0.0218 -0.0829 -0.0660
21846W        W37980  12.199  10.583  12.926  0.2520  0.1324 -0.0074
21847W        W37981  14.497  11.969  15.605 -0.2774  0.1115 -0.2602
21848W        W37982   5.705  17.548  11.438  0.1221 -0.2754  0.1048
21849W        W37983   3.350   1.176   2.031 -0.2218  0.2745 -0.1248
21850W        W37984  11.427   7.906  15.556 -0.2013  0.0714 -0.0170
21851W        W37985  15.192  11.184  15.611 -0.1698 -0.0627  0.3142
21852W        W37986   2.960   9.302  15.348 -0.2587 -0.1961 -0.2092
21853W        W37987   0.147  13.765  15.411  0.0699  0.0294  0.0753
21854W        W37988  16.388  16.554  16.127 -0.0620  0.2802  0.1650
21855W        W37989  13.376  17.283   1.783 -0.1340 -0.2912  0.1248
21856W        W37990   5.676  10.472   1.583  0.0556  0.1788 -0.1042
21857W        W37991   8.250   4.483  12.598 -0.1601  0.2186 -0.1230
21858W        W37992  15.467   8.216  12.817 -0.0680 -0.0510  0.1055
21859W        W37993   0.814   5.753   1.934  0.1549  0.0518 -0.0042
21860W        W37994  15.166  11.999   3.037 -0.3153 -0.0026  0.0691
21861W        W37995   4.197   9.666  11.304 -0.3826 -0.0629  0.3831
21862W        W37996  15.549   0.801  15.790  0.0777  0.1232 -0.1024
21863W        W37997   7.618   7.535  14.639 -0.0317 -0.1571  0.2689
21864W        W37998   6.157  17.707  15.347  0.1931  0.0538  0.0749
21865W        W37999  12.109   4.266  12.472 -0.0296  0.0943  0.1259
21866W        W38000   1.567   7.258   3.551  0.3898 -0.0801  0.2723
21867W        W38001   0.326  16.969  13.169 -0.1459 -0.0793 -0.0243
21868W        W38002  17.756  13.426   4.132  0.0602  0.1221 -0.0949
21869W        W38003   8.613  14.120   0.088 -0.2102  0.2031 -0.2226
21870W        W38004  12.658  13.299  13.629  0.1291  0.2129  0.0433
21871W        W38005  14.048   3.722  13.491  0.0774 -0.1115 -0.4262
21872W        W38006   0.181  12.180  12.376  0.1550 -0.0081 -0.2504
21873W        W38007  13.674   1.327  12.454  0.1416  0.2198  0.2007
21874W        W38008  16.395   7.843   5.802  0.1507  0.3797 -0.1180
21875W        W38009  13.755   1.142   2.049 -0.1338 -0.0618 -0.2266
21876W        W38010   1.800   0.198   2.547  0.0909 -0.0925 -0.1782
21877W        W38011   8.240   2.041   2.066 -0.1100  0.2724  0.0600
21878W        W38012   7.445  11.631   3.874 -0.2573 -0.1778 -0.1570
21879W        W38013  15.454   6.118  14.631  0.2423  0.4809  0.0240
21880W        W38014  14.502  16.922  15.719 -0.0030  0.1075  0.0911
21881W        W38015   8.048   3.272   3.703  0.0963  0.0331  0.0070
21882W        W38016   8.358   2.859   4.541  0.1822 -0.1260  0.0692
21883W        W38017   1.225   5.162   2.412 -0.0328 -0.3168 -0.2517
21884W        W38018   9.618  17.756   4.284  0.1503 -0.0944  0.0445
21885W        W38019  12.325   8.431   2.269  0.1973  0.2844  0.2776
21886W        W38020  14.263   6.299  16.002 -0.2920 -0.1418  0.0130
21887W        W38021  17.749   8.173  15.196  0.0898 -0.0903 -0.1736
21888W        W38022  14.531  15.774   3.180  0.3597 -0.1381  0.0523
21889W        W38023  17.472   5.069   0.780 -0.2651 -0.0991  0.1281
21890W        W38024   5.633   9.143   4.143  0.6123 -0.1303  0.0857
21891W        W38025  16.496  14.061   2.305 -0.4006  0.3139  0.1142
21892W        W38026   1.895  12.074  13.055 -0.0021 -0.1478  0.1004
21893W        W38027   0.427  17.995  15.261 -0.0833 -0.3102  0.0010
21894W        W38028  11.236  10.049   3.203 -0.2638 -0.3325  0.1080
21895W        W38029  13.483  16.312  15.381 -0.2995  0.0252  0.0287
21896W        W38030   0.737   5.240  12.312 -0.2488 -0.0734  0.0964
21897W        W38031   3.134   9.787  13.752  0.1138 -0.0277  0.0322
21898W        W38032  11.134  13.237  16.308  0.2332 -0.3605 -0.1005
21899W        W38033   8.939   3.888  16.244 -0.2381 -0.1797 -0.0213
21900W        W38034   1.761   5.552  14.396 -0.1718 -0.1721  0.2785
21901W        W38035  16.358   8.177  12.710 -0.0703  0.4321  0.0351
21902W        W38036  10.513   3.666   1.388  0.1144  0.0344  0.1000
21903W        W38037   2.978   1.762  15.119 -0.0864  0.0489  0.1564
21904W        W38038   7.324   7.169   4.236 -0.0613 -0.1141  0.0411
21905W        W38039   0.037  15.032  16.115  0.1049  0.1208  0.1282
21906W        W38040  10.802   9.190  15.641  0.0955  0.0708 -0.0649
21907W        W38041  18.033  14.905   5.385 -0.1685  0.1295  0.4488
21908W        W38042  16.078   1.168   5.320  0.0135 -0.1951  0.3158
21909W        W38043   2.289   8.803  10.832 -0.0321  0.0265  0.0465
21910W        W38044   4.960   8.545  11.929  0.1070  0.0213  0.0042
21911W        W38045  12.036   2.232  11.138 -0.1363  0.0666 -0.2522
21912W        W38046   1.086  16.512  16.048 -0.1948  0.0835  0.2782
21913W        W38047  13.151   2.025   4.941  0.1655 -0.1617 -0.1767
21914W        W38048  17.942   0.969   0.159  0.0121 -0.0976 -0.0774
21915W        W38049   9.404  11.641  15.753  0.1802 -0.1061  0.0662
21916W        W38050  17.345   4.358   3.878  0.1906  0.2081  0.0259
21917W        W38051   3.445  17.168   3.117  0.3721 -0.1061  0.1369
21918W        W38052  10.873   5.273  10.636 -0.0273  0.0692 -0.2769
21919W        W38053  14.427  16.353  13.047  0.2557 -0.1046  0.0007
21920W        W38054  15.607   4.966   3.128  0.0582 -0.2201  0.0894
21921W        W38055  10.707   2.845  10.897  0.0395  0.0019  0.1065
21922W        W38056   4.375   5.204  14.738 -0.0620  0.1199  0.1430
21923W        W38057   1.020   7.367  15.852 -0.1980 -0.1927 -0.1781
21924W        W38058   5.927   7.775  13.421  0.1360  0.0108 -0.0962
21925W        W38059   0.541  12.368   4.431  0.0959 -0.1281  0.1175
21926W        W38060   5.520  15.788   2.983  0.0893 -0.2502  0.2250
21927W        W38061   0.538   0.848   5.707 -0.0297 -0.0917 -0.1482
21928W        W38062  10.841  13.252  12.029  0.0266 -0.0929 -0.4238
21929W        W38063  10.982  14.270  11.453 -0.0543  0.2717 -0.1097
21930W        W38064   4.015  12.103   0.043  0.5344  0.2106  0.0927
21931W        W38065  14.280   2.789  11.377  0.1721 -0.0693 -0.1359
21932W        W38066  14.726  14.190  13.958  0.2216 -0.0460  0.0202
21933W        W38067   9.582   1.974   0.389 -0.0584 -0.3733  0.0222
21934W        W38068   7.211  12.550  13.200 -0.0222  0.1238  0.1039
21935W        W38069   2.351  16.780   2.400  0.1772 -0.1384  0.0122
21936W        W38070   9.327  12.796   0.649  0.1154 -0.0449  0.1386
21937W        W38071   8.684   8.645  11.635  0.1892  0.1381 -0.4342
21938W        W38072   5.530   8.312  15.509  0.0104 -0.0483  0.0220
21939W        W38073  12.146  17.632  13.127  0.0976  0.1600 -0.3284
21940W        W38074   2.798   1.314   0.827 -0.1498 -0.0735 -0.0450
21941W        W38075   6.557   8.964   2.399 -0.2409 -0.3583 -0.0712
21942W        W38076  14.395  17.875   3.734 -0.0430  0.0289  0.0590
21943W        W38077  10.405   2.523   1.799 -0.0633 -0.0354  0.0264
21944W        W38078   4.632  11.542  13.809 -0.0424  0.0491  0.0441
21945W        W38079  16.303   5.883   1.075 -0.2610  0.1006 -0.0124
21946W        W38080   1.385  10.892   4.287  0.1230  0.1453 -0.0523
21947W        W38081   4.420  12.754   5.547 -0.1886 -0.0161 -0.2267
21948W        W38082  16.471  17.765  14.375 -0.2511  0.2379  0.2960
21949W        W38083   4.349  17.150  12.483  0.2651 -0.1120  0.5010
21950W        W38084  13.772   5.696   0.600  0.1370  0.1634  0.2039
21951W        W38085  12.287  18.017   1.646  0.3515  0.0100  0.0964
21952W        W38086   2.077  11.880   1.548  0.2251  0.2224 -0.0644
21953W        W38087   4.472  14.693  15.137  0.0640  0.0568  0.3142
21954W        W38088   8.588  16.923   3.856  0.0565 -0.2916  0.0485
21955W        W38089  16.886   8.669   5.281  0.0114 -0.0310 -0.1730
21956W        W38090  11.719  10.224   3.281 -0.0536 -0.1213 -0.1881
21957W        W38091   5.092  10.733  14.350 -0.1044 -0.0276 -0.1270
21958W        W38092  14.265   0.482  11.168  0.3693 -0.0461 -0.0433
21959W        W38093   4.185   3.940  13.350  0.0951  0.1194  0.0529
21960W        W38094  14.046  14.036   5.187  0.0264 -0.1579 -0.1315
21961W        W38095   4.083   0.495   4.468 -0.0902 -0.0938  0.1453
21962W        W38096   7.264  17.170   3.031  0.0181 -0.0921  0.1207
21963W        W38097   6.271   6.875   3.056  0.0559 -0.1370 -0.2258
21964W        W38098   8.733   8.836   5.386  0.0737 -0.0163 -0.2388
21965W        W38099  13.508  10.075   5.717  0.2176 -0.2601 -0.2112
21966W        W38100   2.754  14.818   0.870 -0.0389 -0.0487  0.0939
21967W        W38101   2.400  17.639  11.544 -0.3663 -0.4662 -0.0148
21968W        W38102  17.474  11.938  13.781  0.1064  0.2439  0.1723
21969W        W38103  15.120   2.975   4.320  0.2542 -0.1130  0.1467
21970W        W38104  13.214   9.669   0.757 -0.0893 -0.0953 -0.1696
21971W        W38105   9.477   9.205  13.500  0.2110 -0.3597  0.0489
21972W        W38106  14.449  16.826  13.516 -0.1683 -0.1049 -0.1385
21973W        W38107  12.579  11.259   3.563 -0.1631  0.2419 -0.1536
21974W        W38108   2.288   2.148  14.144 -0.1566  0.2511  0.1788
21975W        W38109   0.916   3.725  16.266 -0.0540  0.0034 -0.2928
21976W        W38110   7.430   3.704   5.823 -0.2450  0.1621  0.0807
21977W        W38111   5.182  10.565  14.816  0.1232  0.4541 -0.0091
21978W        W38112  14.087  12.252   2.368  0.0496 -0.2140  0.1060
21979W        W38113   5.460  10.271   1.963 -0.0873 -0.0720  0.0784
21980W        W38114   5.283   5.647  11.792 -0.1236  0.3535  0.0319
21981W        W38115  16.001   1.111  14.816 -0.0691  0.1466  0.2007
21982W        W38116   6.632   4.744  13.436  0.0839  0.0832  0.1258
21983W        W38117   2.155  16.828  11.885 -0.3086 -0.0335  0.0338
21984W        W38118   6.050  14.973   4.523 -0.2337  0.2155  0.2411
21985W        W38119  10.569  16.565   4.182  0.1032 -0.3309  0.0533
21986W        W38120   9.419  14.560   2.320  0.0402  0.4401 -0.1557
21987W        W38121   2.568  16.300  15.827  0.2835  0.3267 -0.1449
21988W        W38122  16.271  10.558   4.056  0.0555  0.0231  0.0807
21989W        W38123  17.367  12.859  15.281 -0.0277 -0.1774  0.1013
21990W        W38124   8.430  17.001   3.319 -0.2354  0.0731 -0.1359
21991W        W38125   4.197   3.016  16.026 -0.0492  0.0888  0.0108
21992W        W38126  14.721  11.950   2.627 -0.0972  0.0147 -0.0986
21993W        W38127   1.061   0.256   5.582 -0.0447 -0.0128  0.5227
21994W        W38128   6.944  11.585  12.994  0.0035 -0.0358  0.1650
21995W        W38129  11.206   2.389  13.937  0.1003  0.3467  0.2425
21996W        W38130  13.279  14.886   0.077 -0.0640 -0.1752 -0.1626
21997W        W38131   7.781   7.391  15.206  0.0708  0.2276 -0.4871
21998W        W38132   7.802   4.802  15.607 -0.0021  0.1317  0.1852
21999W        W38133  11.211  15.109  15.371 -0.0248  0.0189  0.2485
22000W        W38134   1.459  11.092   0.698  0.1436  0.1008 -0.1132
22001W        W38135  16.366   6.698  15.384  0.0538 -0.0554 -0.3722
22002W        W38136   0.638  12.516  11.626  0.0337  0.4093 -0.0363
22003W        W38137   3.036   9.337   5.619  0.1088 -0.0296 -0.0218
22004W        W38138   7.334  11.321  15.072  0.1056  0.1073  0.2878
22005W        W38139   6.872   1.907  14.621 -0.0587  0.0604 -0.0017
22006W        W38140   9.270  13.336   1.817  0.2086 -0.0254 -0.1078
22007W        W38141  11.209  16.629   3.610 -0.2384  0.1024  0.3974
22008W        W38142   8.613  13.173   3.152 -0.0048 -0.1085  0.2737
22009W        W38143  12.227   3.960   1.421 -0.1287 -0.1849  0.2593
22010W        W38144   2.891   8.240  10.447  0.1197 -0.0041  0.1227
22011W        W38145  17.396  13.635  11.800  0.2071  0.0351 -0.4465
22012W        W38146  16.983  11.424  12.246 -0.2728  0.1562  0.2890
22013W        W38147  17.288   1.820   5.419  0.0286  0.0580 -0.3684
22014W        W38148  11.823   6.082   1.187 -0.1695 -0.1041  0.3769
22015W        W38149   6.349   1.906  13.657 -0.1638  0.4147  0.1786
22016W        W38150   4.803  11.414   0.834  0.0588  0.0083 -0.0679
22017W        W38151  16.105   3.156  14.280  0.2674 -0.0386  0.0929
22018W        W38152  12.179  13.340   4.776  0.0203 -0.3507 -0.0806
22019W        W38153   7.843  17.040   3.796 -0.0545 -0.2039 -0.1450
22020W        W38154   5.085   0.104  15.625  0.0755  0.0025  0.3363
22021W        W38155   9.556  15.330  14.350 -0.2085  0.2419  0.1215
22022W        W38156   5.006   3.930   2.836 -0.1463 -0.3477  0.1867
22023W        W38157  17.690  10.003   0.350 -0.1364 -0.3922  0.0637
22024W        W38158   6.291  16.270   4.725  0.0122 -0.1352  0.4044
22025W        W38159   3.147   3.241  12.281  0.2919  0.0311  0.4124
22026W        W38160  14.934   2.593   2.774 -0.1386  0.1779 -0.0664
22027W        W38161   4.269  11.147   3.039 -0.0814 -0.0053 -0.2084
22028W        W38162   1.523  17.833   2.528 -0.1052  0.0925  0.0528
22029W        W38163  14.257  16.809  14.365  0.0987  0.1361 -0.0997
22030W        W38164   1.894   4.000   5.663  0.1587  0.1063  0.1983
22031W        W38165   2.260  10.560  13.820  0.0361  0.2804  0.1671
22032W        W38166   2.765  10.065   1.637 -0.1826  0.1306 -0.0228
22033W        W38167   5.965   0.823   4.796 -0.0016 -0.0639 -0.1961
22034W        W38168  12.354  10.440  14.606  0.3680 -0.2021  0.2029
22035W        W38169   3.469   5.580  15.421  0.1223 -0.1397  0.2528
22036W        W38170   8.132  12.373  15.981 -0.1995  0.1051 -0.2428
22037W        W38171   5.300  15.529  13.049 -0.1327  0.1301 -0.0223
22038W        W38172  16.264   0.216   0.422 -0.1784 -0.2488 -0.0733
22039W        W38173  16.111   2.816   5.347  0.1161  0.0153  0.0629
22040W        W38174  14.154   5.366   0.672  0.0635  0.0365  0.0448
22041W        W38175   5.072  13.989  13.517 -0.1802  0.0267 -0.0399
22042W        W38176   6.522   6.259   4.045 -0.0878 -0.1402  0.1066
22043W        W38177  14.626   4.968  11.016  0.0050  0.2040  0.2423
22044W        W38178   7.767  17.702  15.418 -0.1078  0.0798  0.0571
22045W        W38179  10.572   8.724  13.120 -0.2369  0.2846 -0.2104
22046W        W38180   9.454  10.824   2.397  0.1426 -0.1289 -0.0110
22047W        W38181  12.598   1.737   2.260 -0.2184  0.3424  0.2782
22048W        W38182  13.927   0.992  11.861 -0.2262 -0.2235  0.0741
22049W        W38183   0.979   3.989  11.146  0.1251 -0.0002  0.2089
22050W        W38184  10.522   5.233   4.154  0.3740  0.1348 -0.0883
22051W        W38185  17.031   2.586  11.548 -0.3390 -0.1076 -0.1048
22052W        W38186   3.966   5.346  15.370  0.1123 -0.2256  0.0672
22053W        W38187   8.660   2.241   5.156  0.0800 -0.2404  0.2683
22054W        W38188  13.780  10.983   4.766  0.0999 -0.1972  0.2622
22055W        W38189   7.268  11.631  14.442  0.1728 -0.0026  0.1142
22056W        W38190  11.343   0.912   4.910 -0.0041  0.0274 -0.1681
22057W        W38191   5.565   0.927   0.361 -0.1778 -0.2076  0.1125
22058W        W38192   9.720   8.573  11.942 -0.0790  0.0046 -0.1331
22059W        W38193  10.109   7.353  11.858 -0.2179 -0.1961  0.0187
22060W        W38194  14.920  14.803  12.978 -0.1102  0.1329 -0.0875
22061W        W38195  17.186   3.757  15.084 -0.2302  0.0785 -0.1798
22062W        W38196   6.989  17.327  15.082  0.1169 -0.0619 -0.1752
22063W        W38197  15.827  15.843  12.469  0.0591  0.1716 -0.0091
22064W        W38198  17.313  14.206   0.818 -0.0246  0.0591 -0.0103
22065W        W38199  11.481  16.647  15.965  0.3257  0.3305 -0.1750
22066W        W38200   5.118  10.329   2.880 -0.0430  0.1230 -0.0051
22067W        W38201   4.002  13.858   4.934 -0.0334 -0.0848  0.1073
22068W        W38202  10.474   9.564  15.663  0.2354  0.1369  0.0905
22069W        W38203  13.298   9.803   5.358 -0.2010  0.2598  0.0503
22070W        W38204  14.817   3.342  15.070 -0.3181  0.3655 -0.1017
22071W        W38205   3.904   3.723   3.506 -0.0734  0.1804  0.3826
22072W        W38206   7.294   4.941   1.993 -0.0896 -0.0601  0.1145
22073W        W38207   1.297  16.137   4.617 -0.0955 -0.0784  0.0320
22074W        W38208  15.167   1.303   5.491  0.1766 -0.1913 -0.0376
22075W        W38209   9.659   3.352   1.104 -0.0572  0.2049  0.2655
22076W        W38210   5.869   3.360  11.445 -0.1194 -0.1852 -0.1343
22077W        W38211  10.894   2.364  15.795  0.1125 -0.1030  0.1918
22078W        W38212  15.205  17.826  10.436  0.3277  0.2252  0.0227
22079W        W38213   9.847   2.601   2.874  0.0061 -0.1691  0.4002
22080W        W38214  14.409   8.631  16.008  0.1160 -0.2544  0.0170
22081W        W38215  13.993   3.332  15.989  0.1478 -0.1402  0.1494
22082W        W38216   2.023  17.853   2.544 -0.0348  0.1745  0.0612
22083W        W38217  14.941   9.591  14.504  0.1430 -0.1145 -0.0745
22084W        W38218   6.044  15.013  11.383 -0.1583  0.0207  0.1673
22085W        W38219   3.996   8.064  14.750  0.2307 -0.1614  0.2741
22086W        W38220   7.460  10.013  12.345 -0.0420 -0.0852  0.1165
22087W        W38221  14.409   9.541  14.004  0.0612 -0.1463  0.0702
22088W        W38222   1.833   8.669  11.005 -0.1913 -0.0727  0.0344
22089W        W38223  14.286  10.104   1.220 -0.1776  0.3605 -0.0764
22090W        W38224   2.815  15.939   0.331 -0.0270  0.0905  0.0493
22091W        W38225   4.821   1.529  11.929 -0.1065  0.5640  0.0433
22092W        W38226   1.237   1.814   0.499  0.1150  0.0792 -0.2050
22093W        W38227   9.442   2.063  14.921 -0.0657 -0.0877  0.0443
22094W        W38228   7.988  12.953  14.157  0.2797  0.0416 -0.1373
22095W        W38229  17.009   0.410   5.890  0.3020 -0.1226 -0.1564
22096W        W38230   8.816  13.739   1.658  0.0914 -0.0047 -0.1447
22097W        W38231   4.199  15.347   3.690  0.0704  0.1538 -0.0845
22098W        W38232   4.661  16.886  13.090 -0.1088 -0.2265 -0.1668
22099W        W38233   0.577   5.166  15.672 -0.2345 -0.0401  0.1739
22100W        W38234  11.139   2.563   3.072 -0.0034  0.0546  0.0205
22101W        W38235  17.921  12.653   6.058  0.0051  0.2651 -0.3051
22102W        W38236  15.246   6.839   4.049 -0.0424 -0.1534 -0.1561
22103W        W38237   9.734  12.492  12.294 -0.1267  0.3049  0.0447
22104W        W38238  15.882  14.004  12.928  0.4233  0.0103 -0.2833
22105W        W38239  12.401  10.659  12.245  0.0617 -0.3057  0.0408
22106W        W38240  12.463  17.510   5.046 -0.0530 -0.1069 -0.0701
22107W        W38241  14.530  13.123   2.454 -0.2606 -0.0268  0.1722
22108W        W38242   1.750  17.733  14.097 -0.0472  0.2334 -0.0569
22109W        W38243  11.009  14.574  13.613  0.2796 -0.2610 -0.1400
22110W        W38244   5.565   2.481   5.242 -0.1463  0.0933 -0.1709
22111W        W38245  11.873   7.096   3.514 -0.0213  0.1186 -0.1451
22112W        W38246  11.374  10.570   1.927  0.0595  0.2357  0.0481
22113W        W38247  18.080   6.025  15.577 -0.0954 -0.0986  0.1677
22114W        W38248   9.564   5.379  15.984  0.2165  0.0535 -0.0688
22115W        W38249   0.672  12.474   3.308 -0.1559 -0.2323 -0.0526
22116W        W38250  11.985   0.461   2.150  0.0684 -0.1776  0.1568
22117W        W38251   6.560  13.961   0.403 -0.0937 -0.0625  0.0413
22118W        W38252  13.455  10.021  13.209  0.1792 -0.2038  0.1074
22119W        W38253  14.339  15.054   2.157 -0.2468 -0.1305 -0.2746
22120W        W38254   9.195   3.946   0.371  0.1325 -0.0173  0.3804
22121W        W38255   2.539   1.497  15.165 -0.1128  0.2582  0.3636
22122W        W38256  12.234   2.313  10.032 -0.0883 -0.0550 -0.0390
22123W        W38257   2.773   1.805   4.765 -0.3119  0.0671  0.5725
22124W        W38258   6.654   8.137   1.496  0.1882  0.2182  0.0985
22125W        W38259   6.954   4.362  14.326  0.3421 -0.1532 -0.0914
22126W        W38260   7.078  14.508  14.545 -0.1006  0.0237  0.1834
22127W        W38261   4.355   1.248  14.195  0.2813  0.2156  0.0056
22128W        W38262  10.982  11.088  13.805  0.0315 -0.0029  0.2508
22129W        W38263  11.381  14.212  15.554  0.1140  0.3238 -0.2445
22130W        W38264  14.255  15.888   4.356 -0.0725  0.1933 -0.0762
22131W        W38265   1.649   4.917  15.220  0.2229  0.1640 -0.1383
22132W        W38266  16.388   0.382  12.153  0.2351 -0.3301 -0.1599
22133W        W38267   5.576  14.812  15.944  0.0121 -0.0549 -0.2216
22134W        W38268   9.377  14.572  15.611 -0.1828  0.1470 -0.3146
22135W        W38269   4.893  14.359  16.338 -0.2719 -0.1302 -0.0042
22136W        W38270   5.541  15.481   1.242  0.0311 -0.0153 -0.1629
22137W        W38271   5.917  16.576  15.420 -0.0756 -0.0041  0.1483
22138W        W38272   4.083   4.305   5.031  0.0365 -0.1770 -0.0158
22139W        W38273   6.952  15.015  16.262 -0.0907  0.0003 -0.0877
22140W        W38274   5.488   3.698   4.659 -0.2059  0.1396 -0.3346
22141W        W38275  16.991  17.635  11.056  0.2123  0.4170 -0.0560
22142W        W38276  11.345   4.854   1.917  0.2569  0.4613  0.0572
22143W        W38277  15.181  14.835   1.900 -0.0346  0.0209 -0.2651
22144W        W38278  13.357  12.259  11.004  0.2530 -0.0650 -0.0586
22145W        W38279  17.932  13.987   2.265  0.0364  0.0883 -0.4262
22146W        W38280   4.852   9.326   4.124  0.0367 -0.1332  0.1319
22147W        W38281   3.071  11.784  11.942 -0.1310  0.2253  0.0755
22148W        W38282  11.641   2.716   0.402 -0.0312  0.2121  0.0159
22149W        W38283   9.263  16.678   2.844 -0.0658 -0.1384  0.2563
22150W        W38284  12.925   6.028  14.907  0.2106 -0.1749 -0.0508
22151W        W38285   4.079  15.316   4.292  0.1104  0.0752  0.1005
22152W        W38286  17.237   5.486  11.639 -0.1104 -0.0871 -0.1731
22153W        W38287  18.066  16.175  11.694  0.0398 -0.0024 -0.1089
22154W        W38288  16.746   5.597   3.634  0.0009  0.0664  0.5959
22155W        W38289   2.336   8.607   1.703  0.3105  0.1041 -0.0494
22156W        W38290  17.861   6.199  11.206  0.0802  0.1234 -0.1041
22157W        W38291   3.270  10.134  15.430 -0.1843 -0.1963 -0.0252
22158W        W38292  16.457   1.079   2.743 -0.1405 -0.0970 -0.1201
22159W        W38293  17.468   0.550   1.362  0.1796  0.4126  0.0075
22160W        W38294  12.065  10.381   2.608  0.2616  0.0178  0.1743
22161W        W38295  10.126   4.529   2.082  0.1424 -0.4266 -0.0725
22162W        W38296   2.682  10.852   3.852  0.0637  0.0610 -0.1824
22163W        W38297  16.515   2.431   5.265 -0.0122 -0.0898  0.1456
22164W        W38298  15.791   1.783   1.851 -0.0305 -0.0812  0.2861
22165W        W38299  12.952  16.467  15.318  0.2247  0.1656 -0.0933
22166W        W38300  14.686  15.384   1.915  0.0114 -0.2969 -0.1771
22167W        W38301  14.094   0.686  14.257  0.2375  0.1409 -0.1318
22168W        W38302   8.964   1.995  13.393 -0.0801 -0.2781  0.1462
22169W        W38303   5.801   3.576   0.805  0.0434  0.1511  0.1985
22170W        W38304   2.460  15.328  15.456 -0.0545  0.1305  0.1359
22171W        W38305  16.795  11.448   3.361 -0.0321 -0.0249  0.0799
22172W        W38306   4.568  12.931   0.376 -0.1357  0.0048 -0.1756
22173W        W38307  12.163   1.814  11.418 -0.0308  0.2341  0.0074
22174W        W38308   8.675  14.212  10.259 -0.2093  0.1480  0.0181
22175W        W38309   4.324   8.807  12.505 -0.3706 -0.0577  0.1030
22176W        W38310   0.392   2.600  11.741 -0.1598 -0.3281 -0.0105
22177W        W38311   6.527  15.379   0.805 -0.1799 -0.0100  0.2085
22178W        W38312   6.187  13.977  10.927 -0.2634 -0.1094  0.0755
22179W        W38313  12.251  13.924   0.243  0.1422 -0.0960 -0.1126
22180W        W38314  15.089   8.125  15.545  0.3401  0.1114  0.1344
22181W        W38315  14.853  14.311  13.079 -0.1023  0.0418 -0.0343
22182W        W38316   4.320   5.516   0.378 -0.1598 -0.0108 -0.1283
22183W        W38317   3.573  10.986   5.777  0.2483 -0.0343 -0.2365
22184W        W38318   2.041  16.337   5.349 -0.3560  0.1502 -0.3240
22185W        W38319  15.414  10.155  15.551  0.0239 -0.0629  0.0408
22186W        W38320   8.141   8.124  13.674  0.2097 -0.0586  0.1085
22187W        W38321   3.669  12.466  15.058 -0.0183  0.1819  0.0643
22188W        W38322   3.289  15.465   5.770 -0.1952 -0.0226  0.0989
22189W        W38323   5.917   9.823  15.611 -0.0967  0.2556  0.0251
22190W        W38324  16.733   5.269   0.542 -0.0455 -0.0713  0.1688
22191W        W38325  10.963  12.976  11.614 -0.0047 -0.0634 -0.1572
22192W        W38326  14.336  14.781  16.138 -0.2563 -0.0155 -0.0896
22193W        W38327   3.790   3.025  12.472 -0.2332 -0.0773  0.2148
22194W        W38328  11.712   6.458  14.460  0.1602  0.2308  0.0970
22195W        W38329   4.584  15.923   3.232  0.1168 -0.1091  0.0164
22196W        W38330  16.849   3.930  13.331  0.1516  0.0646 -0.3253
22197W        W38331   0.358  17.687  12.543  0.3679 -0.0984  0.1940
22198W        W38332   2.276   2.660  12.964  0.3100  0.0334  0.0964
22199W        W38333  16.621   9.723   1.691 -0.1022  0.0572  0.3078
22200W        W38334   6.908  12.211  11.568 -0.0486  0.1399  0.0497
22201W        W38335   0.303  10.641   5.732 -0.0363  0.0004  0.2341
22202W        W38336  11.581   8.871  15.360  0.0315  0.2986 -0.1740
22203W        W38337   4.815   4.054   1.109  0.0096 -0.0281 -0.3094
22204W        W38338  13.352  10.870   0.099 -0.3518  0.0149 -0.2835
22205W        W38339   0.221   5.828   4.351 -0.2472  0.1204  0.3235
22206W        W38340   8.935  10.838  12.799 -0.1853  0.1981  0.5085
22207W        W38341  13.443   9.205  11.505 -0.2158  0.0636  0.1244
22208W        W38342  12.391  17.365  12.780  0.0875 -0.0124 -0.2569
22209W        W38343  13.356   0.479  12.432 -0.1643  0.0635 -0.3350
22210W        W38344   6.225  11.159  12.689  0.1758  0.1113 -0.0094
22211W        W38345  12.948   4.007  15.693  0.1473 -0.3455 -0.0075
22212W        W38346  12.413  16.365  15.335 -0.1434 -0.0538 -0.0200
22213W        W38347   5.720   5.566   4.948  0.1319 -0.2667  0.2520
22214W        W38348  14.208  16.461   1.152 -0.1201  0.1257  0.0522
22215W        W38349   3.910   8.728   5.888 -0.2359 -0.0668 -0.1165
22216W        W38350  13.757   8.387   0.049  0.2459 -0.1769 -0.0593
22217W        W38351  16.283  17.985   2.122  0.1071 -0.0278 -0.0592
22218W        W38352   2.387   7.067   6.389  0.0976  0.0006 -0.1586
22219W        W38353  15.907   2.883  14.706  0.0738  0.1934 -0.0350
22220W        W38354   3.611  11.518  13.084  0.0245  0.0006 -0.0171
22221W        W38355   4.681  14.518   0.697 -0.2941 -0.1499 -0.2604
22222W        W38356   8.153  10.665  13.459  0.1270  0.0844  0.1843
22223W        W38357   3.510   4.394  14.289  0.0915  0.0886 -0.2191
22224W        W38358   9.036  17.047   0.581  0.1336  0.1483 -0.2124
22225W        W38359   6.683  11.512  16.156  0.2592 -0.0484 -0.0241
22226W        W38360   6.788   1.545  13.626 -0.3493  0.1829  0.1006
22227W        W38361   4.434   8.358  16.190  0.0950 -0.2722  0.0995
22228W        W38362   5.067   4.784   4.008  0.2985 -0.0318  0.1188
22229W        W38363  10.982   2.927  12.253  0.1929  0.1637  0.0447
22230W        W38364   9.471  10.250   2.344 -0.1227  0.0759 -0.0187
22231W        W38365   5.153  16.130  15.078  0.1783 -0.2850  0.3093
22232W        W38366   3.332  10.101  16.372  0.0255  0.2208 -0.0189
22233W        W38367  11.115  13.991   0.615 -0.2348 -0.0636  0.1839
22234W        W38368   5.231   6.752   0.056 -0.0588  0.1134 -0.0095
22235W        W38369   4.769   2.678   4.873  0.2368 -0.1034 -0.0612
22236W        W38370   7.838   8.524  13.673  0.2896  0.2013 -0.0796
22237W        W38371  14.740  17.129  12.693  0.2830 -0.1254  0.0830
22238W        W38372   0.365   8.642  10.789  0.0203  0.1715  0.1298
22239W        W38373   4.448  11.552  15.300  0.0985 -0.0143  0.2548
22240W        W38374   6.507  13.266   3.885  0.0788 -0.0238  0.0302
22241W        W38375  17.016   4.794   5.704 -0.1382 -0.2604 -0.1330
22242W        W38376  13.550  17.705  13.993 -0.0009 -0.2411 -0.0509
22243W        W38377  17.527  15.078   1.805 -0.0495  0.0209 -0.0045
22244W        W38378   0.084   5.611   0.053 -0.2515 -0.0365 -0.0872
22245W        W38379   3.847   5.271   0.287  0.0809  0.0180 -0.4132
22246W        W38380   0.659  14.844   0.964  0.0356 -0.1270 -0.1346
22247W        W38381   4.956  14.860  14.257  0.1401 -0.1860 -0.0924
22248W        W38382   9.066   8.033  13.230  0.1584  0.0501 -0.0478
22249W        W38383  14.174  15.685  11.601  0.1416  0.1803  0.3812
22250W        W38384   3.207  10.594  16.179 -0.0245 -0.1576 -0.0895
22251W        W38385  10.713  12.405  10.297  0.2334 -0.1279 -0.1012
22252W        W38386   6.166  14.083   5.688  0.2660  0.0798 -0.0566
22253W        W38387   3.607   3.203  13.596  0.1475  0.1585 -0.0249
22254W        W38388   8.723   8.791   2.088  0.1227 -0.2721 -0.1737
22255W        W38389  11.510   9.194  10.578 -0.1981  0.2583  0.0528
22256W        W38390   0.273  11.876  15.233 -0.5985  0.1206 -0.1298
22257W        W38391  12.477  14.354   1.700 -0.1085 -0.1237  0.0859
22258W        W38392   5.084   6.436  12.887  0.2196  0.2242  0.0353
22259W        W38393   9.831  10.754   2.057  0.1441 -0.1539 -0.1611
22260W        W38394   8.797  16.367  14.167  0.0374  0.0902  0.0581
22261W        W38395  17.516   9.791   2.531  0.0938 -0.1252 -0.1069
22262W        W38396   6.062   1.119   4.018  0.0032  0.2931 -0.2150
22263W        W38397  12.309   0.061  15.069  0.0733 -0.0863  0.1016
22264W        W38398   0.350  16.439  13.202 -0.1101  0.1137 -0.1125
22265W        W38399  17.852   5.126   3.974 -0.0487  0.1283 -0.0822
22266W        W38400   7.734   1.054   0.939 -0.3045 -0.3647 -0.1808
22267W        W38401   3.951   6.274  13.713 -0.1010 -0.2294  0.0846
22268W        W38402  10.278   0.165  13.897  0.3160 -0.0178 -0.0364
22269W        W38403   7.199  16.239  13.638 -0.0656 -0.0383  0.2070
22270W        W38404   6.300  16.746   5.938  0.1525 -0.0887 -0.4512
22271W        W38405   0.709  17.177   2.036 -0.3075  0.1420  0.0097
22272W        W38406   5.133  11.296   5.037  0.2431  0.0712  0.3034
22273W        W38407  11.912   3.432  11.319 -0.0333  0.3703 -0.1033
22274W        W38408   2.947  16.173   5.065 -0.1089  0.0184 -0.1022
22275W        W38409  15.940  10.198   4.115  0.5325 -0.2333  0.1032
22276W        W38410  11.516   4.027   2.859 -0.1498 -0.1907 -0.1907
22277W        W38411   8.791   9.119  16.286 -0.2407  0.0851  0.0652
22278W        W38412  11.783   1.850   2.387 -0.1359  0.0582 -0.0528
22279W        W38413   9.119   6.122  16.408  0.1406  0.0135 -0.3039
22280W        W38414  17.564   0.146   5.111 -0.0001  0.1603  0.0971
22281W        W38415   4.821   4.717  13.602  0.1384  0.0327  0.0105
22282W        W38416   9.513   2.915  12.372 -0.1674 -0.0705  0.2550
22283W        W38417  13.250   7.474  12.946 -0.0563 -0.0183 -0.5937
22284W        W38418   5.159   1.585  14.271 -0.2147 -0.0944 -0.1382
22285W        W38419   9.447   7.563   0.917 -0.3184 -0.2034  0.1252
22286W        W38420  12.977  14.427  14.095 -0.4078  0.1066 -0.1364
22287W        W38421  11.872   1.263  11.435  0.1470  0.1860 -0.0389
22288W        W38422  14.501   0.860   3.958  0.0392  0.3388  0.0315
22289W        W38423   8.705   3.668   3.500 -0.0734  0.2853  0.2039
22290W        W38424   2.886   0.431  11.737  0.1749  0.2871 -0.3393
22291W        W38425  11.413  18.021  14.819 -0.0561 -0.1122  0.1695
22292W        W38426   3.796   5.334   2.546 -0.1473  0.2107 -0.0798
22293W        W38427   9.503  16.687  13.579  0.3069  0.1010 -0.0745
22294W        W38428   2.775   4.339  13.179  0.1642 -0.1292 -0.2113
22295W        W38429   7.558  13.971   1.911 -0.1547 -0.1532 -0.2220
22296W        W38430  17.828   5.494  13.361 -0.1276  0.0772  0.0123
22297W        W38431  18.092   2.172  12.073 -0.0206 -0.5970 -0.1973
22298W        W38432   9.107  16.244  14.601  0.0938 -0.0057  0.0696
22299W        W38433   5.387   1.163  14.159  0.1147  0.2789 -0.0693
22300W        W38434  13.929   9.096   5.865 -0.2262  0.2282 -0.0653
22301W        W38435  16.087   1.597  14.887 -0.2044 -0.2267  0.1694
22302W        W38436   5.621  11.533  16.072 -0.1342  0.2490  0.0486
22303W        W38437   0.495   2.979   2.890 -0.0670  0.1460 -0.1249
22304W        W38438   5.485  12.983   0.261  0.1903 -0.0593  0.0632
22305W        W38439  16.104   7.735  15.654  0.1782 -0.0688  0.2387
22306W        W38440  13.372  17.913  13.360  0.2007 -0.0495 -0.2694
22307W        W38441   6.363   7.152   6.103  0.0656  0.0803  0.0526
22308W        W38442   9.299   7.919   3.232 -0.3181 -0.1554  0.1450
22309W        W38443  16.967   5.781  11.941 -0.0972  0.2453 -0.1111
22310W        W38444   2.108  13.801  16.250 -0.2872  0.0610 -0.1435
22311W        W38445   6.997   9.798  12.377 -0.4033  0.0809 -0.1275
22312W        W38446   3.315   1.605   1.345  0.0240 -0.0296  0.0981
22313W        W38447   4.850   4.584   1.134 -0.0567 -0.0637 -0.0616
22314W        W38448  10.167  14.233   4.337  0.2131 -0.3948  0.0805
22315W        W38449  14.732   3.903  16.060 -0.1793  0.2032  0.2821
22316W        W38450   5.698  12.796   4.245 -0.3327 -0.0424 -0.0655
22317W        W38451  12.627   3.450   9.791 -0.2151  0.0705 -0.4220
22318W        W38452   3.922   0.284   5.028  0.0369  0.0104  0.1444
22319W        W38453   5.422  17.608   3.045 -0.0349 -0.0487 -0.0202
22320W        W38454   9.362   1.105   0.708  0.0756 -0.0248  0.1129
22321W        W38455  11.483   6.860  13.063  0.0510 -0.0321 -0.0650
22322W        W38456  17.589   8.287  16.254  0.0393 -0.1543 -0.2649
22323W        W38457   5.572  16.690   5.244 -0.2133 -0.0283 -0.0722
22324W        W38458   0.632   2.789  13.836 -0.0003 -0.1444  0.0874
22325W        W38459  14.024  11.675  15.880 -0.1987 -0.0252  0.0724
22326W        W38460  15.350   3.153   2.182 -0.1743  0.1948  0.1490
22327W        W38461   0.875  17.535  14.264 -0.0983 -0.1815 -0.0385
22328W        W38462  16.530  13.007  15.571 -0.2140 -0.2904 -0.2193
22329W        W38463  16.946   9.430  16.027  0.1907  0.1361 -0.4102
22330W        W38464   4.100   9.598  13.881  0.0613  0.2097 -0.2831
22331W        W38465  13.143   3.455   1.408 -0.1720  0.3533  0.1126
22332W        W38466  10.198   2.547  13.474 -0.0280  0.0417 -0.1673
22333W        W38467  10.280   3.720   3.598  0.3622  0.0390 -0.1693
22334W        W38468   4.898  11.076  14.077  0.0156  0.2942  0.1880
22335W        W38469  12.826  13.700   1.435 -0.0556 -0.0571 -0.3529
22336W        W38470  13.278   9.270  15.116  0.2482 -0.0139  0.0387
22337W        W38471  13.634  12.087  12.123  0.2455 -0.1912 -0.2086
22338W        W38472  13.416   0.194   3.988 -0.1236 -0.1771 -0.2140
22339W        W38473   9.237  16.922  15.271 -0.2793  0.1939  0.1097
22340W        W38474   2.413  17.094   4.654 -0.0688 -0.1208 -0.0348
22341W        W38475  12.902   3.408  15.423 -0.1542 -0.0808 -0.1339
22342W        W38476  11.909   8.797  12.404 -0.2389  0.0723 -0.3770
22343W        W38477   5.815   0.136  12.296 -0.1742 -0.1248 -0.0836
22344W        W38478  11.656   0.345  12.853 -0.0523  0.1633  0.0133
22345W        W38479   8.800   4.383  11.430  0.1411 -0.2296 -0.0724
22346W        W38480  11.445  15.616   2.734  0.3428  0.0091  0.0024
22347W        W38481  12.957   2.772   5.190  0.0452 -0.2112 -0.0957
22348W        W38482   0.660  12.149   1.589 -0.1862 -0.0616 -0.1100
22349W        W38483   9.119   9.128   0.936  0.2917  0.1083  0.1698
22350W        W38484  12.632   9.677   6.072 -0.1210  0.0843 -0.0195
22351W        W38485   5.121  16.273  16.373  0.1699 -0.1150 -0.0329
22352W        W38486  12.709   5.292   0.129  0.1928  0.0337 -0.1423
22353W        W38487  10.230  12.386   0.987  0.1279  0.1981 -0.2838
22354W        W38488  12.763   2.537  13.683 -0.0616 -0.0038 -0.0829
22355W        W38489  13.618  14.207   5.105  0.1342 -0.1916 -0.1979
22356W        W38490   2.805  17.195  14.514  0.4379  0.1009  0.3887
22357W        W38491  14.997   7.433  10.429 -0.3693  0.2674 -0.0163
22358W        W38492   7.100  15.272   3.638  0.2272 -0.0291 -0.0082
22359W        W38493  10.796   0.850  13.330  0.2206 -0.1820 -0.1689
22360W        W38494   6.726   0.944   1.467  0.2059  0.0339 -0.0192
22361W        W38495   3.634   2.162   3.948  0.1140 -0.2628 -0.1217
22362W        W38496   1.785   7.969  13.285  0.4534 -0.2745 -0.2262
22363W        W38497  10.464  16.785   0.848  0.1019  0.0656 -0.0046
22364W        W38498  14.536   4.681  16.287 -0.3000  0.0651 -0.1496
22365W        W38499  10.656   0.779   1.695 -0.0086  0.0041  0.1028
22366W        W38500  12.075  17.716   5.398  0.1150 -0.1845 -0.0541
22367W        W38501  16.886   3.688   1.504  0.2054  0.1147  0.0290
22368W        W38502   9.710  12.454   2.393 -0.0148  0.1588 -0.1584
22369W        W38503   6.724   0.278  15.852 -0.3361  0.0365 -0.0561
22370W        W38504  14.077   7.654  13.985  0.3277  0.0838 -0.3943
22371W        W38505   1.861   9.349  13.676 -0.2820  0.4277 -0.2118
22372W        W38506  17.886  18.011  11.560 -0.0781  0.1746  0.0050
22373W        W38507   2.564   8.183  12.999 -0.2849  0.3785  0.1058
22374W        W38508   7.882   6.090   1.463  0.0148 -0.2344 -0.0335
22375W        W38509   2.830   7.855  14.373  0.1508  0.2838  0.2535
22376W        W38510  15.425   9.299  12.863  0.1397  0.0959 -0.1562
22377W        W38511   9.907  12.849  13.689 -0.1108  0.1917 -0.2495
22378W        W38512  13.036  12.519  11.663  0.1928 -0.2993 -0.0213
22379W        W38513   3.013   0.184   5.431  0.3667  0.2100  0.2388
22380W        W38514   9.346  13.268   5.653 -0.0999 -0.0151 -0.1427
22381W        W38515   6.189  11.858   0.099  0.0183  0.0351 -0.1010
22382W        W38516   8.068   7.111   2.262 -0.0894 -0.1741  0.3623
22383W        W38517   7.744   8.617   0.816 -0.3136 -0.1460 -0.0007
22384W        W38518   9.992  13.655   3.494 -0.0743 -0.0391 -0.2293
22385W        W38519   1.152   6.086   1.962  0.0814 -0.3783  0.1249
22386W        W38520  11.606   5.807  15.942 -0.2009  0.1425 -0.1869
22387W        W38521  10.523   0.463  13.560 -0.0196  0.0933 -0.1630
22388W        W38522  13.937   8.502  13.603 -0.1995  0.1674  0.1904
22389W        W38523  17.784  17.964  15.744  0.1523 -0.1801  0.0150
22390W        W38524   2.879  17.049   0.427  0.1395  0.1578 -0.3063
22391W        W38525   1.888  17.835   0.862 -0.2125 -0.0136 -0.3228
22392W        W38526  14.132   8.268  12.761  0.2028  0.1001 -0.1101
22393W        W38527   5.665  13.371   2.137  0.1583 -0.1286 -0.2657
22394W        W38528  15.821   3.518  11.278 -0.0098  0.1477  0.0382
22395W        W38529   6.328   1.201  16.234  0.0286  0.1197 -0.0273
22396W        W38530   1.458   4.176   0.353 -0.0606 -0.0784 -0.2376
22397W        W38531  12.645  17.957  15.949 -0.1775 -0.1919  0.0069
22398W        W38532  16.472   5.581  13.027 -0.1669  0.1523  0.0788
22399W        W38533   0.940   6.730   0.962  0.0492  0.1724  0.3942
22400W        W38534   7.804   0.562   4.267  0.2828 -0.1052 -0.1373
22401W        W38535  11.477  16.664   1.187 -0.3027 -0.2380  0.1522
22402W        W38536  15.818   2.709  12.574  0.3750  0.2185 -0.2636
22403W        W38537   4.080  12.799   0.567  0.1314 -0.0338  0.2344
22404W        W38538  17.501   0.220  14.933  0.0773  0.1258 -0.2364
22405W        W38539   9.554   0.957   4.553 -0.1238 -0.0886 -0.1487
22406W        W38540  17.265  17.682   0.221 -0.0295 -0.1150 -0.0745
22407W        W38541   4.849   5.444  11.952 -0.2725  0.0119  0.0428
22408W        W38542  17.127   9.507   2.440  0.2583 -0.0211 -0.1867
22409W        W38543   6.130   1.419   1.905  0.1496  0.1696 -0.0738
22410W        W38544   9.827  12.743  12.806  0.1513 -0.1785  0.1567
22411W        W38545   0.886   3.287  13.035  0.2012 -0.0621 -0.2558
22412W        W38546   9.035  12.167   5.445 -0.0918  0.3637 -0.0677
22413W        W38547   8.991  14.240  12.701  0.1655 -0.2488 -0.1035
22414W        W38548  11.087   4.545  10.158 -0.1128  0.3215 -0.1854
22415W        W38549  14.587  11.655  15.985 -0.1679 -0.2080  0.0340
22416W        W38550  14.159  16.873   0.523 -0.0810 -0.0749 -0.0613
22417W        W38551  16.130  15.435   5.145 -0.0329  0.0455  0.4639
22418W        W38552   5.394   9.278  15.003 -0.0488  0.7302  0.0806
22419W        W38553   2.710  15.292  11.688 -0.0104  0.1773  0.1307
22420W        W38554   5.183  11.156  16.189 -0.1313  0.3038  0.0195
22421W        W38555   2.672   7.247   5.533 -0.0521 -0.1023 -0.0479
22422W        W38556   0.299   7.053   5.720  0.2014 -0.0027  0.1955
22423W        W38557   7.660   5.863  12.501  0.0995 -0.0211 -0.0481
22424W        W38558   2.979  10.248   3.178 -0.0105  0.0575 -0.2432
22425W        W38559   9.905  15.761  14.549 -0.1319 -0.1632  0.0883
22426W        W38560  17.065  15.740  12.897 -0.0704 -0.1300  0.0313
22427W        W38561   3.642  13.287   2.062 -0.0400  0.2721  0.2705
22428W        W38562   6.052   9.296   0.548  0.1771 -0.2170  0.1245
22429W        W38563  10.088  12.738   4.608 -0.1109 -0.0380 -0.0519
22430W        W38564   9.373  12.964   0.119 -0.0075  0.0039  0.0753
22431W        W38565   3.556   5.369   0.740  0.1920  0.1835  0.0890
22432W        W38566   2.779   8.818   1.783  0.2414 -0.3963 -0.2159
22433W        W38567   1.424  11.685   3.631  0.1791  0.0590  0.0194
22434W        W38568   6.325  10.951   5.864  0.1376  0.0340  0.2555
22435W        W38569  15.648  14.212  15.204  0.2994  0.0868 -0.2654
22436W        W38570   7.930  14.884   4.012  0.1881 -0.1299 -0.1731
22437W        W38571  16.575  17.276   3.688 -0.1432  0.0151 -0.1849
22438W        W38572   6.269  14.229  12.453  0.2653  0.0541  0.1677
22439W        W38573   0.003   6.331  13.612 -0.1319 -0.1839 -0.0881
22440W        W38574   7.040   1.525   3.199  0.1186  0.0564 -0.0260
22441W        W38575   7.854  17.776   4.219  0.0151  0.5521  0.2858
22442W        W38576  12.398   4.310   4.346 -0.1229 -0.2391 -0.1349
22443W        W38577  11.719   0.488   2.991 -0.0219 -0.1481  0.1187
22444W        W38578   3.111   1.793  14.186  0.2083  0.1106 -0.0765
22445W        W38579   3.487   1.428   2.856 -0.0688  0.1989  0.2043
22446W        W38580   1.249  16.612   1.012  0.1348  0.2794 -0.2144
22447W        W38581   3.398  17.495   1.709 -0.1318  0.2774  0.2230
22448W        W38582   7.614  15.916  12.347  0.1049 -0.2466 -0.2564
22449W        W38583  15.104   4.229   0.295  0.0893 -0.2542  0.0466
22450W        W38584   4.697  11.707  11.157  0.0243 -0.3011 -0.2164
22451W        W38585   1.083   8.365   1.923  0.4870 -0.2851  0.5499
22452W        W38586   2.051   4.801  11.484 -0.1054 -0.0076 -0.0749
22453W        W38587  17.315   8.833  14.714 -0.2649  0.1833 -0.2666
22454W        W38588  16.294  16.283  13.281  0.1847  0.3309  0.2080
22455W        W38589   0.016  11.962  12.748  0.1187  0.2509 -0.2455
22456W        W38590   0.633   7.524   4.471 -0.2020 -0.0399  0.2271
22457W        W38591   4.824   2.259   3.582  0.2158  0.1991  0.3267
22458W        W38592  15.427  13.190  15.861  0.0021 -0.3734 -0.0758
22459W        W38593   5.176  15.140   1.389  0.2409 -0.2179 -0.1374
22460W        W38594   0.515  12.211  14.950  0.0684  0.0552  0.1359
22461W        W38595   6.107   7.692  15.635 -0.0174 -0.0480  0.1248
22462W        W38596  13.370  13.285  13.862 -0.1520 -0.0485  0.1010
22463W        W38597   6.312  14.992   1.187 -0.2832 -0.0819  0.1600
22464W        W38598  17.575   9.776  11.530 -0.0705 -0.0513 -0.1234
22465W        W38599  13.233  12.157   5.275  0.0007  0.1807  0.0022
22466W        W38600  12.034   1.791   4.997 -0.1017  0.0562 -0.0225
22467W        W38601  15.689   9.499   3.030  0.1345 -0.0786 -0.2211
22468W        W38602   7.585   2.413   5.738 -0.0936  0.1789  0.1185
22469W        W38603  15.986  10.846  13.844  0.3054  0.2772 -0.1544
22470W        W38604   6.217  16.206  12.625  0.1468  0.0635 -0.0873
22471W        W38605   1.167  12.445   3.404 -0.0992  0.3402  0.2354
22472W        W38606  14.281   3.928   1.682 -0.1973  0.0548  0.0073
22473W        W38607  14.844  17.524   4.617  0.1172 -0.0803 -0.1862
22474W        W38608  11.860  15.392   3.475 -0.1489  0.0696 -0.2184
22475W        W38609   8.417  10.949   0.523 -0.1191 -0.0370 -0.0176
22476W        W38610   7.431  16.190  11.560 -0.1760  0.0216  0.0095
22477W        W38611  14.955  16.956  14.887 -0.1680  0.1909  0.0621
22478W        W38612   5.617  11.381   5.406  0.0384 -0.1004 -0.1405
22479W        W38613   9.001  12.303   4.456  0.3204  0.2640  0.0339
22480W        W38614   4.263   0.271   5.472  0.0011 -0.1333  0.3828
22481W        W38615  12.002   0.698  16.096  0.0253 -0.0164  0.2016
22482W        W38616  15.125  13.846   5.626 -0.2005  0.0030 -0.2473
22483W        W38617  11.175  13.033  11.148 -0.1937 -0.0703 -0.0152
22484W        W38618  15.942   2.407   3.380 -0.2139 -0.1433 -0.0696
22485W        W38619   3.019   7.111  12.116 -0.0483 -0.0736 -0.0761
22486W        W38620   7.157  18.071  14.089 -0.2064 -0.3564 -0.0714
22487W        W38621  11.886  17.113   4.220  0.1070  0.0417 -0.1040
22488W        W38622   0.466   5.023  16.137  0.2100  0.3276 -0.3352
22489W        W38623  15.419   5.044   2.427  0.0805  0.2265 -0.1268
22490W        W38624   9.214   1.883   3.600  0.3344  0.1693 -0.0326
22491W        W38625   0.708   2.204   5.241  0.2950  0.1894  0.0131
22492W        W38626   0.432   4.406  14.624 -0.1046  0.0120 -0.0967
22493W        W38627   7.025   8.030   4.690 -0.0519 -0.1468 -0.2527
22494W        W38628   9.384   9.150  12.812  0.1463  0.0400 -0.0215
22495W        W38629   4.059  15.333  12.734 -0.1528 -0.1387 -0.1571
22496W        W38630   7.959   8.199  10.961 -0.2531  0.1637  0.1288
22497W        W38631  18.068   2.195  13.440  0.0368  0.3229 -0.1986
22498W        W38632   5.225   4.616  12.938  0.0355 -0.1391 -0.0330
22499W        W38633   8.452   3.525   0.472  0.1925  0.3030 -0.0488
22500W        W38634  16.110   2.924   1.411 -0.1873 -0.1444  0.1182
22501W        W38635  14.426   6.269   5.226  0.1823  0.0732 -0.0329
22502W        W38636   9.712  10.004  12.066  0.1136  0.3710 -0.1667
22503W        W38637  14.392  10.210  12.189  0.1635  0.0726  0.0134
22504W        W38638  16.215   3.274  13.774  0.1015  0.0400 -0.0529
22505W        W38639  17.692   9.146  14.932 -0.1240 -0.0242  0.3084
22506W        W38640  16.480   9.083  16.183 -0.1980  0.1435 -0.1700
22507W        W38641   4.920   0.504   2.699  0.1228 -0.1398  0.2437
22508W        W38642  13.177  13.369   2.168 -0.1898 -0.5058  0.1114
22509W        W38643   8.782  10.845  11.864  0.1557  0.3218 -0.2398
22510W        W38644   8.917   9.547  11.152 -0.1357 -0.0143  0.2418
22511W        W38645   2.251   6.874   1.364  0.1263 -0.3587 -0.4073
22512W        W38646  12.943   9.113   1.371  0.2260  0.1658 -0.3471
22513W        W38647  11.168   0.574  12.891 -0.0821 -0.1088  0.2525
22514W        W38648  12.381   9.465   1.563 -0.3428 -0.1141 -0.0763
22515W        W38649   1.479  12.013  15.155  0.1614  0.1608  0.2994
22516W        W38650  10.127  12.086   4.137 -0.0691 -0.3128 -0.2060
22517W        W38651  17.912  12.689  15.851 -0.1998 -0.1359 -0.2404
22518W        W38652   2.806   5.995  11.923  0.1020 -0.1181  0.3084
22519W        W38653   2.131  12.508  13.137 -0.0562  0.0040 -0.1283
22520W        W38654  15.752   6.664   0.791 -0.0274  0.1371 -0.0216
22521W        W38655  13.069   2.874   0.013  0.1264 -0.0035  0.0961
22522W        W38656   7.326  15.553   4.712 -0.0913  0.1573  0.0139
22523W        W38657   0.909  15.611   1.157 -0.1853  0.0178 -0.0997
22524W        W38658  13.692   1.044  13.893 -0.5950 -0.0153  0.0328
22525W        W38659   6.876   3.830  16.335 -0.0886  0.0236 -0.0495
22526W        W38660  17.850  14.517  14.795 -0.1288 -0.2366  0.1179
22527W        W38661  11.918  12.582   0.475  0.2129  0.0161  0.0205
22528W        W38662  14.334   8.294  14.698  0.0360  0.1012 -0.0108
22529W        W38663   7.070  15.766   1.401 -0.2945  0.1273  0.1926
22530W        W38664   5.149  17.888   1.251  0.2070  0.4248  0.0529
22531W        W38665  14.912  10.745  16.386  0.2365 -0.0471 -0.0928
22532W        W38666   0.707   9.173   3.145 -0.0170 -0.2120  0.1716
22533W        W38667  11.540  11.094  13.943 -0.0043 -0.0164  0.4066
22534W        W38668  17.776   7.366  16.292 -0.3356 -0.0476 -0.1001
22535W        W38669   6.147   0.737  16.224 -0.3119 -0.1021 -0.0405
22536W        W38670   6.002  17.632   2.771  0.1217  0.1242 -0.0012
22537W        W38671   5.157   8.950   4.034 -0.1596 -0.0903 -0.0480
22538W        W38672   6.088  11.553  16.136 -0.1899  0.2724 -0.2154
22539W        W38673   6.485   4.794   1.323 -0.1329  0.2070  0.6888
22540W        W38674  14.834  15.738   3.572  0.1608  0.0138  0.0135
22541W        W38675   1.886  11.034   3.847  0.0837 -0.2746  0.0163
22542W        W38676   1.206  17.731   0.129 -0.2461 -0.1368 -0.3331
22543W        W38677  13.795   1.668  13.728  0.0339 -0.0367  0.0627
22544W        W38678   1.870   7.389   4.892 -0.2283 -0.0364 -0.1615
22545W        W38679   3.128  13.125   3.123 -0.3237  0.1291  0.2777
22546W        W38680   3.683  11.847  14.053  0.1983 -0.0696  0.1197
22547W        W38681   9.598   6.641   5.772 -0.0904  0.1368 -0.0393
22548W        W38682   4.285   8.393   2.298  0.1958  0.0608 -0.0597
22549W        W38683  15.142   1.561   0.091  0.0894  0.0381 -0.2715
22550W        W38684   9.976  13.760   2.200 -0.1309 -0.0044 -0.1540
22551W        W38685  12.776   0.228  15.005 -0.1318  0.0928 -0.1217
22552W        W38686  11.923   4.257   2.560  0.3376  0.1639  0.2885
22553W        W38687  14.917   1.724  16.069 -0.0589 -0.0008  0.0793
22554W        W38688   2.913  10.250   0.884 -0.3558 -0.1766 -0.1036
22555W        W38689   3.278   1.143   0.698  0.1729 -0.0920 -0.0853
22556W        W38690  10.136   4.190  11.834  0.2497 -0.2605  0.1024
22557W        W38691  17.347  10.424  13.608  0.0546  0.0962 -0.2093
22558W        W38692  10.338  13.488   0.907  0.2364 -0.1548 -0.2338
22559W        W38693   9.350  13.611   1.437  0.1180 -0.1265 -0.1330
22560W        W38694  16.885   7.141   4.808 -0.2627  0.1179  0.0381
22561W        W38695   2.952   9.958   0.302 -0.2634  0.0062  0.0336
22562W        W38696  14.180   4.285   5.117 -0.0758  0.1030  0.2132
22563W        W38697  16.590   9.981  13.382 -0.0094 -0.3107 -0.1469
22564W        W38698  15.027   3.296   5.030  0.3125  0.2725 -0.1469
22565W        W38699  17.429   7.888  14.193  0.0516  0.1775  0.1882
22566W        W38700   9.425   8.992   5.120  0.2833 -0.0396 -0.1918
22567W        W38701   9.161  13.250   2.979 -0.1199 -0.1944  0.0140
22568W        W38702  17.599   4.057  14.515  0.0850 -0.0549 -0.3708
22569W        W38703   8.820   7.987   3.434 -0.1186  0.0351 -0.1599
22570W        W38704   1.775  13.385  15.516 -0.0245  0.1260 -0.0978
22571W        W38705   5.946  16.341  15.971 -0.2367  0.1057 -0.0145
22572W        W38706   2.589   9.268   4.908  0.1544  0.3427 -0.2177
22573W        W38707  16.507  11.195  15.019  0.2095 -0.2305 -0.1247
22574W        W38708  14.185   4.422  12.446 -0.0127 -0.1122 -0.2470
22575W        W38709   2.839   0.759   0.359 -0.0802 -0.0828 -0.1523
22576W        W38710   4.531   3.591   4.655  0.2212  0.1706 -0.3594
22577W        W38711  14.299  17.906  15.630  0.1045 -0.1999  0.0158
22578W        W38712   2.715   0.550  13.852 -0.0429 -0.0668  0.0213
22579W        W38713   8.079   1.767   2.470 -0.0765  0.1013 -0.2734
22580W        W38714   0.867   5.848   2.918 -0.1889 -0.0576 -0.1639
22581W        W38715  11.466   5.210   0.622  0.1967 -0.0729  0.1849
22582W        W38716  16.315   7.511  15.291  0.2860 -0.2713 -0.1505
22583W        W38717   0.803  15.653   3.920 -0.1537  0.2698  0.1900
22584W        W38718   0.602  13.398  13.240  0.0816 -0.0508  0.0334
22585W        W38719   0.642  15.254   0.176  0.1648  0.2395  0.1909
22586W        W38720   9.406   1.912   0.866 -0.0194  0.2519 -0.0719
22587W        W38721   2.866  17.637  11.739  0.4870  0.3439 -0.2872
22588W        W38722  16.323  11.656  11.783  0.1969  0.0770  0.0365
22589W        W38723  10.989   1.745   0.044  0.3078 -0.4308 -0.0187
22590W        W38724  17.935   7.548  14.620  0.1326 -0.2059  0.0882
22591W        W38725  12.112  13.908   4.038  0.1732  0.0760 -0.4034
22592W        W38726  10.249   5.287   3.051  0.0276 -0.0029 -0.4503
22593W        W38727   0.428   4.896  13.034  0.2772 -0.1329 -0.2119
22594W        W38728  16.489   1.317   1.379  0.1300 -0.1975 -0.2027
22595W        W38729  14.970  15.257  14.072  0.3829 -0.2056  0.0135
22596W        W38730  15.457   4.367  14.377  0.0118  0.2075 -0.1462
22597W        W38731   8.577   7.937   0.062 -0.3983  0.0908  0.0478
22598W        W38732   9.661   4.313   1.633 -0.2328 -0.0384  0.0436
22599W        W38733   1.727  13.161  16.261  0.1345 -0.1093  0.3236
22600W        W38734   4.211  15.656  15.635  0.0237 -0.1030 -0.1776
22601W        W38735   2.083   5.671   3.692  0.0673  0.3796  0.2819
22602W        W38736   3.228   5.434  14.616  0.0677  0.2465  0.0300
22603W        W38737   6.161   2.520  16.009 -0.2013  0.3718  0.0014
22604W        W38738   1.028   8.251  16.145  0.1979  0.0769  0.1642
22605W        W38739   5.634  14.899  13.741 -0.0233  0.0655 -0.2398
22606W        W38740   3.058   1.247   0.290 -0.1158  0.0135 -0.1975
22607W        W38741  13.921  12.756   1.024  0.0602  0.0739 -0.0639
22608W        W38742   2.407  11.272  14.266  0.0671 -0.1700  0.1644
22609W        W38743   6.845   5.087  12.638 -0.0298 -0.0748  0.2971
22610W        W38744   8.162   8.574   1.700 -0.1881 -0.1651  0.0013
22611W        W38745  13.494   0.907   1.739  0.0474  0.2213 -0.1041
22612W        W38746  13.452   1.570   4.874  0.0829 -0.1067  0.1085
22613W        W38747  15.095  14.256   2.348  0.0760  0.1598 -0.2921
22614W        W38748  17.077   6.698   2.518 -0.1173 -0.3102 -0.0083
22615W        W38749   2.375   8.867  16.274  0.1197  0.1127  0.1077
22616W        W38750   4.300   1.803   2.938 -0.1760 -0.0089 -0.2991
22617W        W38751   7.489   4.009   1.170 -0.0330 -0.0339  0.0073
22618W        W38752   2.433  13.975  15.372  0.0187  0.0799  0.1732
22619W        W38753  14.115  16.312   4.040  0.2128 -0.0632 -0.2771
22620W        W38754  13.544  11.261  14.760  0.2333  0.2083 -0.0010
22621W        W38755  13.721   3.050   4.549  0.2494 -0.0368  0.2223
22622W        W38756   4.216   9.927  14.550  0.3479  0.0022  0.1137
22623W        W38757   2.475  17.667  12.021 -0.2925 -0.1202 -0.0516
22624W        W38758   4.427   0.231   1.475  0.2278  0.0630 -0.1414
22625W        W38759  12.105   9.068   4.730  0.0649  0.1204 -0.0060
22626W        W38760   1.520   0.035  12.016 -0.0648  0.1085 -0.1759
22627W        W38761  14.995   4.081  11.257  0.2326  0.0996  0.0366
22628W        W38762  12.504  11.153  15.399 -0.0264  0.0133 -0.2277
22629W        W38763  15.703   5.051   4.149  0.2731  0.2843  0.2091
22630W        W38764   6.487  10.981  11.691  0.0518  0.1309  0.0738
22631W        W38765   1.626  10.674   5.479 -0.0299 -0.2122 -0.1344
22632W        W38766   0.578   7.192  15.608 -0.1183  0.1244  0.0305
22633W        W38767  15.959  16.347  13.674 -0.3505 -0.0291 -0.1043
22634W        W38768  13.411   4.939  13.497  0.0757 -0.1724 -0.0423
22635W        W38769   8.845   1.528   1.689 -0.0075  0.1053 -0.0107
22636W        W38770   7.204  16.000   4.514 -0.2249 -0.0013  0.1655
22637W        W38771  11.081   0.998  16.148 -0.0990  0.2670  0.1846
22638W        W38772   8.103  10.452  15.187  0.1223  0.1024 -0.1112
22639W        W38773  11.426   7.482   3.394 -0.0463  0.3368  0.2154
22640W        W38774  12.928  10.311  12.810  0.1198  0.1496  0.1171
22641W        W38775  11.928  14.279   0.053  0.1033 -0.0998  0.1988
22642W        W38776   2.957   2.133   0.979 -0.5039  0.1003  0.1873
22643W        W38777   2.969   5.655  16.179 -0.3077  0.3616 -0.1645
22644W        W38778   7.809   4.850   1.672 -0.2707  0.2662 -0.1976
22645W        W38779   3.054   8.599   1.051  0.0180 -0.2222  0.0983
22646W        W38780   8.865  11.723   0.483 -0.3005 -0.0489  0.1969
22647W        W38781  10.736  10.416   0.570 -0.1289  0.2162 -0.2242
22648W        W38782  16.523   0.467   4.487 -0.2227 -0.0364  0.2470
22649W        W38783  17.264  14.352   2.859 -0.0865  0.1126  0.0170
22650W        W38784  17.314  15.165   3.897  0.1036  0.0538  0.3751
22651W        W38785   8.870  16.914   4.310  0.0210  0.2948  0.0239
22652W        W38786  11.517  13.642  13.249 -0.2362 -0.1811 -0.0959
22653W        W38787   9.895   5.981   0.027 -0.2105 -0.0003 -0.1217
22654W        W38788  13.814  13.365  12.364 -0.2073 -0.0841 -0.0775
22655W        W38789   6.893  16.211  12.499  0.2154 -0.1459  0.2763
22656W        W38790  17.487   5.076  11.999 -0.0702 -0.1066  0.1183
22657W        W38791   3.825  10.512   3.032 -0.2435 -0.4164 -0.0155
22658W        W38792  13.063  13.519   5.008  0.2318  0.0141 -0.3014
22659W        W38793  17.621  11.277  16.038 -0.0554  0.0350  0.2651
22660W        W38794  10.123   7.518  14.855  0.2948 -0.1919 -0.0220
22661W        W38795   9.256   8.676  12.024  0.0462 -0.0917  0.1688
22662W        W38796  17.648   9.167  14.082  0.0846  0.0552  0.0040
22663W        W38797  13.781  16.604   4.276  0.0647  0.1419 -0.0012
22664W        W38798  17.739   7.787   1.907  0.3054 -0.1411  0.0674
22665W        W38799   0.961  15.830  14.748  0.0117  0.2364 -0.4019
22666W        W38800  16.131   8.387  15.330 -0.0869  0.4254  0.1363
22667W        W38801  14.292   8.355   0.023  0.0585  0.1885 -0.3959
22668W        W38802  14.780   5.003  11.501 -0.2252  0.1233 -0.1934
22669W        W38803   7.690   1.139  16.388 -0.1412  0.1532  0.3942
22670W        W38804  11.147   1.875  13.752  0.0056  0.1225  0.0141
22671W        W38805   9.446  15.884   0.085 -0.0984 -0.2270  0.3054
22672W        W38806   7.534  13.104   0.934 -0.1000  0.0203  0.2260
22673W        W38807   2.834  14.720  15.034  0.1638  0.1381  0.0133
22674W        W38808  15.870   5.666   3.572  0.2938  0.0931  0.0441
22675W        W38809  17.352  13.548   0.890 -0.1741  0.2862 -0.2331
22676W        W38810  17.391  12.510   4.262 -0.0263  0.0841 -0.1625
22677W        W38811  17.887   1.252   3.099 -0.1695  0.4900 -0.2619
22678W        W38812  14.106   6.624   1.368 -0.0910  0.0725  0.0130
22679W        W38813   2.565  16.344  12.993 -0.2068  0.1486  0.1814
22680W        W38814   4.078  16.505  15.576  0.2256  0.0635 -0.0896
22681W        W38815   3.297  15.520   1.438 -0.0069  0.2810  0.0174
22682W        W38816  15.920  15.582  15.653 -0.1102  0.0756  0.2545
22683W        W38817  14.871   9.161  16.410 -0.0255 -0.0609  0.0833
22684W        W38818  14.834   2.505  15.180 -0.2105 -0.1371 -0.0482
22685W        W38819  13.875   9.545   2.063 -0.0478  0.0228  0.0197
22686W        W38820  16.465   1.819  14.505  0.1436  0.1339 -0.2183
22687W        W38821   5.525   9.398  16.414 -0.0038 -0.2129  0.3993
22688W        W38822   6.568  14.300   2.844 -0.1183 -0.0526  0.0546
22689W        W38823  17.019   5.411   3.158  0.0968  0.0117 -0.1365
22690W        W38824  13.672   0.512  12.865  0.1306 -0.3071 -0.0477
22691W        W38825   7.979  17.767  16.403 -0.0407  0.1933  0.1706
22692W        W38826  12.949   4.239  11.950  0.0065 -0.1828 -0.1577
22693W        W38827   9.744   4.566   2.792 -0.3198 -0.0777  0.0255
22694W        W38828   3.067   1.325  15.411 -0.2223  0.3991 -0.4296
22695W        W38829   1.858   3.913  12.191  0.1165 -0.0885 -0.1550
22696W        W38830   1.343   5.923   5.444 -0.0577  0.2551 -0.1244
22697W        W38831  16.391  13.236   4.308  0.2303  0.2352 -0.0167
22698W        W38832   0.037  16.632   4.996 -0.3335  0.0089  0.4119
22699W        W38833   7.102  15.935   3.275  0.2083 -0.2095 -0.1029
22700W        W38834  15.669  16.783  14.436  0.0038  0.0352  0.1909
22701W        W38835  12.817   9.710  15.595  0.1274  0.2070  0.0359
22702W        W38836   0.368  13.445   4.810 -0.2405  0.0589 -0.0416
22703W        W38837   8.192   2.003   3.901 -0.2114  0.0802  0.2786
22704W        W38838   1.558  11.813   1.715  0.1319 -0.0672  0.0899
22705W        W38839  10.233  13.369  15.699 -0.1216 -0.0546  0.0882
22706W        W38840   2.271   5.146  11.774  0.0270  0.3440 -0.2505
22707W        W38841  16.009   4.625  10.166 -0.1467  0.0672 -0.3014
22708W        W38842  11.570  16.815  13.690 -0.1372 -0.2463  0.1231
22709W        W38843  15.820   3.153  16.028 -0.1993 -0.1494  0.2797
22710W        W38844   3.065  11.496   0.130 -0.0210 -0.1313  0.0137
22711W        W38845   4.635  13.113   3.181  0.0811 -0.1311  0.1666
22712W        W38846   8.475  11.425   0.374  0.0213 -0.1555 -0.0349
22713W        W38847   9.939  12.010  15.888 -0.1021 -0.0814  0.2458
22714W        W38848   3.348   5.220   4.722  0.0632 -0.0842 -0.1446
22715W        W38849   5.392  17.495  15.733  0.0897  0.4505 -0.0149
22716W        W38850   2.288  10.737   0.259 -0.0240 -0.0093 -0.0528
22717W        W38851  12.969   3.875  11.539  0.3333  0.2737 -0.2028
22718W        W38852  13.835   1.105  12.900  0.1076  0.0949 -0.0765
22719W        W38853   7.229  10.357   0.595 -0.1483 -0.2299  0.1835
22720W        W38854   5.616   3.096   2.077 -0.3542 -0.4182 -0.1111
22721W        W38855  15.538   8.348  12.337  0.1312  0.0182 -0.3745
22722W        W38856   1.689  10.880  15.014 -0.0700 -0.0156  0.1000
22723W        W38857   5.696   0.454  15.466  0.3238 -0.0298 -0.0930
22724W        W38858   5.618   2.545  16.206  0.2018  0.0142  0.0595
22725W        W38859   6.873   0.174   0.793 -0.0206 -0.1199 -0.0336
22726W        W38860  16.980   4.442  15.746 -0.0984 -0.1923 -0.0908
22727W        W38861   7.285   1.118  14.832 -0.1408 -0.1277 -0.0819
22728W        W38862  14.769   1.118  13.610 -0.0026 -0.1716 -0.1142
22729W        W38863  15.288  14.824   0.468 -0.1294 -0.3180  0.2230
22730W        W38864   6.913   5.563   2.368 -0.2387 -0.1879  0.3220
22731W        W38865   4.784  17.002   3.402 -0.1888  0.1865  0.4294
22732W        W38866  16.519   4.120   4.362  0.0001  0.0308 -0.0118
22733W        W38867   2.177   8.884   4.521 -0.3577 -0.3016 -0.2458
22734W        W38868  16.969   5.543  10.649  0.0614  0.1015  0.1117
22735W        W38869  11.381  12.611  15.874  0.0351  0.0401  0.1202
22736W        W38870   3.893  11.836   0.466  0.1627 -0.0452 -0.0966
22737W        W38871  15.123  10.286  16.109  0.1567  0.0251 -0.3972
22738W        W38872   4.337   6.659  15.299  0.1730 -0.0710  0.3757
22739W        W38873   3.163  16.497  12.953 -0.3754  0.0079 -0.3839
22740W        W38874  13.104   9.588  13.340 -0.0319  0.0991  0.1193
22741W        W38875  13.402  17.480   2.295  0.0854  0.0685 -0.0496
22742W        W38876  11.891   2.009  12.787 -0.1788  0.1249 -0.1822
22743W        W38877   8.598  10.440   0.322 -0.2579  0.1920 -0.1971
22744W        W38878  11.659   9.394   3.647 -0.4008  0.0332 -0.0537
22745W        W38879   0.056   6.543  10.013  0.0529 -0.2992 -0.1911
22746W        W38880  15.485  16.167   0.771 -0.2353 -0.4304 -0.3133
22747W        W38881  16.286   7.379  11.591  0.4925  0.0123 -0.1407
22748W        W38882  14.342   1.066  12.568  0.4599  0.1896 -0.0892
22749W        W38883  14.607  16.237   4.458  0.1883  0.0580 -0.2745
22750W        W38884   5.700   9.328   1.363 -0.0542 -0.1175  0.1234
22751W        W38885   3.435   6.680  16.205 -0.0783  0.1760  0.0917
22752W        W38886  17.070  14.353  12.381  0.0093 -0.1021  0.0445
22753W        W38887  14.262  13.649   4.016  0.0533  0.2026 -0.0583
22754W        W38888  10.999  14.976   1.665 -0.1769  0.0552  0.1192
22755W        W38889  17.909   1.504   3.519  0.0681  0.1218  0.1984
22756W        W38890  13.101   9.779   5.917  0.0691 -0.4436 -0.0361
22757W        W38891   6.792   6.612   0.213 -0.1653 -0.1170 -0.2040
22758W        W38892  13.370   4.490  13.329  0.2099  0.3312  0.0437
22759W        W38893   1.009   4.036   0.304  0.0033 -0.0795 -0.0055
22760W        W38894   6.043   2.386   2.401  0.0536 -0.1570 -0.0735
22761W        W38895   9.880   1.127  13.472 -0.0855  0.0209  0.0299
22762W        W38896   7.831   3.528  15.638 -0.0150 -0.0652 -0.3078
22763W        W38897  15.979   6.157  14.099  0.2877  0.1393 -0.0598
22764W        W38898  17.326   1.432  14.212  0.2131  0.1029  0.0664
22765W        W38899   5.757   9.218  11.969  0.2393 -0.0034 -0.0960
22766W        W38900   5.835  13.279  15.382 -0.1113 -0.5974 -0.2850
22767W        W38901  10.796   9.651  13.861  0.0908  0.0977  0.0383
22768W        W38902   5.175   2.765  16.184  0.1435 -0.2086 -0.1621
22769W        W38903   4.597  14.984   3.689  0.1093  0.2569 -0.0323
22770W        W38904  17.404   8.991  13.088 -0.2038  0.1086  0.0572
22771W        W38905   6.636  12.909  15.264 -0.1062 -0.0924 -0.0381
22772W        W38906  16.764  13.541   4.442  0.2862 -0.1183 -0.4703
22773W        W38907   9.276   8.172   3.743 -0.1508  0.1480  0.0887
22774W        W38908   8.602  10.965   2.966  0.0750 -0.1835  0.1536
22775W        W38909   4.901   3.949   4.592 -0.0113 -0.0144 -0.1346
22776W        W38910  11.926  11.709   4.292  0.0239 -0.1508 -0.0460
22777W        W38911  16.333  17.438  13.497 -0.0537 -0.3027 -0.0108
22778W        W38912   1.206  16.219   2.146  0.0059 -0.0477 -0.2598
22779W        W38913   1.495   5.975   0.854  0.0330  0.2003  0.2078
22780W        W38914   5.252  13.527   4.399  0.0997  0.1408  0.0256
22781W        W38915   0.801   6.559  13.793  0.0601  0.2310  0.0193
22782W        W38916   7.712   7.599  12.186 -0.1129  0.1599  0.0058
22783W        W38917   1.160   0.473   4.523  0.0998 -0.1295 -0.0817
22784W        W38918   9.875   7.075  13.562  0.1212  0.0411 -0.0690
22785W        W38919  17.567  14.559  15.613 -0.0991 -0.2963  0.0651
22786W        W38920  14.919  13.429   5.500 -0.3099  0.2151 -0.2043
22787W        W38921   2.358   7.741  15.912 -0.1069  0.0262  0.2452
22788W        W38922  14.402   8.083   4.312 -0.0010 -0.3157 -0.2502
22789W        W38923   5.260  13.081   5.959 -0.3476 -0.3846 -0.2621
22790W        W38924   5.995   4.158   0.168  0.3858  0.0307 -0.3651
22791W        W38925   1.486   8.670   0.831 -0.0276  0.0350 -0.1230
22792W        W38926   7.835   4.739  12.439 -0.2103 -0.2217  0.0498
22793W        W38927   8.051   2.218   2.837 -0.1253 -0.0996 -0.3511
22794W        W38928  17.527   2.479   0.842 -0.3593  0.4302 -0.0476
22795W        W38929   3.886  13.788   1.318 -0.0069 -0.0335 -0.1709
22796W        W38930   7.768   2.261   2.439  0.0290  0.0580  0.1572
22797W        W38931  11.000  14.405   2.689  0.0722 -0.0381  0.0021
22798W        W38932   4.347   9.364  11.637 -0.1551 -0.0388  0.0531
22799W        W38933  16.069  14.967   2.228  0.1160 -0.1588 -0.0396
22800W        W38934   7.618   5.667   3.642 -0.0113 -0.2207 -0.3872
22801W        W38935   2.603   7.023   2.442  0.1119 -0.1118  0.0038
22802W        W38936   8.561  17.396  15.720  0.1601  0.0526 -0.0659
22803W        W38937   0.349  11.249  11.221 -0.1376 -0.2707  0.1162
22804W        W38938  14.607  15.888   1.756 -0.6436  0.1026  0.1842
22805W        W38939  14.714   5.131   1.345 -0.2021  0.0065 -0.2113
22806W        W38940  11.527   9.011  11.202  0.0867 -0.0122 -0.3980
22807W        W38941   5.987   4.491  11.227 -0.0495 -0.0178 -0.0849
22808W        W38942   6.477   9.782   0.628  0.0361  0.2087  0.1049
22809W        W38943   9.192   6.211  15.414 -0.1646 -0.0237  0.0195
22810W        W38944   5.217   7.058  15.757 -0.2691 -0.4608 -0.1753
22811W        W38945   1.288  13.345   2.287  0.0145 -0.2023  0.0887
22812W        W38946   4.264  14.271  13.291 -0.1238  0.3992  0.1727
22813W        W38947   0.679  17.632   1.010 -0.1052 -0.0247  0.2893
22814W        W38948   8.724   5.328  16.223  0.0191 -0.1939  0.2354
22815W        W38949   7.820   2.831   2.128  0.0553  0.0395  0.0286
22816W        W38950   4.297   2.991   4.263  0.0892 -0.1776 -0.3406
22817W        W38951   5.507   0.253   3.390 -0.1416 -0.1018 -0.0982
22818W        W38952  15.632   2.572   4.611 -0.1697 -0.3196 -0.3792
22819W        W38953   7.066   8.157  12.217 -0.0749  0.3786 -0.3613
22820W        W38954   9.785   4.936  15.200 -0.2025 -0.1143  0.2384
22821W        W38955   7.113   7.734   1.692 -0.0557  0.0596  0.1028
22822W        W38956  13.010   4.414   3.121 -0.2730  0.0289  0.1635
22823W        W38957   4.441   0.411   0.970  0.0829 -0.1095 -0.1082
22824W        W38958   1.868  13.735   4.431 -0.1396  0.0726 -0.2155
22825W        W38959   4.207  15.647   0.626 -0.1381 -0.1961  0.1660
22826W        W38960  10.938  10.022  11.655 -0.1382  0.2227 -0.1227
22827W        W38961  16.937  10.384  12.040  0.0555  0.2061  0.1277
22828W        W38962  11.306  15.617  12.225  0.0555  0.1429 -0.2965
22829W        W38963   3.718  17.956   4.843 -0.3449  0.1801 -0.0230
22830W        W38964  14.417   5.798   3.738  0.0140  0.1169 -0.1552
22831W        W38965  16.695   7.137  15.502 -0.1290  0.0243  0.3199
22832W        W38966   5.681  11.635   2.352 -0.0629 -0.3638 -0.0556
22833W        W38967  15.974   0.053   1.180 -0.5553  0.3506 -0.0440
22834W        W38968  13.087  14.883   3.295  0.0153 -0.0594  0.1368
22835W        W38969  17.315   3.114  13.477  0.1303  0.0917 -0.1232
22836W        W38970  15.494   5.409   3.344 -0.0343  0.2843  0.1615
22837W        W38971  16.664   0.042   1.801 -0.0037  0.1313  0.0892
22838W        W38972   7.755  11.200   1.071  0.2699 -0.2472  0.2367
22839W        W38973   8.357   1.213   3.186 -0.2595 -0.0147  0.0755
22840W        W38974  13.300   4.004  14.578  0.2173  0.0348  0.1218
22841W        W38975   6.818   1.213  14.098 -0.2996  0.0535  0.1761
22842W        W38976   4.809   3.050   4.226 -0.2190  0.1146  0.1509
22843W        W38977  10.573   7.796  15.474  0.0958  0.0195 -0.0331
22844W        W38978  11.275   7.351  14.229  0.2621  0.0364  0.1190
22845W        W38979  14.638   5.284   0.815 -0.1430  0.0331  0.1820
22846W        W38980   0.394   3.834  16.043 -0.2483 -0.0304  0.3052
22847W        W38981   5.601   8.089   2.218 -0.0488  0.0774 -0.5829
22848W        W38982   3.814   2.274   1.976  0.1459  0.1580  0.0675
22849W        W38983  17.177   9.079  12.673 -0.1824 -0.1276  0.0967
22850W        W38984   4.340   2.005  14.017 -0.1903 -0.2043 -0.0304
22851W        W38985  17.710   4.995   3.261 -0.2332  0.1514 -0.4042
22852W        W38986   8.230  15.246   5.271  0.0123 -0.0142 -0.1200
22853W        W38987   1.725   2.857   2.540 -0.2264  0.1031 -0.0464
22854W        W38988  15.629   0.139   5.492  0.1311  0.1385 -0.0033
22855W        W38989  15.473   5.659   5.895 -0.1722 -0.2547  0.0766
22856W        W38990   3.496   6.535   2.910 -0.3518 -0.0073  0.0896
22857W        W38991  12.163  12.825  12.514  0.2904  0.0095  0.3348
22858W        W38992   7.589   2.095  13.381  0.0686  0.0065 -0.1564
22859W        W38993  13.326   8.143  14.085 -0.1219  0.0677 -0.2101
22860W        W38994   5.027  16.989   0.871  0.1954 -0.2378 -0.1339
22861W        W38995   3.802   0.052  14.023  0.0247  0.0359 -0.1487
22862W        W38996   5.435   4.705   2.341  0.0401  0.1084  0.1043
22863W        W38997   7.171   8.061   3.818  0.1579 -0.1740 -0.3026
22864W        W38998   8.138   3.587   2.396 -0.3448  0.0856  0.0172
22865W        W38999   2.577   7.958  15.126 -0.0580 -0.2617  0.1370
22866W        W39000   8.757   6.987  11.643  0.1701 -0.2491  0.0072
22867W        W39001  14.426  17.295   5.185 -0.3108 -0.0128  0.0736
22868W        W39002  14.957  17.751   0.926 -0.1780 -0.1334 -0.3570
22869W        W39003   1.849  13.971  11.064  0.0291 -0.0260  0.1742
22870W        W39004   0.860   9.506  12.158 -0.0417  0.0069 -0.0154
22871W        W39005   3.837  12.240   4.262 -0.1282  0.2098 -0.0709
22872W        W39006   1.907   3.307   3.221 -0.0411 -0.1039 -0.0862
22873W        W39007   8.393   9.613   3.188  0.0079  0.1303 -0.1401
22874W        W39008   0.519  10.602   4.368 -0.0277  0.0658  0.2165
22875W        W39009  13.482   8.287  11.660  0.0321  0.0520 -0.0055
22876W        W39010   9.946  15.566   2.425 -0.0333 -0.2772  0.1951
22877W        W39011  15.337  13.891   0.716  0.1637 -0.0296 -0.0879
22878W        W39012  15.426   9.669  13.743  0.3299  0.2945  0.1774
22879W        W39013  13.740   8.644   5.204 -0.0488 -0.1941 -0.1705
22880W        W39014  17.196  15.046   0.931 -0.1023 -0.0868  0.2164
22881W        W39015  12.752   1.164  16.368 -0.4718 -0.0754 -0.0833
22882W        W39016  10.032   5.929  14.469  0.1572  0.1727 -0.0487
22883W        W39017   7.754   5.758  11.967 -0.0651  0.0996 -0.0492
22884W        W39018  16.033   2.833   0.266  0.0148  0.2309 -0.1776
22885W        W39019   7.059   2.650   0.468 -0.0988  0.2489 -0.1414
22886W        W39020  16.989   5.725  15.492  0.2508  0.0181 -0.1068
22887W        W39021   4.063   8.306  11.338  0.2798  0.3607  0.0332
22888W        W39022   4.487  17.319   3.223  0.1105  0.0576  0.1188
22889W        W39023  16.682   2.088   0.708 -0.0563 -0.0605  0.1494
22890W        W39024   6.151  15.648  12.486  0.0722  0.0648  0.0731
22891W        W39025   9.195   9.189   0.306 -0.1328 -0.3386  0.2673
22892W        W39026  17.938  15.000  15.614  0.2801  0.0727 -0.0328
22893W        W39027  12.090  17.573   3.463  0.2321  0.1884 -0.0736
22894W        W39028   7.072   0.095  11.796  0.1164  0.1391  0.0594
22895W        W39029  15.939   2.040   1.416  0.0711 -0.2072 -0.0634
22896W        W39030  16.288  13.042  11.691 -0.0136  0.1160  0.1775
22897W        W39031   5.552  16.705   3.057 -0.1964 -0.1006  0.0064
22898W        W39032   6.763  12.542   3.236  0.1938  0.1361  0.4155
22899W        W39033  17.658   8.765   3.571 -0.0237 -0.0256  0.0916
22900W        W39034   6.158   6.596  13.427  0.1258 -0.1500  0.2038
22901W        W39035   8.690   5.114   5.404  0.1574  0.1606 -0.2290
22902W        W39036   1.048   5.587   5.965 -0.2405 -0.0674  0.1657
22903W        W39037  17.850  11.296  13.801 -0.2268 -0.0065 -0.0253
22904W        W39038   8.342  12.991  11.903 -0.1606 -0.3650  0.1862
22905W        W39039  16.482  15.464   5.740 -0.2139 -0.1438  0.0925
22906W        W39040  17.607   1.612  11.485 -0.2386 -0.2194 -0.1741
22907W        W39041   9.417   3.334  13.579  0.0427 -0.2194  0.1679
22908W        W39042   2.251  13.330   0.836 -0.0407 -0.1900 -0.0009
22909W        W39043  10.080   6.890  10.521  0.0445 -0.2425 -0.1288
22910W        W39044  12.681   8.353   2.581  0.0406 -0.0822 -0.3254
22911W        W39045  15.129   0.823  14.859  0.0184  0.0798  0.1722
22912W        W39046   5.401   4.783  13.576 -0.4878 -0.0571 -0.2408
22913W        W39047   3.000  13.472  14.201  0.2894 -0.2821  0.2035
22914W        W39048  13.563  11.071   2.044 -0.0243  0.1256  0.0412
22915W        W39049  18.045  12.202   0.244 -0.0437 -0.2284  0.1578
22916W        W39050   0.519   9.186   5.070 -0.0579  0.0636 -0.2243
22917W        W39051   8.901  16.372   0.195 -0.3169  0.0731  0.1496
22918W        W39052   3.130   3.512   4.647 -0.0314  0.0153  0.3917
22919W        W39053   9.905  11.517  15.994 -0.1420  0.0195 -0.0973
22920W        W39054  14.853  16.052   0.189 -0.3754  0.3029 -0.0143
22921W        W39055  10.212   9.368  11.807 -0.2469 -0.0566 -0.2473
22922W        W39056   9.491  14.695  11.330 -0.2147  0.1099 -0.1075
22923W        W39057   2.290   2.406   6.202 -0.2332 -0.1745  0.1286
22924W        W39058  15.335  17.785   0.588 -0.2447 -0.1667  0.2608
22925W        W39059   0.165   0.028  15.692  0.0552  0.0194  0.3528
22926W        W39060   2.401   8.701  15.772  0.1471  0.0410  0.0549
22927W        W39061  14.101   1.393  12.126 -0.0192 -0.1183 -0.1210
22928W        W39062   1.167   2.676   1.283  0.0354 -0.2365 -0.0305
22929W        W39063   0.525  10.516  15.715  0.0668  0.0290 -0.0171
22930W        W39064  11.918  10.636  13.331 -0.2205  0.0459 -0.1125
22931W        W39065   1.756   0.237   1.517  0.0589  0.2137 -0.0650
22932W        W39066   7.367   9.460   0.695 -0.2084 -0.1457  0.2280
22933W        W39067   8.860  14.720  12.584 -0.0267  0.2643  0.2322
22934W        W39068   0.902   7.610   5.792 -0.1403 -0.2015  0.1317
22935W        W39069   8.075   3.998   0.456  0.2484  0.1959  0.1068
22936W        W39070   8.651   6.668   0.446  0.1938  0.1568 -0.0830
22937W        W39071   7.600  16.743  12.838 -0.2179  0.1750  0.1491
22938W        W39072   8.490  13.517  11.140  0.1505 -0.1301 -0.1648
22939W        W39073  10.855  15.241   3.594  0.3033 -0.3293  0.0059
22940W        W39074  14.320  13.066   4.156 -0.0880  0.0525 -0.0725
22941W        W39075  12.132   2.939  13.996  0.0583 -0.2847 -0.1591
22942W        W39076   5.474   7.872   3.993 -0.0866 -0.4203  0.1746
22943W        W39077   2.715   8.564   2.736 -0.1203 -0.0538 -0.1394
22944W        W39078   4.114  16.241   2.206  0.3003  0.1186 -0.2273
22945W        W39079   4.633  17.704   4.090 -0.1632  0.0277 -0.1156
22946W        W39080  13.300   8.433   1.219  0.1841  0.2696  0.2092
22947W        W39081   3.229   3.881   4.992  0.0832 -0.4161 -0.2709
22948W        W39082  14.542   3.752  13.378  0.0402 -0.3312 -0.1449
22949W        W39083   6.115  11.238   3.622  0.2573 -0.2252  0.1429
22950W        W39084   7.972   2.580  14.791 -0.0439  0.1268 -0.3186
22951W        W39085  12.626  16.270  13.959 -0.2238 -0.0615 -0.0503
22952W        W39086  15.799   1.986  12.516  0.1377 -0.0637  0.1057
22953W        W39087  10.967   0.287  13.505  0.0677 -0.0481  0.3126
22954W        W39088   8.717  17.895   5.666 -0.0848  0.2134 -0.2039
22955W        W39089   7.538  11.107   3.942  0.0475 -0.0499 -0.1324
22956W        W39090  13.742   4.905   2.966  0.0192 -0.0932  0.2260
22957W        W39091  10.300  15.101  12.864 -0.3362 -0.2040 -0.1909
22958W        W39092  13.163   0.000  15.515  0.1634 -0.0105 -0.0480
22959W        W39093   2.648  13.110   0.449  0.0542  0.0494 -0.2506
22960W        W39094  15.396  10.329   4.363  0.0250  0.0287 -0.2056
22961W        W39095  11.607   6.257   3.627 -0.0197 -0.1608  0.1132
22962W        W39096   3.500  10.714  10.862 -0.3191 -0.0147  0.3120
22963W        W39097   6.868   5.965  12.137  0.1774  0.1792 -0.0601
22964W        W39098   0.947   5.900   5.129  0.0995  0.0091  0.5494
22965W        W39099  12.209   0.775  13.507 -0.0152 -0.1051 -0.0369
22966W        W39100  10.904   4.181   5.401 -0.1706  0.1334  0.1586
22967W        W39101  12.275  17.982  15.617  0.0381  0.3904 -0.1540
22968W        W39102  13.363  14.666  12.740 -0.1009 -0.0803 -0.2775
22969W        W39103  12.095   0.054  14.404  0.2246 -0.0175  0.1053
22970W        W39104  17.318  15.675  15.864 -0.2509 -0.0274 -0.0656
22971W        W39105   5.842   3.417   2.415 -0.1550  0.0930  0.2056
22972W        W39106   6.146  14.044  11.944 -0.0117 -0.0720  0.0309
22973W        W39107  10.064   0.045   0.420 -0.3464  0.1498  0.2229
22974W        W39108   5.466   7.212   2.672 -0.1641 -0.2294 -0.0375
22975W        W39109   7.827   6.952  14.977 -0.0640 -0.5458 -0.1507
22976W        W39110  10.494   2.460   3.908  0.0577  0.0223  0.0690
22977W        W39111  13.002  13.451  14.083  0.1710 -0.0265  0.0942
22978W        W39112  17.158   9.639   0.160 -0.1289  0.0497  0.1069
22979W        W39113  11.738   3.082  12.745  0.2215  0.0155 -0.2699
22980W        W39114  14.173   8.775   1.805 -0.1737  0.0173 -0.2971
22981W        W39115  14.676   1.143  11.422  0.2031 -0.1727  0.1512
22982W        W39116  13.638   2.100   4.784  0.2113 -0.0155 -0.5227
22983W        W39117  17.224  15.954   0.411 -0.1086  0.0768  0.0967
22984W        W39118  14.816   4.695   1.717  0.2356  0.1300  0.2389
22985W        W39119   1.728   2.580   2.961  0.1979  0.0887 -0.2157
22986W        W39120  17.145  16.772   3.935  0.0668  0.1709 -0.0056
22987W        W39121  15.387   0.344  14.780 -0.1541  0.1241 -0.1886
22988W        W39122  12.901  12.877   4.148  0.0443 -0.0661  0.0009
22989W        W39123  13.988   7.566   3.160  0.1811 -0.0545 -0.0327
22990W        W39124   3.591  15.300  14.771  0.0293 -0.0222 -0.0482
22991W        W39125  14.618   2.883   0.773  0.2168 -0.1057  0.1038
22992W        W39126   3.234  14.526   5.693 -0.2098 -0.1068  0.0677
22993W        W39127   2.108   4.648  13.811  0.0385 -0.0523  0.0875
22994W        W39128  15.687   6.746   5.907  0.2213 -0.0222  0.1497
22995W        W39129   4.569  14.626   4.065 -0.0870 -0.1622 -0.2867
22996W        W39130   3.377  13.534  12.400  0.0831  0.1684  0.0841
22997W        W39131   2.698  13.858  13.918 -0.0302 -0.1622 -0.2846
22998W        W39132   3.502  12.689  12.063 -0.3267  0.1501 -0.0871
22999W        W39133  11.401   8.384  15.435  0.0590  0.1572  0.3025
23000W        W39134   0.405  12.723   0.947  0.3033  0.0371  0.0419
23001W        W39135  14.311  11.504   0.389  0.0848  0.0758 -0.2405
23002W        W39136   7.656  16.844  11.812 -0.1579 -0.1877  0.0832
23003W        W39137   8.727  13.098   5.665  0.1584 -0.0989 -0.1189
23004W        W39138   6.896  14.035  14.748  0.0739 -0.1217 -0.0423
23005W        W39139  17.138  12.435   1.443  0.0434  0.0424 -0.0815
23006W        W39140   7.961   4.134   1.293 -0.0607  0.2325 -0.0439
23007W        W39141   5.869  12.307  11.625  0.1457  0.2028  0.4605
23008W        W39142  11.527  13.756   4.142 -0.0425 -0.2530 -0.2443
23009W        W39143   9.476  17.858  11.172  0.1919  0.1711 -0.0833
23010W        W39144   7.924  17.996   0.816 -0.1490 -0.1817 -0.2762
23011W        W39145   5.335  14.061   4.128 -0.1224  0.2584  0.1442
23012W        W39146   6.333   6.961   4.499  0.0929 -0.1462  0.2893
23013W        W39147  11.200  13.218   5.506 -0.0295 -0.1355 -0.0785
23014W        W39148  11.730   6.596   1.949  0.1283 -0.1486 -0.2925
23015W        W39149  11.780   5.015   2.070  0.2678  0.0396  0.1369
23016W        W39150  11.329  11.332  13.536  0.3786  0.0795  0.2172
23017W        W39151   2.569  15.389   4.266 -0.0938 -0.1825 -0.0269
23018W        W39152  16.717  16.881  16.358 -0.1722  0.1342  0.1626
23019W        W39153  12.784   9.746  11.320  0.1451  0.1049 -0.0326
23020W        W39154   6.602  14.187   3.390 -0.1652 -0.2781 -0.0181
23021W        W39155   0.152  12.470  13.167 -0.2211 -0.1212 -0.3167
23022W        W39156  11.286   3.605   0.221  0.4604  0.0333 -0.0662
23023W        W39157   8.844   4.120   0.887  0.0292  0.1218  0.0672
23024W        W39158   0.301  14.054  11.452 -0.2504 -0.2494  0.0589
23025W        W39159  16.059  12.871  12.939  0.0021  0.1524  0.1448
23026W        W39160   0.096  12.808   2.088 -0.1637 -0.1591  0.0046
23027W        W39161  11.823  17.280   5.187 -0.2777 -0.1414 -0.0133
23028W        W39162  13.006   1.767   0.656 -0.2047  0.1134  0.3700
23029W        W39163   7.873  16.323   1.143  0.1258  0.1514 -0.0843
23030W        W39164   5.165  13.608  11.755  0.1150  0.1942 -0.1052
23031W        W39165   5.680  11.750  12.271 -0.0523  0.0031  0.1660
23032W        W39166   7.979  15.776  12.681  0.1587  0.2012  0.4120
23033W        W39167   3.718  17.033  13.066 -0.3136 -0.1873  0.2043
23034W        W39168  15.282  17.691   2.490 -0.0022  0.1361 -0.0412
23035W        W39169  13.241  10.178   2.469  0.3049 -0.0998  0.0931
23036W        W39170   4.525  17.104  11.696  0.0788 -0.1996  0.1255
23037W        W39171   6.822   1.366   0.692 -0.3108  0.1777  0.1649
23038W        W39172  17.365   1.783   0.145 -0.2302 -0.2318  0.1332
23039W        W39173   3.165  11.623   1.591  0.4925 -0.0378 -0.2842
23040W        W39174   9.793   1.305   4.896 -0.0242 -0.1972  0.1043
23041W        W39175  12.408  12.336  14.150  0.0656 -0.0319  0.0634
23042W        W39176  16.508   8.633  11.905 -0.0324 -0.1688 -0.2681
23043W        W39177  17.878  11.988  12.089  0.2245 -0.0229  0.0784
23044W        W39178  12.826  16.097  13.382  0.2261  0.0783 -0.3885
23045W        W39179   6.593  14.696  13.424 -0.0218 -0.2077 -0.0176
23046W        W39180   5.852  15.406   4.693 -0.0760 -0.2210 -0.0805
23047W        W39181  15.189   1.206   4.984 -0.4350  0.1506 -0.1102
23048W        W39182   7.177   8.488   5.045  0.0602  0.4008  0.0212
23049W        W39183   1.712  14.317  11.481  0.0068  0.2194  0.1194
23050W        W39184  14.813   4.286   2.596 -0.1384 -0.0337  0.1955
23051W        W39185   6.937   7.935  15.003 -0.1976 -0.0678 -0.0560
23052W        W39186   1.080  15.692   2.028 -0.1504 -0.2182  0.0636
23053W        W39187  12.242  10.254   1.390  0.0434  0.0251 -0.1109
23054W        W39188   5.066   0.715  16.173  0.0291  0.2575 -0.0849
23055W        W39189   7.032   4.271   1.069 -0.0233  0.0860 -0.0953
23056W        W39190   9.184   1.721  14.622 -0.1047 -0.1637 -0.1346
23057W        W39191  13.896  14.066   2.782 -0.1812  0.3507 -0.0841
23058W        W39192   7.691  16.875   2.063 -0.2712  0.0285 -0.4137
23059W        W39193  10.438   3.974  11.476  0.0733 -0.0281 -0.2983
23060W        W39194   8.731   1.694   3.765 -0.0334  0.1273  0.1382
23061W        W39195   2.536  11.375   2.158 -0.0403  0.3748 -0.0528
23062W        W39196  15.501   8.565   2.706  0.1269 -0.2941 -0.1668
23063W        W39197   1.538   5.537   3.208  0.2941 -0.0586  0.0381
23064W        W39198   3.293   6.040  13.863  0.1846 -0.0346  0.2702
23065W        W39199   2.990  10.203   2.073 -0.0901 -0.3787 -0.1337
23066W        W39200   6.720  15.231   5.254  0.2526 -0.0112  0.1487
23067W        W39201   8.223  15.236  13.680 -0.1031  0.0817  0.1529
23068W        W39202   5.894  16.918  14.137 -0.0514 -0.0795  0.0428
23069W        W39203   1.273   7.371   1.687 -0.0827 -0.1634 -0.3261
23070W        W39204   7.907  13.737  15.828 -0.0232 -0.2912  0.0055
23071W        W39205   0.723   5.321  15.198  0.0817 -0.0408  0.0156
23072W        W39206  14.889   6.281   5.458 -0.2062  0.2712 -0.2467
23073W        W39207   2.287   3.203   0.805  0.0462  0.0634 -0.1546
23074W        W39208   1.158  11.192   4.916  0.0668  0.1150 -0.0340
23075W        W39209  12.627  14.588   2.539  0.2506 -0.0412  0.2238
23076W        W39210   3.168  12.024   4.228 -0.0496 -0.1745 -0.2980
23077W        W39211   4.364   7.134  15.522 -0.1040 -0.0901  0.0899
23078W        W39212  15.417   9.331  13.379 -0.0637 -0.1460 -0.0454
23079W        W39213   2.804   4.681  10.865  0.2802  0.2815  0.0917
23080W        W39214   8.393   9.563   5.573  0.1762 -0.0986 -0.1698
23081W        W39215   9.319   4.445  15.694 -0.3076  0.0967 -0.1525
23082W        W39216  17.355  16.069   1.819 -0.2174 -0.0713 -0.4510
23083W        W39217  11.328   1.019   3.632 -0.0008  0.0224  0.1367
23084W        W39218  13.355   3.678   2.267 -0.2628  0.0289  0.0209
23085W        W39219   7.337   0.716  16.382 -0.1607 -0.5368  0.0900
23086W        W39220  12.722  10.178  15.666  0.2326  0.0498 -0.0899
23087W        W39221  12.087  10.789   2.131  0.1124 -0.0110 -0.3033
23088W        W39222   7.814   5.163  13.800  0.0032  0.3296  0.1543
23089W        W39223   2.710   4.080   3.074  0.1350  0.3200  0.2601
23090W        W39224  13.662   3.848   5.704  0.1016  0.3461  0.1511
23091W        W39225  15.755  12.983   0.953 -0.0345 -0.1974 -0.2112
23092W        W39226  16.592  10.635   1.750 -0.0863 -0.0358 -0.0411
23093W        W39227  16.825   6.614   4.945 -0.0352 -0.2304  0.0705
23094W        W39228   8.841   6.820   1.359  0.1850 -0.0579  0.0389
23095W        W39229   9.485   0.218  16.239 -0.1303 -0.0945 -0.0588
23096W        W39230   4.885   4.606  11.613  0.0916 -0.0447  0.1275
23097W        W39231   5.920  11.017   0.366 -0.1891  0.1581  0.2643
23098W        W39232   9.865  14.118   5.373 -0.2151  0.2145  0.2047
23099W        W39233  12.795  11.455   4.023 -0.1053  0.0280  0.0357
23100W        W39234   8.218  13.950   1.183 -0.0238  0.1050  0.3176
23101W        W39235   9.602  17.531   4.736  0.2418 -0.0161  0.1991
23102W        W39236   8.360  17.033   4.516  0.1661 -0.0435 -0.4057
23103W        W39237  16.480   7.730  12.938  0.1982 -0.0199  0.0501
23104W        W39238   6.965   9.035   1.844  0.1615  0.3617 -0.1031
23105W        W39239   4.991   4.867  14.967  0.2498 -0.2855  0.0236
23106W        W39240   5.955   9.222   3.654 -0.0010 -0.3010  0.2612
23107W        W39241  16.479   6.896  11.411 -0.1166 -0.2916 -0.0251
23108W        W39242   8.499   1.616  11.890  0.1233  0.0151  0.0717
23109W        W39243   8.404  10.991  14.433  0.0742  0.4305 -0.2009
23110W        W39244  14.589  11.650   3.768  0.0956 -0.2984  0.3642
23111W        W39245  10.254   1.342   4.635 -0.1696  0.0478  0.0724
23112W        W39246   3.817  14.692  12.985 -0.1064  0.1096  0.0448
23113W        W39247  14.596   1.410  12.798 -0.0566  0.1988  0.0489
23114W        W39248  15.988  17.412  15.693  0.1695  0.1318 -0.0316
23115W        W39249   0.947  17.167   4.878 -0.1314  0.1056 -0.1505
23116W        W39250   6.342  11.307  14.807  0.1746 -0.1894 -0.0296
23117W        W39251  10.944  10.935   4.381 -0.2388 -0.2052  0.0018
23118W        W39252  10.467  16.968  12.658  0.0113 -0.0719  0.0619
23119W        W39253   5.934  10.973  13.101  0.1058 -0.0868 -0.3427
23120W        W39254   7.216   9.032  15.509  0.0678  0.1916 -0.0941
23121W        W39255   5.514  10.616   2.623 -0.1983 -0.2862 -0.0227
23122W        W39256  16.488  18.074   5.490  0.0339  0.3310  0.1527
23123W        W39257  11.364  10.071  15.505 -0.1426 -0.1323  0.1037
23124W        W39258  18.052  12.101   3.668  0.2376 -0.0651  0.1064
23125W        W39259   9.002  15.539   4.488  0.0696  0.2273 -0.1279
23126W        W39260   5.407  13.222  11.520 -0.0861  0.3855 -0.0544
23127W        W39261   5.096  12.744   0.476 -0.0619  0.1116 -0.1359
23128W        W39262   2.020  11.341  13.666  0.1032  0.0054 -0.1094
23129W        W39263   0.667   4.134  16.378 -0.0534 -0.2223  0.2522
23130W        W39264  14.290   2.928   1.655 -0.0388 -0.0440  0.0492
23131W        W39265  17.178  11.397  15.722 -0.0191 -0.1391  0.1336
23132W        W39266   4.048  13.162  14.188  0.0351 -0.2362 -0.1786
23133W        W39267   7.338   1.729  14.917 -0.1527 -0.1243  0.1783
23134W        W39268  12.141  11.117   4.933  0.2370 -0.0467 -0.0624
23135W        W39269   3.793  15.434   2.691 -0.1186  0.0142 -0.0774
23136W        W39270  11.028   1.169   1.795 -0.1433  0.3239 -0.1057
23137W        W39271  16.636   8.031   5.058 -0.0951  0.0203  0.2500
23138W        W39272   4.694   9.754  15.298  0.1203 -0.1984 -0.2037
23139W        W39273  13.535   7.786   3.109 -0.1010  0.1165  0.3571
23140W        W39274  12.920   9.319   2.832 -0.0812  0.1107  0.3776
23141W        W39275  14.059  13.352   2.342 -0.0966  0.0144 -0.0717
23142W        W39276   2.791  16.424  12.535  0.0178 -0.2502 -0.1444
23143W        W39277  11.208  15.346   4.793  0.3540 -0.0737  0.0089
23144W        W39278  11.742   2.009  10.719 -0.0723  0.0010 -0.1582
23145W        W39279   3.077   9.289  13.900  0.1526 -0.0067 -0.1315
23146W        W39280  16.532  14.348  13.694  0.0305 -0.3473 -0.0032
23147W        W39281   1.878  16.152  16.229 -0.0018 -0.3877 -0.2862
23148W        W39282   9.395   5.854   4.027 -0.1072 -0.4683 -0.0004
23149W        W39283  14.160   3.725   3.085  0.2114  0.0967 -0.3429
23150W        W39284   9.457   2.450  12.175  0.0254  0.2065  0.0772
23151W        W39285  15.736  14.632  12.314 -0.3001  0.0715 -0.3023
23152W        W39286   8.301   5.876  13.598 -0.0744 -0.1318 -0.1133
23153W        W39287  15.137   3.123  13.273  0.3261  0.0489  0.0843
23154W        W39288  13.939  13.243  11.948  0.1077  0.0909 -0.1044
23155W        W39289   9.960   5.677  16.047  0.0071  0.1713 -0.0345
23156W        W39290  17.741  11.142  10.961 -0.0850  0.2302 -0.0633
23157W        W39291   7.979  10.730  14.350  0.0001 -0.0867  0.0854
23158W        W39292   5.468  12.838  14.814 -0.1261 -0.2934 -0.1128
23159W        W39293   5.411   1.877  13.266 -0.3137  0.1544 -0.0309
23160W        W39294   9.384   7.033   4.565 -0.1618  0.0216  0.0073
23161W        W39295  13.144   6.226   4.561 -0.3044  0.0149  0.1503
23162W        W39296  14.495  13.795   3.446  0.0354  0.0650  0.2203
23163W        W39297   5.297  16.251   5.394  0.2070 -0.2662 -0.0387
23164W        W39298   8.346   3.866  12.733  0.0142 -0.2477  0.0346
23165W        W39299  14.480  17.383  14.074 -0.0901 -0.1495  0.0697
23166W        W39300  10.679  14.663   4.772 -0.3249  0.1184  0.0235
23167W        W39301  11.688   8.097  12.779  0.0284 -0.1569  0.0038
23168W        W39302  13.250  15.531   0.884 -0.0224 -0.1243  0.0648
23169W        W39303  12.874   4.244  13.465 -0.1180 -0.3949  0.4030
23170W        W39304   6.288   0.861  11.798 -0.3116 -0.2263 -0.2172
23171W        W39305   8.967  11.536   1.062  0.1463  0.1781 -0.1969
23172W        W39306  11.255   1.708   3.193  0.1627  0.1349  0.0554
23173W        W39307   0.694   7.034  14.093 -0.2444  0.3492 -0.3778
23174W        W39308   0.283   2.219  12.508 -0.2055 -0.1152 -0.0566
23175W        W39309  16.523   4.919  14.143 -0.4556 -0.0529  0.0948
23176W        W39310  12.986  10.267   3.531 -0.0766 -0.4347 -0.1973
23177W        W39311   3.859  11.928   0.991 -0.1274  0.1228 -0.1868
23178W        W39312   2.009   4.128  13.943  0.1089 -0.1315  0.0126
23179W        W39313   1.613   4.694  13.232  0.1979  0.3321  0.2372
23180W        W39314   6.359   3.189  10.745  0.0488 -0.1115  0.4029
23181W        W39315  12.761  15.159  12.627  0.0591 -0.0419 -0.2760
23182W        W39316  16.542  16.725   1.360 -0.2201  0.1126 -0.0648
23183W        W39317  17.165  14.758  15.338  0.0584  0.1032 -0.1590
23184W        W39318  10.947  13.768  14.007 -0.1408 -0.0522  0.1740
23185W        W39319  15.462  15.840   1.790  0.0808 -0.2682  0.1337
23186W        W39320  16.647  17.094   2.656  0.0314  0.1083  0.2035
23187W        W39321  17.405   3.820  14.110  0.1241 -0.1747  0.1359
23188W        W39322   7.581   7.235   4.714 -0.0036 -0.0114 -0.0112
23189W        W39323   2.056  14.864   1.329  0.1002 -0.2038 -0.2526
23190W        W39324   7.009  16.423   6.133 -0.0204 -0.0336 -0.0618
23191W        W39325  10.089   1.507  12.506  0.1260 -0.2206  0.2128
23192W        W39326   5.601  10.941   0.751  0.1675  0.2831 -0.4884
23193W        W39327  10.321   1.581  13.219  0.1564 -0.1498 -0.3779
23194W        W39328  12.742   6.158   0.244 -0.0833 -0.1693  0.0316
23195W        W39329   3.503   6.149   4.663  0.1118  0.5291  0.0015
23196W        W39330   3.415   9.837  12.972  0.1596 -0.0479 -0.0807
23197W        W39331  16.885  12.579   4.153 -0.0259  0.1656 -0.2807
23198W        W39332   4.832  13.972  12.446 -0.0361  0.1445 -0.0093
23199W        W39333   8.253   4.188  13.101 -0.0124  0.1238 -0.0090
23200W        W39334   7.961  11.969  13.772  0.1788 -0.0082  0.3000
23201W        W39335  10.621  10.945  12.431  0.4788  0.0902 -0.1667
23202W        W39336  13.093   4.775   0.422  0.1258  0.1707  0.0572
23203W        W39337   5.661   6.100  14.078  0.0337  0.3017  0.1896
23204W        W39338   0.896   7.015  12.781  0.0887 -0.0121 -0.4699
23205W        W39339  12.594  18.045  13.714  0.2855  0.1496 -0.0859
23206W        W39340   3.974  12.337   2.539 -0.0883 -0.0576 -0.1652
23207W        W39341   4.481   1.988  12.450 -0.2222 -0.0425 -0.1359
23208W        W39342  11.380  11.080   3.301 -0.1900  0.2811 -0.0047
23209W        W39343  13.197   2.995   1.076 -0.0073 -0.2442 -0.1116
23210W        W39344   4.217  17.766  10.881  0.1161  0.0596  0.1134
23211W        W39345   9.058   2.302  11.871  0.0205 -0.1046 -0.0696
23212W        W39346  15.960  15.602   1.093 -0.2131 -0.1264 -0.0019
23213W        W39347   5.582  13.611   5.360  0.2151 -0.0918  0.2575
23214W        W39348  10.206  16.484  10.681  0.1498 -0.0423  0.0386
23215W        W39349  13.304  13.699  12.936 -0.3137 -0.2136 -0.1703
23216W        W39350   7.893   0.715  10.674  0.2076 -0.1306 -0.0612
23217W        W39351   8.174   0.792  12.061 -0.0702  0.5635  0.0763
23218W        W39352   4.377  16.305   3.058  0.3629 -0.2141  0.0350
23219W        W39353   1.632  11.593   3.123  0.1683 -0.0121  0.1401
23220W        W39354   8.275  11.110  11.711 -0.0917  0.0418 -0.3575
23221W        W39355   3.600  15.442  16.379 -0.0297  0.2984  0.2464
23222W        W39356  12.694   3.570   0.553 -0.1081 -0.5097  0.0578
23223W        W39357   1.229  10.969  12.866 -0.0102 -0.3204  0.0545
23224W        W39358  14.026  13.447  13.840  0.0722 -0.0757  0.2277
23225W        W39359   7.291  15.765  16.086 -0.0045  0.1952 -0.5892
23226W        W39360   1.356   9.460   3.402 -0.1926 -0.2484 -0.2173
23227W        W39361  11.030  14.792  13.118  0.1106  0.1467 -0.2717
23228W        W39362  16.319  12.217   0.174 -0.0436  0.1260  0.0712
23229W        W39363   0.606   0.802   3.717  0.0039 -0.1065  0.1067
23230W        W39364  14.101   9.568   5.114 -0.2153  0.1296 -0.2055
23231W        W39365  13.177  17.927  15.017 -0.0097 -0.0912 -0.1119
23232W        W39366   1.934   0.879   3.828  0.0030  0.1457  0.0241
23233W        W39367  12.643   8.101   3.116 -0.1044 -0.0378  0.1908
23234W        W39368   3.036  12.076  12.351 -0.1451 -0.1698  0.1715
23235W        W39369  10.571  16.235  14.683  0.1778 -0.2263 -0.0593
23236W        W39370   1.599   9.259  14.780 -0.0290  0.2263 -0.0261
23237W        W39371  12.167  15.777   3.362 -0.0091  0.2606 -0.2531
23238W        W39372   7.912  16.593   5.047  0.1158  0.0921  0.1675
23239W        W39373   1.393  10.671  14.690  0.2011  0.0985  0.2494
23240W        W39374   5.583   2.618   0.293  0.2328 -0.2210  0.1147
23241W        W39375   1.519  12.529   3.014  0.0502  0.0808 -0.0419
23242W        W39376   8.026  16.719  11.259 -0.0221 -0.0312  0.1371
23243W        W39377  12.625   4.947  13.860 -0.0243  0.1668 -0.1532
23244W        W39378   1.024  17.435  15.130 -0.0644  0.1655 -0.1453
23245W        W39379   5.145  11.762  15.584  0.3000 -0.0268 -0.2199
23246W        W39380   2.483  14.979   1.471 -0.2709 -0.2195  0.1112
23247W        W39381   3.172   2.150  11.363  0.0793  0.0310  0.1216
23248W        W39382  11.293  13.660   5.283 -0.0987 -0.2138 -0.1692
23249W        W39383  17.558   7.233  11.861 -0.0894 -0.6680 -0.0166
23250W        W39384   8.854   5.406   3.423  0.1210  0.0067  0.0105
23251W        W39385  11.037  13.643   0.983  0.1837 -0.2205  0.1075
23252W        W39386  15.625   3.691  15.064 -0.2604 -0.4184  0.1313
23253W        W39387  16.223   4.632  15.388 -0.1205  0.0244 -0.1816
23254W        W39388   4.304   0.224  10.757  0.0049 -0.1555 -0.3426
23255W        W39389  13.008   9.463   5.090 -0.0361 -0.0049  0.0849
23256W        W39390   8.132   5.217   1.110  0.1922  0.0781  0.2019
23257W        W39391   5.516  14.099   5.033 -0.0482 -0.1387  0.2072
23258W        W39392   1.942  17.476  15.359 -0.3167 -0.2287  0.0014
23259W        W39393   7.296  12.356  11.833 -0.0711  0.0453  0.0522
23260W        W39394  15.874   0.485   2.325  0.1190  0.2574 -0.2887
23261W        W39395  11.968   6.923  13.548 -0.1881 -0.1143 -0.0774
23262W        W39396   3.191   8.036   3.345  0.0401  0.2161  0.2402
23263W        W39397  11.365   8.591   2.451 -0.2499  0.2299  0.0426
23264W        W39398  10.829   6.816   0.690  0.1644 -0.1394 -0.1438
23265W        W39399  16.946   4.147  16.345 -0.1913 -0.0576 -0.2158
23266W        W39400   9.883   1.193  15.420  0.2700  0.1030 -0.1239
23267W        W39401   1.272   7.237   4.900  0.0426 -0.0214  0.2162
23268W        W39402  13.359   6.174   3.197 -0.0066  0.0680  0.1210
23269W        W39403  16.770  13.405  15.915  0.0825 -0.3807  0.0016
23270W        W39404  17.006  14.419   4.408 -0.0653 -0.0135 -0.1001
23271W        W39405   8.690  16.057   1.289 -0.2818 -0.4270 -0.2414
23272W        W39406   8.973  17.009   3.421 -0.0225 -0.2336  0.0869
23273W        W39407   3.852  10.937  11.699 -0.0707  0.3650 -0.1868
23274W        W39408   6.042   0.333   3.285  0.0948  0.0601 -0.0609
23275W        W39409   8.497  13.194   4.616 -0.0585 -0.3127  0.0390
23276W        W39410  15.814  13.210  15.185  0.1786  0.0300  0.2867
23277W        W39411  11.231  15.980   4.186  0.1248  0.0356  0.0656
23278W        W39412  18.059   4.981   5.005 -0.0463 -0.0061 -0.0725
23279W        W39413   8.206  17.030  11.889  0.0057 -0.0017 -0.2422
23280W        W39414   4.335  18.017   2.443 -0.2602 -0.1594 -0.0961
23281W        W39415   2.214   4.237   2.210  0.0031 -0.1112 -0.2173
23282W        W39416  12.069   3.114  16.386 -0.1972  0.1169 -0.1225
23283W        W39417   7.927   9.294  14.340 -0.1203 -0.3608 -0.1274
23284W        W39418   6.538   0.787  15.925  0.1662 -0.1055  0.0627
23285W        W39419  15.967  13.287   4.823  0.0086 -0.0348 -0.0989
23286W        W39420   5.927  10.470  13.128  0.0340  0.0782 -0.0691
23287W        W39421   1.268  11.834   0.135  0.2752  0.0257 -0.3069
23288W        W39422   0.907  10.278  15.866 -0.2331  0.2928  0.0372
23289W        W39423   3.595   5.605  16.396 -0.2918 -0.1656  0.2332
23290W        W39424   7.544   2.711  13.464 -0.0836 -0.0328 -0.0257
23291W        W39425  15.807   7.612  13.519  0.1013  0.1503 -0.1682
23292W        W39426  17.147  15.789   2.207  0.2974  0.2980 -0.0934
23293W        W39427  17.450  13.503  12.738  0.2661  0.1891  0.2988
23294W        W39428   4.084  11.773   3.610 -0.0602 -0.1445 -0.1145
23295W        W39429   5.457   1.731  13.722 -0.0031 -0.1913  0.4337
23296W        W39430   5.390  14.611   4.244 -0.1266  0.1741 -0.0875
23297W        W39431   2.077   5.905  16.030 -0.0806  0.1009 -0.0862
23298W        W39432  15.824  10.801   3.807 -0.0848  0.0949 -0.1954
23299W        W39433  15.897   0.379   0.792 -0.0838 -0.1816 -0.4033
23300W        W39434  12.517   5.330   3.412  0.0005 -0.0924  0.1098
23301W        W39435  14.141   9.118   4.204  0.1093  0.4208 -0.2368
23302W        W39436  12.011   4.530  13.042  0.0425 -0.2901  0.0345
23303W        W39437   7.733  12.066   2.170  0.0645  0.2907 -0.1692
23304W        W39438  17.284  11.764  14.663  0.0280 -0.3063 -0.1196
23305W        W39439  17.673   3.620   4.042 -0.1913 -0.1473  0.1266
23306W        W39440   7.962  10.222  13.334  0.0753 -0.2868  0.1351
23307W        W39441  14.567  17.214   0.657 -0.0533  0.1021 -0.0947
23308W        W39442   1.109   8.547   0.543  0.1410  0.0839  0.0657
23309W        W39443   3.292   1.743  11.800  0.0093  0.1681 -0.2636
23310W        W39444   9.797  17.087   2.628  0.2825  0.2250 -0.1310
23311W        W39445   0.507  14.447  11.152  0.2585  0.1700 -0.2101
23312W        W39446  13.065   1.014   4.455  0.0960  0.0903  0.2672
23313W        W39447   2.871  11.886  11.218  0.2276 -0.1227  0.3474
23314W        W39448   5.997   6.167   1.325 -0.0140  0.0368 -0.1268
23315W        W39449   5.781  11.094  14.244  0.4461  0.1170  0.0212
23316W        W39450   1.308   2.764  13.910 -0.1562  0.1115 -0.0545
23317W        W39451   5.556   4.259  11.588 -0.0186 -0.0109  0.2582
23318W        W39452   4.241   0.745  11.838  0.1110  0.1667  0.0077
23319W        W39453  12.172  15.232  11.831  0.0543  0.2614 -0.0444
23320W        W39454   7.122  16.713   2.921 -0.1579  0.1735 -0.0644
23321W        W39455   6.476  16.588   5.427 -0.1364  0.1073  0.2216
23322W        W39456  16.005  14.549   4.189  0.0129 -0.2226  0.0426
23323W        W39457  15.248   5.858  11.863 -0.2370  0.0668 -0.1664
23324W        W39458   4.487  15.507  11.395  0.0546  0.1896 -0.2347
23325W        W39459   0.215   1.333   1.433 -0.1064  0.1887 -0.0611
23326W        W39460  12.536   1.458  14.412 -0.0351 -0.6160  0.1888
23327W        W39461   1.844  10.434  13.342 -0.0155  0.0018 -0.0987
23328W        W39462  14.197  12.192  13.755  0.1327 -0.0388 -0.0414
23329W        W39463   5.170   7.312  12.510  0.3558 -0.2529  0.1015
23330W        W39464   3.077   5.867   3.589  0.1731  0.0568  0.0528
23331W        W39465  10.143  10.257  11.997  0.0090  0.2096  0.2356
23332W        W39466  13.489  13.887   3.770  0.1066 -0.0667  0.0942
23333W        W39467   5.991   2.909  12.232 -0.1183 -0.1367 -0.2963
23334W        W39468   2.271  10.217   5.065  0.2714  0.0055  0.0553
23335W        W39469   7.447   5.704  14.493  0.0734 -0.1686 -0.1925
23336W        W39470   1.114  16.728  12.599  0.0047 -0.2896 -0.0198
23337W        W39471   1.708  11.792  12.165  0.0686 -0.2301  0.1747
23338W        W39472   0.831   5.484  11.872  0.3578 -0.3604  0.0903
23339W        W39473  10.233   6.336   0.490 -0.0679  0.1809 -0.1938
23340W        W39474  11.664   9.081  13.792  0.1515  0.1420 -0.1285
23341W        W39475   6.822  12.688  14.417 -0.1751 -0.0702 -0.2218
23342W        W39476  12.753   5.318  14.525  0.0284 -0.3421  0.1996
23343W        W39477  11.892  16.244   4.896  0.0676  0.0806 -0.0978
23344W        W39478   5.295  10.330  11.157  0.0848 -0.1010 -0.0308
23345W        W39479  13.750  12.334   3.356  0.0400  0.1259  0.3269
23346W        W39480  12.595  14.682  15.424  0.3046 -0.0244 -0.0943
23347W        W39481  10.615   1.003   2.139  0.2108 -0.3105 -0.0083
23348W        W39482   8.261   6.952  16.095 -0.3687 -0.2135 -0.0701
23349W        W39483   7.943   1.499   2.835 -0.0546  0.0733 -0.2332
23350W        W39484  13.597  14.947   3.407 -0.0088 -0.0344 -0.1445
23351W        W39485   9.818  14.792  15.476 -0.0152 -0.0886 -0.2526
23352W        W39486   5.358  14.060   1.973  0.2735 -0.3480 -0.0879
23353W        W39487   9.473  14.458  10.807  0.1505 -0.0299  0.2380
23354W        W39488   6.908  10.336  14.530 -0.4446 -0.0113  0.3158
23355W        W39489  15.595  16.994  15.718 -0.0788 -0.2044  0.5580
23356W        W39490   2.396   2.336   1.089  0.1237 -0.1587  0.2719
23357W        W39491   7.932   3.670   1.571  0.0049 -0.0331 -0.3531
23358W        W39492   7.083  14.175  14.151 -0.7003  0.0272  0.1450
23359W        W39493  16.449  14.216   2.834  0.5237 -0.0598  0.0189
23360W        W39494  12.028   8.913   4.177  0.1180  0.2293  0.0721
23361W        W39495   7.410  11.100   6.072 -0.0238  0.1758 -0.4920
23362W        W39496   9.345   8.851   4.152  0.0595 -0.1089  0.0125
23363W        W39497  13.592   5.126   4.049 -0.0215 -0.3133 -0.1761
23364W        W39498   0.300   1.990   3.050 -0.0882  0.1146  0.2433
23365W        W39499   1.276   9.491  10.400  0.0617  0.0075  0.1532
23366W        W39500   7.290  10.486   5.564  0.0416 -0.0130  0.2002
23367W        W39501  13.822   5.991   2.898  0.1717 -0.3038 -0.3486
23368W        W39502   9.100  10.112  14.171  0.0705 -0.0400 -0.0807
23369W        W39503   7.507  13.020  14.067  0.0867  0.0580  0.2414
23370W        W39504   7.822   9.372   2.073 -0.0673 -0.1838  0.0850
23371W        W39505  15.800   7.014   1.155 -0.1230 -0.0042  0.0990
23372W        W39506   9.735  14.649  15.958  0.2933  0.1465  0.1931
23373W        W39507  14.922   7.064  12.652  0.3821 -0.0855 -0.0579
23374W        W39508  14.399   7.569  12.144  0.4045  0.0864 -0.0610
23375W        W39509   8.072   7.655   0.673  0.0933 -0.2391 -0.1980
23376W        W39510   4.879   6.201   2.259 -0.0201  0.0505  0.3480
23377W        W39511   1.499  13.492   3.800 -0.0255  0.1047  0.0016
23378W        W39512   8.862  15.058   1.551  0.1446  0.1959 -0.3992
23379W        W39513   4.385  13.960  12.202 -0.1811  0.0041 -0.0596
23380W        W39514   5.508  17.244   1.878 -0.1782 -0.1202 -0.0542
23381W        W39515   1.848   4.972  13.544  0.0617  0.2104  0.0927
23382W        W39516  14.493   4.203  15.525  0.0602 -0.0040  0.0807
23383W        W39517   6.064   7.022   1.651 -0.2684 -0.2381 -0.0680
23384W        W39518  17.241  11.844   3.396 -0.0630 -0.0142 -0.1458
23385W        W39519   6.309  13.944  10.423 -0.4271  0.2135  0.0192
23386W        W39520  10.621   2.900   3.903  0.0125 -0.0251  0.0306
23387W        W39521   7.074   0.159   2.049  0.0931  0.0268  0.1843
23388W        W39522   4.083  15.961   1.636  0.0847  0.0611 -0.2216
23389W        W39523  17.269   5.905   4.431 -0.0886  0.1227 -0.1181
23390W        W39524   9.600  10.699   0.133  0.2275  0.0871 -0.0117
23391W        W39525   4.611   2.594  14.289 -0.1043  0.1157 -0.2039
23392W        W39526   4.544   7.004   3.255  0.2232 -0.1075 -0.0499
23393W        W39527  16.509   1.470  12.120 -0.1522  0.1903  0.1984
23394W        W39528  15.034   5.220  10.670  0.0702  0.1407 -0.0620
23395W        W39529  15.643  16.264   3.498  0.1501  0.1005 -0.1754
23396W        W39530  12.222  10.229  15.836 -0.0285 -0.0922  0.1502
23397W        W39531   2.564   4.668  11.395 -0.0799 -0.0559 -0.3563
23398W        W39532   9.040   7.768   2.164  0.1133  0.1527 -0.1724
23399W        W39533   5.379   5.986  12.127  0.0574  0.1294 -0.3130
23400W        W39534  10.463  12.285   3.211  0.3164 -0.2038  0.2720
23401W        W39535   0.079  11.586   3.642  0.0092 -0.0042 -0.0333
23402W        W39536   6.720  16.922  13.648 -0.1031 -0.0160 -0.0222
23403W        W39537   0.318   5.384  10.778 -0.0931  0.0948  0.0463
23404W        W39538   7.758   5.388   5.067  0.1865 -0.0830  0.0142
23405W        W39539   7.487   1.397  14.029  0.0142 -0.1677  0.2387
23406W        W39540  13.678   2.487   2.566 -0.0528  0.0869  0.1598
23407W        W39541   5.743  10.107   1.019 -0.1390 -0.1617  0.2487
23408W        W39542  14.995  14.183   5.140  0.1286  0.2738  0.1563
23409W        W39543  15.729  13.535   3.861  0.0496  0.0538  0.0028
23410W        W39544  13.697  15.313  13.798 -0.0170 -0.0329  0.1401
23411W        W39545  10.550  13.011   2.525  0.0280 -0.4364  0.2808
23412W        W39546  12.194   7.742  15.162  0.2760  0.1158  0.0686
23413W        W39547  17.698   8.448   3.056  0.2598  0.0065  0.1257
23414W        W39548  16.493   1.591   0.227 -0.1112  0.1133 -0.2357
23415W        W39549   5.051  16.419  14.021 -0.3281 -0.0115  0.1798
23416W        W39550  17.138  10.938   2.284 -0.2188 -0.0909 -0.1313
23417W        W39551   1.161  15.475  12.840  0.1300 -0.2003  0.5024
23418W        W39552  11.856   1.874   4.520  0.0128  0.0951 -0.0849
23419W        W39553   6.804  14.558  14.173 -0.0249 -0.0002  0.2007
23420W        W39554   9.813   3.592   2.501  0.0776  0.0371 -0.0432
23421W        W39555   8.536   4.792  11.472 -0.0518 -0.3892 -0.2265
23422W        W39556   6.170  16.622  14.544  0.0095  0.0288 -0.2716
23423W        W39557  15.386   6.588  15.802  0.4523  0.0932  0.0390
23424W        W39558  10.703  11.153   5.784 -0.4112 -0.2519 -0.3321
23425W        W39559   1.560   1.928   0.834  0.0029 -0.0625  0.1717
23426W        W39560   4.330  16.331  14.213  0.1069  0.0810 -0.0901
23427W        W39561   8.630  14.602  14.187 -0.1295 -0.0927 -0.3591
23428W        W39562   2.911   6.041   0.136 -0.0651 -0.0809 -0.2951
23429W        W39563   4.162   3.448  14.078 -0.1311 -0.2706  0.0282
23430W        W39564   5.508  14.416  13.585 -0.0768 -0.0963  0.1085
23431W        W39565  14.890   8.921  12.707  0.0807 -0.1518 -0.0525
23432W        W39566  15.975  17.416   3.152  0.0297  0.0726 -0.2631
23433W        W39567   5.499   2.580   3.893  0.1183  0.1443  0.3842
23434W        W39568   5.966  10.301  14.332 -0.1564 -0.0128 -0.2001
23435W        W39569   7.788  15.490  15.004  0.0390  0.0298 -0.2512
23436W        W39570  15.170   9.595   0.480 -0.0764  0.1880  0.1549
23437W        W39571  16.897  13.053   4.127  0.0385 -0.4243  0.0216
23438W        W39572  17.283   7.521  16.341  0.0521  0.4202  0.3126
23439W        W39573  16.409   7.113  15.051  0.1045  0.2531  0.0311
23440W        W39574  13.024   4.713   1.819  0.2373 -0.0152 -0.1993
23441W        W39575   7.231  16.220  14.636 -0.0029  0.3437 -0.2939
23442W        W39576   4.122   4.313  12.101 -0.2237  0.3022  0.2475
23443W        W39577   6.894  12.029   0.579  0.1070 -0.0489  0.0136
23444W        W39578   5.373   2.012   5.127  0.0890  0.0804 -0.1931
23445W        W39579   7.997   9.475   4.382 -0.0031 -0.0502 -0.2484
23446W        W39580   5.363  14.446  11.854  0.2155 -0.2967 -0.1134
23447W        W39581  12.936   6.710   3.352 -0.0734  0.1274  0.0933
23448W        W39582  12.122  15.563  16.296 -0.1928  0.0692 -0.1057
23449W        W39583  10.479  14.628   4.187 -0.0206 -0.0710 -0.1864
23450W        W39584   1.471  15.462   5.216 -0.1078  0.1935 -0.0681
23451W        W39585   3.926   7.899   5.556 -0.1441  0.2384 -0.0474
23452W        W39586   3.067   0.376   0.111  0.2024  0.0934 -0.1623
23453W        W39587  13.332  11.692   3.022 -0.2293  0.1415  0.2347
23454W        W39588   6.764   7.889   2.851  0.3801 -0.0161  0.0360
23455W        W39589   2.645   7.258  16.185 -0.0371  0.2494 -0.0234
23456W        W39590  11.315   9.454  16.149 -0.3698  0.0613  0.1294
23457W        W39591   6.218   7.394   1.978  0.1698 -0.0299 -0.2417
23458W        W39592   6.615   4.607   3.239  0.2563 -0.2267 -0.1956
23459W        W39593   4.614  13.123   3.678  0.0057  0.0504 -0.1119
23460W        W39594   8.702  16.602   4.669 -0.0747  0.0573  0.1507
23461W        W39595   5.952   5.873  15.936 -0.1663  0.0308  0.0333
23462W        W39596   9.662  14.981   1.106 -0.2828 -0.1281  0.1306
23463W        W39597   2.410  14.850   4.063 -0.0731 -0.1845  0.0304
23464W        W39598   6.098   0.057   2.806 -0.0789  0.1680  0.2377
23465W        W39599  15.099  17.362   5.544  0.3380 -0.0328 -0.0802
23466W        W39600   9.113  10.706  12.283 -0.0722  0.0450  0.2955
23467W        W39601   7.172  16.944  11.531 -0.1845  0.0578  0.2876
23468W        W39602  16.844  17.319  12.728 -0.1536  0.1069  0.0609
23469W        W39603  13.009   1.130  13.826  0.1898 -0.0382 -0.0550
23470W        W39604  16.712   3.739   5.920  0.0925 -0.0073 -0.1511
23471W        W39605  12.902   9.587  16.087 -0.0205  0.3181 -0.1282
23472W        W39606  10.956   7.652  15.756 -0.1900 -0.0790 -0.0928
23473W        W39607   8.963   6.594  11.888 -0.1103  0.1312 -0.0376
23474W        W39608   2.182   9.658  12.674  0.1816 -0.2124  0.0964
23475W        W39609  11.629  16.812   1.666 -0.0488  0.1411  0.1013
23476W        W39610  14.652   6.040  15.247 -0.0614 -0.0714 -0.2282
23477W        W39611   0.207  15.715  15.243 -0.1267  0.2107 -0.1860
23478W        W39612  17.286   4.758  12.382 -0.1397 -0.1042  0.0899
23479W        W39613  17.493  18.093  12.533  0.0741  0.0242 -0.0256
23480W        W39614  11.309  11.033   0.959 -0.1272  0.6681 -0.1218
23481W        W39615  16.284   2.060  12.083 -0.0450 -0.1746 -0.1411
23482W        W39616  17.539  10.304   3.983  0.3728  0.1505 -0.0224
23483W        W39617   4.532   0.713   5.502  0.1551  0.1966  0.3971
23484W        W39618   1.581   0.596  15.634  0.0196 -0.0400  0.0600
23485W        W39619   3.666  16.902  11.775 -0.1476 -0.0485 -0.1828
23486W        W39620   5.177   2.374  15.802  0.1314  0.0451  0.0192
23487W        W39621  10.459  13.071  10.277  0.2811 -0.0693  0.0234
23488W        W39622  10.866   9.029   0.761  0.1309 -0.1745  0.2814
23489W        W39623   5.661  17.171   2.907 -0.1194  0.4158  0.1153
23490W        W39624   8.218  10.292   2.357 -0.0159 -0.4731  0.0705
23491W        W39625  13.261   2.269  13.527  0.2387  0.2302 -0.2279
23492W        W39626   4.970   7.214   4.905 -0.0397  0.1093  0.1433
23493W        W39627   0.319  10.506   2.649  0.3340 -0.1007  0.0940
23494W        W39628   9.401  16.867  16.248 -0.1405  0.0881  0.2476
23495W        W39629   1.733  13.720  15.920 -0.3562 -0.1216  0.1021
23496W        W39630   7.582   6.498   1.116 -0.2425  0.0702  0.1884
23497W        W39631   9.041  12.499  14.625 -0.1917 -0.3328  0.3988
23498W        W39632   1.246  10.132   2.605  0.0936  0.1247  0.1049
23499W        W39633  10.332   7.614   5.411 -0.0041 -0.1208 -0.1943
23500W        W39634   8.502  11.566   0.871 -0.1332 -0.2766  0.0651
23501W        W39635  13.241   9.077   3.271 -0.1101 -0.1250 -0.1317
23502W        W39636   6.821   0.908  12.771 -0.3081 -0.2150 -0.1119
23503W        W39637   6.561  16.257   0.798 -0.1629  0.0114 -0.0142
23504W        W39638  14.732   6.026   1.469  0.0420 -0.1787 -0.1404
23505W        W39639   0.909  14.187   2.495 -0.2965  0.1254 -0.2144
23506W        W39640  12.013   2.072  14.802 -0.0087  0.2782 -0.0136
23507W        W39641   3.246  17.014  14.625  0.1791 -0.0748  0.2670
23508W        W39642   4.071   9.791   3.390  0.1503  0.2507 -0.0038
23509W        W39643  12.088  17.368  16.414 -0.0070  0.1566  0.1276
23510W        W39644  15.558   8.977  11.886  0.2518 -0.1219 -0.1259
23511W        W39645  10.055  15.533   3.791  0.1579 -0.1225 -0.2516
23512W        W39646   9.445  13.971   0.483  0.1512 -0.0259 -0.0183
23513W        W39647  15.291   3.429  15.370  0.1467 -0.0480 -0.0665
23514W        W39648  11.080   7.705  11.497 -0.2185 -0.0845 -0.5464
23515W        W39649  17.795  17.629  11.194  0.1106  0.0865 -0.3333
23516W        W39650   9.671  17.072   5.696 -0.4537  0.1484  0.2187
23517W        W39651  10.784   8.380  12.837  0.0147  0.1573 -0.2424
23518W        W39652  17.546  11.073   1.929  0.0260  0.2278  0.1308
23519W        W39653   7.392   8.116  15.338  0.2679 -0.3601  0.1136
23520W        W39654  11.209  17.765   4.269  0.0250  0.0144 -0.2237
23521W        W39655   7.755  15.861   4.284  0.1407  0.0644 -0.0353
23522W        W39656  12.708   9.688   4.217  0.0161 -0.1471 -0.0520
23523W        W39657  11.013  17.646  14.747 -0.2823  0.2677 -0.2141
23524W        W39658  16.809   1.140  14.008  0.1587  0.0203  0.0751
23525W        W39659   8.517   7.560  16.065 -0.0651 -0.4033  0.0063
23526W        W39660  10.596  17.202  11.425 -0.0428  0.1849 -0.2770
23527W        W39661   6.703   3.368  11.476 -0.0194 -0.3045 -0.1068
23528W        W39662  17.774   9.093   3.980 -0.0623  0.0128  0.2820
23529W        W39663   5.675   5.227  12.308 -0.0006  0.0721  0.1004
23530W        W39664   1.227  10.283   3.486 -0.0739 -0.0670  0.0977
23531W        W39665   9.254  17.486  14.558 -0.1672  0.2328 -0.0835
23532W        W39666   6.375   6.729   0.496 -0.1788  0.0697 -0.0180
23533W        W39667  15.835  13.374  12.871 -0.1917 -0.1310  0.0573
23534W        W39668   9.962  12.894  14.505 -0.1722  0.1724  0.0884
23535W        W39669  16.257   8.092  10.742  0.0869 -0.0075 -0.3535
23536W        W39670  15.032   0.592   3.887 -0.2288 -0.0444 -0.0734
23537W        W39671  16.381   1.199  15.138  0.0220 -0.0264 -0.4469
23538W        W39672  13.497  12.684  13.224 -0.0554 -0.0582  0.0111
23539W        W39673   9.457  17.963   1.608  0.0787  0.0482 -0.1443
23540W        W39674   3.615  17.355  14.645 -0.0279  0.0880  0.0174
23541W        W39675  10.129   2.733  12.965 -0.3912 -0.0879  0.0375
23542W        W39676   1.566   5.793   3.621 -0.1695 -0.0039  0.1909
23543W        W39677  10.909   7.304   1.082  0.0759  0.2372 -0.0840
23544W        W39678   5.468  11.922   0.390 -0.1971 -0.4030  0.0630
23545W        W39679  13.822  15.369   3.063  0.2106  0.1413  0.0283
23546W        W39680   7.191  16.524   5.628  0.2839  0.0315 -0.0184
23547W        W39681   0.254  12.223   4.812  0.2887 -0.1141 -0.0797
23548W        W39682   2.765  14.534  13.244  0.5304 -0.3543  0.1153
23549W        W39683   5.211   7.148  11.411 -0.2179 -0.0299 -0.1029
23550W        W39684   6.476   1.057   1.907 -0.2452  0.0109  0.2405
23551W        W39685   7.259   5.154   0.299 -0.1441  0.1440  0.1455
23552W        W39686   6.887   6.362  12.418 -0.0637 -0.1706  0.2630
23553W        W39687  14.962   3.553  11.063  0.2598  0.1980  0.1929
23554W        W39688   4.508   0.866   3.680  0.0326 -0.0992 -0.0183
23555W        W39689   5.922  14.783   4.090 -0.1244  0.1400  0.0601
23556W        W39690   0.429   8.664   3.128 -0.1753 -0.3282 -0.0415
23557W        W39691  16.479   9.796  12.409  0.1982 -0.0547 -0.0314
23558W        W39692   9.924   7.414   2.332  0.2049  0.0021  0.1760
23559W        W39693   7.283   5.903   3.255 -0.1649 -0.0171 -0.1019
23560W        W39694   1.159   9.897  11.843  0.2216 -0.0996 -0.2125
23561W        W39695  14.389   7.230   4.036 -0.3559 -0.2955  0.1789
23562W        W39696  12.613  10.811  12.712  0.0615 -0.0981  0.2802
23563W        W39697   6.195   4.347  14.311  0.2542 -0.0522  0.2108
23564W        W39698   1.358   0.479  11.749 -0.0515 -0.1109 -0.1152
23565W        W39699   8.671  17.318   3.074  0.2752  0.2492 -0.0037
23566W        W39700  17.358  13.840   3.180 -0.3117 -0.2067  0.0077
23567W        W39701  12.119  16.725   3.134 -0.0819 -0.0340  0.2107
23568W        W39702  10.073   2.681  11.378  0.0620 -0.0578 -0.0576
23569W        W39703   3.328   9.499   2.658  0.2055  0.0635 -0.1736
23570W        W39704  17.611   1.193   4.748 -0.0113  0.0917 -0.0108
23571W        W39705   2.490   0.992  12.292  0.1425 -0.0898  0.3151
23572W        W39706   1.695  13.183   5.155  0.0093  0.3022  0.1022
23573W        W39707   2.643  13.767  13.405 -0.0203  0.0886 -0.0272
23574W        W39708   2.231   0.678  11.995  0.2981 -0.1398  0.1345
23575W        W39709   9.190  17.546  11.450  0.1346 -0.1236  0.0143
23576W        W39710  17.690   7.702  12.112  0.0148 -0.1210 -0.0074
23577W        W39711  16.097   9.441  16.342 -0.3080  0.1917  0.2860
23578W        W39712   8.074  14.859   0.583  0.2918  0.0304  0.0617
23579W        W39713   6.414   4.540  14.921  0.0475  0.0111  0.1600
23580W        W39714   8.468   9.486  15.626  0.1773  0.2659  0.0012
23581W        W39715  10.522  14.978   3.145  0.0349 -0.1373  0.1405
23582W        W39716  13.914   7.250   4.252  0.1347  0.0721  0.0097
23583W        W39717  17.631  16.880   4.680  0.1542  0.2564 -0.0987
23584W        W39718   9.758   1.703  15.128  0.2524 -0.3378  0.0566
23585W        W39719  12.724   0.192   1.559  0.2476 -0.0805 -0.1476
23586W        W39720   4.179  14.065   5.711 -0.4209  0.2047 -0.1848
23587W        W39721  15.069  14.066   2.827 -0.1986 -0.0100  0.0703
23588W        W39722   9.715  13.560   3.989  0.3075  0.0302  0.3351
23589W        W39723   4.361  17.362  14.272 -0.0078  0.0619  0.0426
23590W        W39724  11.365   3.986  12.384 -0.2117  0.2263 -0.0407
23591W        W39725   3.094  10.290   2.595  0.1229  0.1333 -0.2579
23592W        W39726   9.189   8.275   0.086 -0.1584  0.2160  0.0990
23593W        W39727  13.721  15.533  15.089 -0.0465 -0.0848  0.0825
23594W        W39728   4.103  16.433   0.675 -0.1362  0.2792 -0.0738
23595W        W39729  17.573  17.496   2.640  0.0414 -0.0570  0.0727
23596W        W39730   6.622   8.045   2.379 -0.0506  0.1416 -0.0032
23597W        W39731  16.476  14.275  13.189  0.1859 -0.1885  0.0889
23598W        W39732  16.798  17.506  13.683  0.0057  0.2171 -0.2475
23599W        W39733  15.043   1.696  12.499 -0.0757  0.2677  0.0740
23600W        W39734   6.956   3.782  11.820 -0.2508 -0.0816 -0.3048
23601W        W39735  11.860  13.390   1.744 -0.2985  0.0242  0.2421
23602W        W39736   0.727   4.713  14.354  0.0416  0.1396  0.0542
23603W        W39737  13.295  17.747  10.686 -0.0189  0.0324  0.2466
23604W        W39738  16.191  10.914   1.999  0.1051 -0.0665 -0.1926
23605W        W39739   1.263   0.341   5.103 -0.0448  0.0183 -0.0108
23606W        W39740   3.822  11.049   5.290 -0.0788  0.0582  0.0755
23607W        W39741  15.783  13.793  10.245  0.1929  0.1734 -0.0424
23608W        W39742   2.218   6.075  15.006  0.2337  0.2853  0.0558
23609W        W39743  13.676  14.379  12.448 -0.0630  0.0523  0.0762
23610W        W39744   4.577   7.094  14.036 -0.2055  0.1786 -0.0686
23611W        W39745   6.659   8.161   0.926 -0.1575  0.1350  0.2367
23612W        W39746  12.071   0.042   3.346  0.0131 -0.0534  0.0038
23613W        W39747  13.319   7.246  13.467 -0.0695  0.0478 -0.1085
23614W        W39748  16.229  17.472  15.002  0.0461 -0.1190 -0.0713
23615W        W39749  12.535  15.256  14.363 -0.1761 -0.0143  0.0042
23616W        W39750   5.560   0.707  14.470 -0.4811 -0.3112  0.1637
23617W        W39751   8.940   9.770   2.295 -0.1980  0.1913  0.1139
23618W        W39752  10.641  16.324  15.241 -0.0494 -0.1087 -0.2296
23619W        W39753   7.978   6.597  14.708  0.0428 -0.0299 -0.1120
23620W        W39754  12.862  14.132  10.630 -0.2081  0.0709 -0.2248
23621W        W39755  15.944   4.359   2.194 -0.0448  0.0336 -0.0400
23622W        W39756   1.587   7.062  14.387  0.1998  0.2066  0.0196
23623W        W39757   3.829   4.105  11.561  0.0525 -0.2943 -0.1202
23624W        W39758   9.988  12.306   2.015  0.0834 -0.0537  0.0542
23625W        W39759  11.863  14.745   4.297  0.2030  0.1081 -0.0855
23626W        W39760   5.313   0.790   2.275  0.1995  0.1357 -0.2180
23627W        W39761   9.739   0.662  15.674  0.0264 -0.1923  0.1805
23628W        W39762  17.455   0.233   3.434 -0.1359  0.0161 -0.1773
23629W        W39763  15.428  13.167   5.104  0.0528  0.3155  0.1005
23630W        W39764   1.191  12.284  13.325 -0.3267  0.0594  0.2871
23631W        W39765  13.339  16.347  12.119 -0.0243  0.1150  0.4249
23632W        W39766   8.610  12.274  15.681  0.0006  0.2453  0.0423
23633W        W39767   4.149   1.343  15.303  0.1037 -0.2204 -0.1148
23634W        W39768   8.168   4.580   5.850  0.3439 -0.0888 -0.2418
23635W        W39769  11.565  16.918   2.726 -0.1006 -0.1183 -0.1576
23636W        W39770   8.703  11.339   2.252 -0.1497 -0.3430 -0.0558
23637W        W39771   9.755   8.358  15.774 -0.1311  0.0448  0.0269
23638W        W39772  14.277  17.647   1.575 -0.2006  0.3465  0.0740
23639W        W39773   5.572  12.716  11.708 -0.0295 -0.3014  0.0897
23640W        W39774  12.565   9.908   1.555 -0.1544 -0.3245 -0.1489
23641W        W39775   8.695  14.286  11.747  0.3116 -0.2469  0.0663
23642W        W39776   4.586   5.928  14.121  0.0907  0.1694 -0.2405
23643W        W39777  13.853  15.252   1.225  0.0196 -0.0778  0.0452
23644W        W39778   3.200   8.419   5.216 -0.0954  0.0553  0.3213
23645W        W39779  11.367   5.465   4.925 -0.0106 -0.0733 -0.2662
23646W        W39780   1.890   3.531   1.996 -0.1521 -0.2436 -0.3177
23647W        W39781  11.679  11.505  13.221  0.1668  0.0755  0.3607
23648W        W39782  12.608   9.012   3.066 -0.1191 -0.0022 -0.1461
23649W        W39783   2.351  12.626  14.894 -0.0314  0.0955  0.2178
23650W        W39784   7.182   8.647  13.639 -0.0710  0.1040  0.4861
23651W        W39785   3.092  17.436   0.771 -0.2534  0.1533 -0.0126
23652W        W39786   3.210   8.423   1.631  0.1199  0.0262  0.0026
23653W        W39787   1.795  12.789   4.833  0.3242 -0.0589  0.1064
23654W        W39788   9.389  13.875  11.587 -0.0068 -0.0966 -0.0593
23655W        W39789  13.066   0.975  11.859 -0.2464  0.0455 -0.0272
23656W        W39790   9.287  16.393   2.475  0.1459 -0.0156  0.1575
23657W        W39791  16.464  10.558   4.929 -0.0185  0.1122 -0.1205
23658W        W39792   5.296   2.522   0.815  0.1595 -0.2465 -0.1545
23659W        W39793   8.862  14.432   0.859  0.1796 -0.1272  0.2785
23660W        W39794   8.986   0.154   3.974 -0.3524 -0.1325 -0.0714
23661W        W39795  15.001  13.698  13.291 -0.2792 -0.1281  0.1381
23662W        W39796  17.588  17.720   4.724 -0.1531 -0.1043 -0.1728
23663W        W39797   7.259  18.063  10.856  0.0830  0.1396 -0.2762
23664W        W39798   8.979   1.565  16.278  0.0119  0.0261 -0.0590
23665W        W39799   7.040   7.170   4.757 -0.2847 -0.1069  0.1216
23666W        W39800   0.208  11.555  14.489 -0.0223  0.0058 -0.1203
23667W        W39801  11.592   1.481   2.071 -0.1997  0.0945  0.0442
23668W        W39802   4.464   8.488   3.103 -0.2324 -0.4016 -0.1084
23669W        W39803  10.921   3.567  13.842 -0.1115  0.2340  0.2445
23670W        W39804   8.092  11.377   0.634  0.1048  0.3322 -0.0642
23671W        W39805   2.385   8.717  12.158 -0.1712  0.2318 -0.0545
23672W        W39806   5.150   7.434   0.793  0.0311 -0.0816  0.3559
23673W        W39807   8.304   2.806  15.128 -0.1756  0.1108  0.2839
23674W        W39808  11.485   2.645   4.307 -0.2338  0.0783  0.2233
23675W        W39809   3.936   6.035   6.306 -0.1691 -0.3978  0.0599
23676W        W39810   2.026   9.825  10.908  0.4916 -0.2580 -0.0091
23677W        W39811   6.440  14.882   0.606  0.2444  0.0071 -0.1583
23678W        W39812  11.267   4.216  15.705 -0.1398 -0.2327 -0.1554
23679W        W39813  11.443   7.588  15.997 -0.0244 -0.2091  0.0362
23680W        W39814  14.509   4.866   0.380  0.0044  0.1200  0.0417
23681W        W39815   6.080  14.570   0.297  0.0773 -0.1775  0.0920
23682W        W39816   8.166  13.132   5.019  0.0511  0.1025  0.2762
23683W        W39817   3.081   5.855   4.088 -0.1801 -0.1467  0.0037
23684W        W39818   1.565   3.030  12.800 -0.1422 -0.2511 -0.1036
23685W        W39819  17.330   1.158  15.256  0.0187 -0.0187  0.0854
23686W        W39820  13.609  15.219   2.566 -0.2242  0.0074 -0.2989
23687W        W39821  10.368  11.359  14.337  0.0414  0.1048  0.1080
23688W        W39822   0.098   3.914   1.318 -0.0147  0.0881 -0.0622
23689W        W39823  16.061  11.597   2.658 -0.1166  0.2094  0.0573
23690W        W39824  14.584  12.373   3.753 -0.1025  0.1799  0.0821
23691W        W39825   4.766   3.786   5.051 -0.0356 -0.2613 -0.3084
23692W        W39826  15.305   3.486  11.971  0.1383  0.1450  0.0318
23693W        W39827  14.403  12.686   2.235  0.0403  0.0041 -0.0629
23694W        W39828  13.905  10.214  14.940 -0.3206  0.1147 -0.3674
23695W        W39829  12.684   9.494   1.116  0.2498 -0.0118  0.2777
23696W        W39830  12.856  17.194  13.641  0.0712 -0.0111  0.0808
23697W        W39831  17.284   9.583  12.311  0.2075  0.0873 -0.0401
23698W        W39832  14.101   3.099   0.887 -0.0482  0.0837  0.1112
23699W        W39833   6.232  13.016   2.630  0.2880 -0.1316  0.1883
23700W        W39834  15.467  14.529   1.439  0.0909 -0.1937  0.2196
23701W        W39835   0.371  11.729  11.264  0.0210  0.0665 -0.0802
23702W        W39836   1.765  10.951   0.353  0.1050  0.4732  0.0747
23703W        W39837   2.797   9.959   4.165 -0.0018 -0.1068  0.0753
23704W        W39838   5.038  12.852   3.285 -0.1652 -0.0419 -0.1335
23705W        W39839   2.805  14.590   1.384 -0.0352 -0.1728  0.0856
23706W        W39840   4.649  11.920  15.511  0.1219 -0.1833 -0.5183
23707W        W39841   8.600  10.913  10.785 -0.0671  0.1103  0.4797
23708W        W39842   2.445   3.048   1.384 -0.2421 -0.0409  0.2523
23709W        W39843   4.751  16.604   6.345 -0.0753 -0.3341  0.0615
23710W        W39844   1.813   9.074   0.663  0.0749  0.2544  0.0893
23711W        W39845  13.516  13.959   2.469  0.1544 -0.4469 -0.3239
23712W        W39846  16.893   2.421   2.737  0.1163  0.1610 -0.1151
23713W        W39847  11.603   8.600   3.068  0.1757 -0.0397  0.1431
23714W        W39848   7.796   5.979  13.236 -0.2059 -0.0433 -0.0039
23715W        W39849  10.422   1.106   0.930  0.0230 -0.0531 -0.1012
23716W        W39850  10.334   7.521  15.833  0.1080 -0.0750 -0.1478
23717W        W39851  18.035  17.047  13.831  0.3148 -0.0965  0.4017
23718W        W39852   4.328  14.460   2.434  0.0139  0.2329  0.2318
23719W        W39853   3.071   7.899  14.916  0.1623  0.0873 -0.0052
23720W        W39854  14.084   9.039   2.194 -0.2341 -0.1301 -0.0705
23721W        W39855   5.780   7.163   1.248 -0.1722  0.2668 -0.0286
23722W        W39856  12.290  15.752  13.549 -0.1378 -0.0466  0.0440
23723W        W39857  15.438  12.217   0.973  0.1103  0.1810 -0.2369
23724W        W39858   5.721   6.758  15.550  0.2668 -0.1199  0.2266
23725W        W39859   4.193  10.295   3.261  0.1481  0.0468 -0.0991
23726W        W39860  16.714   6.203   1.387  0.0074  0.1769 -0.1769
23727W        W39861   7.264  10.475   4.497  0.0316 -0.1794 -0.3182
23728W        W39862   0.260  11.915  13.229 -0.1091 -0.0148  0.0298
23729W        W39863   9.579   0.490  13.817  0.6366 -0.1833 -0.2508
23730W        W39864   2.691   8.191  11.494  0.0849 -0.0062 -0.2030
23731W        W39865   3.623  14.178   5.818  0.3987 -0.3662 -0.2055
23732W        W39866  10.626   5.602   1.074 -0.0312 -0.1816  0.0648
23733W        W39867   4.540  10.197  16.028  0.1668  0.3390 -0.0686
23734W        W39868   8.448  16.968  14.709  0.0504  0.0999  0.1735
23735W        W39869  16.888   2.472  13.909 -0.1564  0.0842  0.2768
23736W        W39870   3.888   6.207   0.653 -0.1085  0.0078 -0.3105
23737W        W39871  13.917  11.827   6.061  0.1827  0.0770  0.1596
23738W        W39872   4.832  13.289  15.294 -0.0784 -0.2595  0.1369
23739W        W39873  16.277   7.027   2.975 -0.0044  0.2808 -0.0157
23740W        W39874   0.864  14.202  12.996 -0.1384 -0.0668 -0.0901
23741W        W39875   3.369  14.078   1.979 -0.1272 -0.0782 -0.2149
23742W        W39876  13.448  14.406   4.625 -0.0018  0.0780  0.1363
23743W        W39877   9.740   1.131   2.425  0.1492 -0.2464  0.1391
23744W        W39878  10.708  12.271  14.716 -0.2905 -0.2501 -0.2884
23745W        W39879   2.994  14.845   3.577 -0.3109 -0.0621 -0.0003
23746W        W39880   4.616  15.713   2.757 -0.2880  0.1635 -0.1687
23747W        W39881   8.184   0.375  12.559 -0.1194 -0.1016 -0.0535
23748W        W39882   6.044   5.100  15.582 -0.1679  0.0129  0.0520
23749W        W39883   0.086  14.984  13.230 -0.2582 -0.0872 -0.0027
23750W        W39884  14.546   5.184  13.784  0.0120  0.0709  0.2300
23751W        W39885   8.381   1.072   4.530  0.0657  0.0285  0.2968
23752W        W39886   1.682  12.341   4.637  0.0013  0.0584 -0.1685
23753W        W39887  10.766  16.992  14.129  0.1074 -0.0349  0.2563
23754W        W39888  17.381  12.695   6.022  0.0376 -0.0633 -0.1083
23755W        W39889   6.177  12.765  15.229  0.1704  0.3291 -0.2131
23756W        W39890   7.078   2.507   5.743 -0.1447 -0.1350  0.0665
23757W        W39891   7.097   4.909   4.062  0.3970  0.0095 -0.3379
23758W        W39892   2.051   9.024  11.271  0.0076 -0.1677 -0.2563
23759W        W39893   9.016  16.875  12.037 -0.3130  0.0303 -0.2874
23760W        W39894   5.855   2.884  15.469  0.1852  0.1566  0.0427
23761W        W39895   4.314   4.719   2.900  0.1374  0.1279 -0.3344
23762W        W39896   8.272   2.262  12.922 -0.2687  0.2485  0.0423
23763W        W39897   0.486  17.535   3.571  0.0086 -0.1830 -0.1752
23764W        W39898   0.875  10.524   5.447 -0.4192  0.1323 -0.3183
23765W        W39899   7.834   9.277   0.248  0.0175  0.2803  0.1779
23766W        W39900  15.601  16.842  12.379  0.2220  0.3775  0.1922
23767W        W39901   1.074   5.271  15.533 -0.0956 -0.0701  0.2312
23768W        W39902  14.378   9.204   4.657  0.2297  0.0950 -0.1563
23769W        W39903  10.261   9.206  15.306 -0.3061  0.0406 -0.2298
23770W        W39904  18.024   7.311   3.918  0.0037  0.0956 -0.2226
23771W        W39905   6.998  13.562  11.855 -0.0892  0.0187  0.0909
23772W        W39906   8.140  16.941  12.738  0.0861 -0.2479  0.0492
23773W        W39907  10.576   6.950  13.198 -0.2707  0.0303 -0.0849
23774W        W39908   2.215   3.994  14.463 -0.5051 -0.1030 -0.0020
23775W        W39909  15.858   3.191   0.618 -0.0845  0.2715  0.1806
23776W        W39910   9.582   5.949   4.866  0.2779  0.0945  0.0869
23777W        W39911   8.331   9.695  12.176  0.1253  0.1158  0.0921
23778W        W39912   6.184   8.028   1.054 -0.0851  0.0775 -0.0745
23779W        W39913  16.155  13.343  15.637  0.0444  0.1351 -0.1029
23780W        W39914   6.553  11.819  12.152 -0.0688 -0.1452  0.2700
23781W        W39915   4.019   7.151  15.892  0.1072  0.1305 -0.0300
23782W        W39916  10.153  13.234  14.839  0.0552  0.0882  0.0262
23783W        W39917  13.264  12.131  11.474  0.0453 -0.0445  0.0464
23784W        W39918   7.919  13.174  11.638  0.0955  0.3472  0.0904
23785W        W39919   5.728   6.583   0.054  0.3433  0.0369  0.1183
23786W        W39920   6.680   6.984   5.065 -0.0355 -0.0495  0.0702
23787W        W39921   0.995   1.749  15.971 -0.3407  0.0028 -0.2635
23788W        W39922   0.732  10.885   5.036  0.1924  0.0691 -0.2312
23789W        W39923  13.242   2.969   1.661  0.1947 -0.0880 -0.1908
23790W        W39924  12.594   4.479  14.130 -0.0032  0.0571 -0.0997
23791W        W39925   1.880   4.687  11.033 -0.2046 -0.2179 -0.0954
23792W        W39926   4.118   2.127   5.622 -0.2874 -0.2455  0.2254
23793W        W39927  11.095   0.826   0.525  0.1404  0.0372 -0.2270
23794W        W39928   6.307   7.586  14.324  0.2184 -0.0235 -0.0780
23795W        W39929  12.373  15.555  14.002  0.1968 -0.0959  0.0065
23796W        W39930  16.397  15.164   3.234 -0.3713  0.0492 -0.2436
23797W        W39931  11.428   9.835   3.644 -0.2759  0.1615 -0.1612
23798W        W39932   2.822   7.151   4.943  0.0285  0.0316  0.1988
23799W        W39933  12.324   8.593   0.914  0.2369  0.0666  0.1731
23800W        W39934  12.005  12.834  14.608  0.2935  0.0432 -0.1638
23801W        W39935  17.993  17.771   4.230 -0.4963  0.2175  0.1439
23802W        W39936   2.579   5.710   3.802  0.0742 -0.0325 -0.1550
23803W        W39937  14.471   4.684   1.339 -0.3964 -0.1107 -0.3734
23804W        W39938  13.239  15.464  13.762 -0.1541 -0.1417  0.3248
23805W        W39939  11.179   2.239   4.543  0.1189 -0.0886 -0.1223
23806W        W39940   9.995   8.221  11.689  0.2523  0.0246 -0.1598
23807W        W39941  12.853  11.549   3.194  0.0388 -0.4759  0.2314
23808W        W39942  11.579   6.440  12.211 -0.1747  0.0215  0.1089
23809W        W39943   4.515  16.038  11.135 -0.3428  0.0035 -0.0238
23810W        W39944   0.964   2.133  13.289  0.0381  0.0133  0.2101
23811W        W39945  15.404  16.559   3.819  0.0729  0.0691  0.2152
23812W        W39946   9.726   8.178   3.532 -0.0063 -0.3964 -0.1108
23813W        W39947   9.195  11.457   2.428 -0.0517 -0.2267  0.0148
23814W        W39948   3.845   0.590   2.048 -0.0545  0.3180  0.0219
23815W        W39949   3.331   2.974  15.836  0.0021  0.0061  0.0909
23816W        W39950   9.429  17.229  10.724  0.3759 -0.2913  0.0693
23817W        W39951  10.839   3.076  13.727  0.0736 -0.1481  0.1250
23818W        W39952   1.733   4.806   3.645  0.1353  0.1771  0.0405
23819W        W39953  15.073   5.011  12.507  0.0179  0.0585  0.1122
23820W        W39954   6.705   9.065  14.123  0.2304 -0.2796  0.3003
23821W        W39955  12.410  17.674   2.328  0.1456  0.0391  0.2506
23822W        W39956   8.887  17.155  10.785 -0.2333  0.0116 -0.0595
23823W        W39957  11.513  13.845   1.231  0.0438 -0.3282  0.1354
23824W        W39958   0.552   5.580   4.072  0.0231  0.2801 -0.4685
23825W        W39959   8.676   0.781   0.143  0.0368 -0.2321  0.2103
23826W        W39960   3.045   7.649   1.836  0.1020  0.0081 -0.0672
23827W        W39961   4.155  14.449  13.821 -0.0496 -0.2808  0.1900
23828W        W39962  10.627   5.745   3.918 -0.1005 -0.0749  0.3875
23829W        W39963  16.324   5.636   3.362 -0.2537  0.3457  0.0450
23830W        W39964  16.728  10.762   3.992 -0.0408  0.2548  0.0420
23831W        W39965  11.121   5.160  15.459 -0.1367  0.0329  0.1853
23832W        W39966  15.305  16.420  12.234 -0.2697  0.0739  0.1345
23833W        W39967   3.655  17.575   5.213 -0.1222 -0.2781  0.3433
23834W        W39968   4.588   7.527   3.356 -0.0429 -0.0164 -0.1496
23835W        W39969  15.207   0.876  11.499  0.0567 -0.0237  0.3835
23836W        W39970   6.786   6.960   3.223  0.0228 -0.2638 -0.1302
23837W        W39971   1.900   3.710   1.481 -0.1567 -0.0622  0.0180
23838W        W39972   7.417   0.033   0.994  0.2985  0.0138 -0.0925
23839W        W39973  11.994  15.296   2.516 -0.0211 -0.1624  0.1356
23840W        W39974  11.549   2.219  11.473 -0.4160 -0.4103  0.0104
23841W        W39975  10.432   6.161   2.278  0.0681  0.1502 -0.2000
23842W        W39976  14.536  13.300  15.258  0.2864  0.1644 -0.1083
23843W        W39977  14.118   1.169   5.304 -0.0868 -0.0645 -0.2617
23844W        W39978  10.206   4.829  16.405  0.0524 -0.1035  0.2812
23845W        W39979  13.698  13.592   2.722  0.0232  0.0829 -0.0677
23846W        W39980  17.649  14.940  11.195  0.1446 -0.3489  0.0005
23847W        W39981   6.335  11.853   5.211 -0.1293  0.2553 -0.2451
23848W        W39982   6.355   9.225  14.431 -0.1667  0.0913  0.0152
23849W        W39983   6.631  12.205  14.473 -0.1496  0.1433 -0.1316
23850W        W39984   2.428   5.080   5.333 -0.0594 -0.0795 -0.2110
23851W        W39985   6.559   8.416  13.941 -0.1151  0.1845  0.2078
23852W        W39986   0.054  17.719  15.113 -0.0027 -0.0740  0.2680
23853W        W39987   7.197   8.739   0.808  0.1144  0.1481 -0.0172
23854W        W39988   9.240  15.361   1.260  0.0733 -0.0401 -0.1102
23855W        W39989  13.386   5.895  10.360  0.0018  0.0646  0.1275
23856W        W39990  16.050   9.248  13.271 -0.2170  0.3364 -0.0567
23857W        W39991  10.403   3.531  16.398 -0.1299 -0.1685 -0.4019
23858W        W39992   3.544   1.081   2.489  0.0021  0.0650  0.0771
23859W        W39993   8.158  12.873   3.219 -0.1388 -0.0599  0.0888
23860W        W39994   3.090   6.583   1.089 -0.2675 -0.1796 -0.0134
23861W        W39995   2.532   5.967  10.226  0.1768 -0.2301  0.2842
23862W        W39996  12.639   4.766   0.150 -0.1254  0.1684  0.1376
23863W        W39997   0.605  13.050   3.347 -0.0261 -0.2934  0.0981
23864W        W39998   4.402   6.001  13.697  0.1073  0.3383 -0.0068
23865W        W39999  16.965   4.379  12.260 -0.1210 -0.1789 -0.1713
23866W        W40000  12.648  17.059   0.755 -0.1270 -0.0391 -0.0675
23867W        W40001   5.263  17.301  16.163  0.1107  0.3992  0.3020
23868W        W40002  10.245   8.544  12.015 -0.0691  0.1716  0.1084
23869W        W40003  12.530   8.090  15.134 -0.3106 -0.0935 -0.1204
23870W        W40004   3.901  17.756   2.582 -0.1960 -0.1484  0.0163
23871W        W40005   0.844  11.711   0.526 -0.4851  0.1020 -0.2252
23872W        W40006  10.755  12.235   4.143 -0.0677  0.2047 -0.0256
23873W        W40007  13.823   6.135  15.710 -0.1030 -0.2943  0.1474
23874W        W40008  17.478   7.089   3.473  0.1942 -0.3065  0.0254
23875W        W40009  17.963  17.342   3.230 -0.5493  0.2859 -0.1939
23876W        W40010  11.620  10.265   3.775  0.1834 -0.0549  0.0162
23877W        W40011  12.186  13.269  14.518 -0.1004 -0.0529  0.1943
23878W        W40012   4.831   1.365   1.499  0.4425  0.4311  0.2136
23879W        W40013   9.459   9.733   2.306 -0.0868 -0.3442 -0.3180
23880W        W40014  10.424  17.554   1.448  0.0637 -0.1914  0.2101
23881W        W40015   3.150   8.512  14.952  0.3226  0.1921 -0.2391
23882W        W40016   5.526   8.938  14.646 -0.1334 -0.1212 -0.0721
23883W        W40017  16.675  18.017   3.579  0.3524 -0.0873 -0.1074
23884W        W40018  15.863   8.379   0.583 -0.0576  0.2499 -0.0756
23885W        W40019   3.482   8.591  14.288  0.0566 -0.2165 -0.0860
23886W        W40020  11.374  17.480   2.885  0.0870 -0.1575 -0.1229
23887W        W40021  16.268  10.628  14.340  0.0194 -0.2258  0.0207
23888W        W40022  16.084   6.921  11.801  0.3726 -0.0696 -0.2643
23889W        W40023  11.035  11.874  14.372 -0.1434  0.3654 -0.0995
23890W        W40024  11.328   9.083  11.696  0.1994 -0.0553  0.1392
23891W        W40025   8.542   2.763  10.704  0.4607  0.2634 -0.1229
23892W        W40026  11.798   4.737   3.389  0.0455 -0.0701  0.1381
23893W        W40027  12.740   8.655  13.545  0.1835 -0.0493  0.0172
23894W        W40028  17.034  12.792  12.859  0.1477 -0.1589 -0.0839
23895W        W40029  11.657   3.478  16.205  0.1320  0.0431  0.2228
23896W        W40030  12.936   4.212   2.587  0.1459  0.0246  0.0095
23897W        W40031  15.832  14.935  14.440 -0.1966 -0.0281 -0.0029
23898W        W40032   5.017   0.597  12.868  0.3782 -0.0748  0.0027
23899W        W40033   4.979  16.767  12.647  0.0996  0.0621 -0.3230
23900W        W40034  16.304   5.456   3.828  0.0927  0.0849 -0.0493
23901W        W40035   7.087   5.123  13.921  0.0292 -0.3300  0.1829
23902W        W40036   4.012   7.675   3.305 -0.1142  0.1237  0.0629
23903W        W40037   8.892  14.012   0.550 -0.0997  0.2590  0.0134
23904W        W40038  16.421  15.543  10.780 -0.0131 -0.1217 -0.1838
23905W        W40039   0.613   8.673   4.895  0.0666  0.0073  0.0551
23906W        W40040  14.944   3.565   2.141 -0.4246  0.0686 -0.0773
23907W        W40041  13.997  17.827  16.229  0.0394  0.0594  0.2423
23908W        W40042   4.271   9.645  10.340  0.2993  0.1253 -0.4764
23909W        W40043  11.257  13.227   4.965  0.1001  0.3190 -0.0887
23910W        W40044  12.791   8.544   3.084 -0.0427 -0.0518 -0.3121
23911W        W40045   7.978   7.476   4.996 -0.0426 -0.0787 -0.2608
23912W        W40046   6.507   4.689  12.808 -0.1074  0.1437 -0.3508
23913W        W40047   3.004  14.034   4.889 -0.0224  0.0047 -0.1431
23914W        W40048   4.917  16.452  13.080 -0.3278 -0.0662  0.1798
23915W        W40049  16.224   7.022  13.004  0.3081 -0.3836  0.0908
23916W        W40050   2.346   3.454   2.669  0.0861  0.0482 -0.4111
23917W        W40051   3.342  17.868   2.615  0.0795  0.2901  0.1099
23918W        W40052   0.449   0.740  13.294 -0.1649  0.1249  0.0775
23919W        W40053  17.118   2.414   4.156 -0.1100  0.0221 -0.0087
23920W        W40054  11.196   2.221  13.389  0.2234 -0.0066  0.2216
23921W        W40055  12.706   4.513  15.645  0.1171  0.1474  0.0076
23922W        W40056   6.212   2.646   3.354 -0.1272 -0.2386 -0.1201
23923W        W40057   3.436   3.560   0.960  0.2487  0.0895  0.0563
23924W        W40058   7.904  11.106  15.906  0.1554 -0.1718 -0.0076
23925W        W40059   1.168   5.565  12.210  0.1839  0.1278 -0.0347
23926W        W40060  16.279   4.422   5.100 -0.0180  0.1699 -0.2656
23927W        W40061  14.189  14.829  15.496 -0.0234 -0.1108 -0.2761
23928W        W40062   7.068   3.965   2.600  0.0167 -0.2022 -0.1823
23929W        W40063   9.318   3.061   4.118 -0.0625  0.0437  0.2354
23930W        W40064  15.649   3.149  12.717  0.2786 -0.2102  0.0686
23931W        W40065  14.604  17.377  13.227  0.2239  0.2663 -0.2776
23932W        W40066  17.619  13.615  14.802  0.2071 -0.0928  0.1281
23933W        W40067  12.352   3.786  12.807 -0.1202  0.1563  0.5942
23934W        W40068   6.827  15.471   4.142  0.1074 -0.0589 -0.0895
23935W        W40069   3.039  15.040  12.652  0.0672 -0.0795 -0.0541
23936W        W40070   2.210   3.794   3.921 -0.1573  0.4776  0.0320
23937W        W40071  17.006  11.850  12.979 -0.0261  0.0304 -0.0740
23938W        W40072  10.921   0.163  12.718  0.1549 -0.2773  0.0437
23939W        W40073   1.560  10.788   1.282 -0.1097  0.0686  0.0215
23940W        W40074  14.156   8.291  14.250  0.0493  0.0586  0.1096
23941W        W40075  13.626   7.957  13.017  0.2286 -0.3044  0.1044
23942W        W40076  11.783   8.448  15.015 -0.0922  0.4634 -0.2841
23943W        W40077  17.414   9.554  13.834  0.1957 -0.1607 -0.1916
23944W        W40078  10.200  14.142  13.820  0.2862 -0.3208  0.0368
23945W        W40079   4.559  12.066  13.507  0.1136  0.2292 -0.0058
23946W        W40080  16.688  13.949  11.547 -0.0460  0.1060 -0.1746
23947W        W40081  12.178  13.160   5.493 -0.0336  0.1173  0.5103
23948W        W40082  13.317  16.143   2.862  0.1487 -0.2377 -0.0547
23949W        W40083   5.684  10.847  11.326  0.1455  0.2765 -0.0519
23950W        W40084  11.219   4.404   1.196 -0.2630  0.2742  0.0151
23951W        W40085   2.202  13.601  13.215 -0.1823  0.1153 -0.1092
23952W        W40086  12.284  17.207   3.914 -0.1734 -0.0939 -0.1613
23953W        W40087   5.168   8.493   3.818 -0.0465  0.1043  0.2070
23954W        W40088  13.541   5.955   5.510 -0.1010 -0.3347 -0.0808
23955W        W40089  16.806  17.585   3.336  0.3410  0.0633 -0.1756
23956W        W40090   8.537   2.347   1.793  0.0294  0.0167 -0.3302
23957W        W40091  10.618  12.079   2.188  0.1588  0.0861 -0.1062
23958W        W40092   3.051  11.617  12.557 -0.0784 -0.0813 -0.0639
23959W        W40093  15.369   0.721  12.433 -0.0414 -0.0573  0.2318
23960W        W40094   6.299   1.123  14.362 -0.1006 -0.0535 -0.3419
23961W        W40095  12.276   9.053   5.290 -0.0902  0.1782  0.1208
23962W        W40096   4.438   9.934  13.260 -0.1480 -0.3261  0.3364
23963W        W40097   1.123   9.975  15.150  0.0060  0.0384 -0.1512
23964W        W40098  10.700  12.329  14.207  0.2276 -0.0537  0.1314
23965W        W40099  11.030  17.290   1.952  0.0188 -0.3512 -0.0073
23966W        W40100  17.680   3.071   3.929 -0.1247  0.1638 -0.1054
23967W        W40101   1.017  16.056  12.052 -0.0936  0.1342 -0.0986
23968W        W40102  10.713   1.460  10.082  0.3030  0.1504  0.0070
23969W        W40103   0.864   9.822  14.220  0.2591  0.2029 -0.2000
23970W        W40104   2.996   4.529   3.347  0.2867 -0.0681  0.1853
23971W        W40105   4.892  11.062  12.589 -0.0378 -0.0870  0.0769
23972W        W40106  10.551  11.558   2.249 -0.2768 -0.1703 -0.3998
23973W        W40107   5.796   3.216  13.094 -0.0155  0.1004 -0.1774
23974W        W40108   9.977   8.423   2.746 -0.1059  0.1432  0.1938
23975W        W40109   5.061  10.916   0.960  0.1642  0.2146  0.2029
23976W        W40110   3.481  12.267   3.320  0.1728  0.2449 -0.2289
23977W        W40111   0.523   4.577   1.964 -0.0150 -0.1499 -0.0925
23978W        W40112   5.182  14.510   2.104 -0.1422 -0.0161 -0.1694
23979W        W40113   0.256  15.956  13.079  0.0941  0.0762  0.1049
23980W        W40114  15.132  10.659  11.617 -0.0737  0.2053 -0.0621
23981W        W40115  12.940   3.099  14.659  0.0759 -0.1151 -0.0219
23982W        W40116   3.472   0.859  12.420  0.0368 -0.1007  0.2656
23983W        W40117  14.611  13.898   2.988 -0.2922  0.0364 -0.0633
23984W        W40118  10.295   7.761  11.593  0.0431  0.1125 -0.1933
23985W        W40119   5.063  13.985  14.607  0.1047  0.0029 -0.0552
23986W        W40120   9.925  16.176  15.865 -0.0881 -0.2383  0.0027
23987W        W40121   6.697  11.139  12.884  0.2887 -0.0843  0.0089
23988W        W40122   7.800  10.711   1.145  0.0477 -0.1017  0.0737
23989W        W40123   4.556   8.009   3.249  0.0590 -0.1855 -0.0588
23990W        W40124   1.815  11.222  14.523 -0.0682 -0.1063 -0.0276
23991W        W40125   9.749  15.992  13.036  0.3523  0.0996 -0.2264
23992W        W40126  14.741  14.497  10.260 -0.1910 -0.0575 -0.2774
23993W        W40127   9.085  14.880   1.132  0.2585 -0.1196  0.1116
23994W        W40128   6.376  15.631  14.835  0.0597  0.0239  0.3398
23995W        W40129  16.157   4.823   0.583  0.0657 -0.0218 -0.0188
23996W        W40130   8.307  11.144  12.211  0.0803  0.0279 -0.1771
23997W        W40131   6.829   1.535   6.299  0.0592 -0.0086  0.0069
23998W        W40132   8.660  10.808   1.597  0.1250 -0.0029 -0.0342
23999W        W40133   4.430   4.074   5.319  0.0137  0.0965 -0.1674
24000W        W40134   3.547  16.698  12.733 -0.0725 -0.0617  0.0274
24001W        W40135  16.506   6.947  14.276 -0.0323 -0.0456 -0.1788
24002W        W40136   5.529  12.371  14.551  0.0721  0.0858 -0.1275
24003W        W40137   5.871   6.089  15.452 -0.2820 -0.2633  0.0860
24004W        W40138   6.622   7.658   1.455  0.1062  0.0847  0.1129
24005W        W40139   3.740  12.056   4.809 -0.1170 -0.2817  0.1408
24006W        W40140  15.065   3.558   1.445 -0.2283  0.0251  0.0391
24007W        W40141  16.572  14.991  11.995  0.2330  0.3321 -0.0698
24008W        W40142  12.956   8.648   1.568  0.1620 -0.0692 -0.0019
24009W        W40143  18.035  14.207   1.260 -0.0303  0.1825 -0.2480
24010W        W40144   9.494  17.802  10.442  0.1188 -0.1376 -0.4683
24011W        W40145   4.155   4.629  14.515 -0.1466 -0.1979  0.0943
24012W        W40146   6.576  15.092   4.383 -0.2751 -0.0378  0.0852
24013W        W40147  11.977   5.528  13.267 -0.2258 -0.0792 -0.1017
24014W        W40148  10.948  10.815   3.558 -0.0006  0.3907 -0.1630
24015W        W40149  10.106  17.920   4.075 -0.1714  0.1167 -0.0391
24016W        W40150  11.289   1.215  12.288 -0.0103  0.2523 -0.2244
24017W        W40151   0.862   6.241  15.277 -0.1096 -0.0223  0.1554
24018W        W40152  17.762   4.016   2.190 -0.2319 -0.1800  0.0254
24019W        W40153  10.587   4.245   2.821  0.0846 -0.0568  0.0842
24020W        W40154  13.159  11.146   3.260  0.1260 -0.0845 -0.4289
24021W        W40155   0.590   5.000  11.891  0.0851 -0.0461  0.1500
24022W        W40156  12.807   5.417  15.547 -0.0299 -0.0613  0.1801
24023W        W40157  16.861   0.997   1.644 -0.1403 -0.0031 -0.1444
24024W        W40158   4.514   0.502  12.462 -0.1323 -0.1439 -0.0558
24025W        W40159  12.269   8.137   1.108 -0.3148 -0.3943  0.0751
24026W        W40160  16.982   1.231  12.784 -0.0887 -0.0241  0.1458
24027W        W40161  17.020   6.421   3.338  0.0450 -0.2307 -0.2245
24028W        W40162   4.982   3.296   2.710  0.1710  0.1043  0.2475
24029W        W40163   5.842   2.952   3.570  0.1457 -0.0088 -0.0698
24030W        W40164   5.840  15.136   3.791  0.0103 -0.0146  0.3448
24031W        W40165  14.797   7.805  13.831 -0.1627 -0.3516 -0.0695
24032W        W40166   3.058   9.376   4.774  0.1092  0.1364 -0.0655
24033W        W40167  10.099  17.147  15.705  0.0540 -0.0285 -0.1808
24034W        W40168  18.077   6.636  12.691 -0.0788 -0.0961 -0.0440
24035W        W40169   6.036  14.752   0.878 -0.2125 -0.2983 -0.1526
24036W        W40170  16.030  10.123  11.109  0.2682 -0.0926  0.2799
24037W        W40171   0.341  14.879   2.348 -0.0632  0.0244 -0.0955
24038W        W40172   3.293  16.792  11.411  0.2166  0.0184 -0.1909
24039W        W40173  10.104  15.561  12.619  0.0211 -0.2236 -0.2385
24040W        W40174  14.050   8.598   2.988 -0.0712  0.0653 -0.0848
24041W        W40175   3.534   6.081   0.358 -0.0057 -0.0711 -0.1097
24042W        W40176  10.300  17.184   2.653 -0.0584  0.1555 -0.0520
24043W        W40177   9.944  14.275  12.525  0.1266 -0.1164 -0.0562
24044W        W40178   6.491  17.754  13.397 -0.2799 -0.1778  0.0229
24045W        W40179   5.090  17.199  13.980 -0.0621  0.1931  0.0163
24046W        W40180   8.055   7.977   0.046  0.2309  0.1450  0.1113
24047W        W40181   6.038  10.107   5.422  0.1735  0.1296  0.1979
24048W        W40182  16.486  13.408   3.420 -0.1852 -0.1224  0.4400
24049W        W40183   1.642  10.043  15.268 -0.0432 -0.1253  0.0074
24050W        W40184  15.395   9.655  12.260  0.1197 -0.2793 -0.0738
24051W        W40185  14.729  17.600  11.074 -0.0438  0.2566  0.1866
24052W        W40186   5.108  12.916  16.315  0.4395 -0.2391 -0.1270
24053W        W40187  14.561   0.512   5.854 -0.0609  0.0690 -0.3373
24054W        W40188   6.808   3.482  12.985  0.1261  0.0547 -0.1873
24055W        W40189   0.058   8.304  11.627  0.3984  0.1101 -0.2641
24056W        W40190  11.317  17.001   2.247  0.0864  0.1476 -0.0800
24057W        W40191  11.900  13.314   0.543  0.1082  0.1137  0.0152
24058W        W40192   7.997   0.514   0.372  0.1200 -0.1111  0.0838
24059W        W40193   8.959  13.155  13.814 -0.1748  0.1788 -0.0069
24060W        W40194   9.518   3.875   9.900 -0.2556  0.1128 -0.3468
24061W        W40195  14.439  10.578   4.176 -0.3006 -0.1305  0.2181
24062W        W40196   6.832  17.422   2.230  0.0409  0.2530 -0.2729
24063W        W40197   8.746   6.121  15.951 -0.1857 -0.2026  0.0777
24064W        W40198   1.461   4.420   4.429 -0.2787  0.2013 -0.0999
24065W        W40199   7.081  13.640   4.787  0.0176 -0.0055  0.1798
24066W        W40200   3.046   9.782   5.139 -0.1419  0.0465  0.0533
24067W        W40201   9.098   5.916   2.449 -0.0098 -0.0834  0.0104
24068W        W40202   1.965   4.749  12.785 -0.0620  0.2852 -0.2185
24069W        W40203   9.056   0.083  15.950  0.0734  0.1974 -0.1791
24070W        W40204   2.804   1.402  12.363  0.1722 -0.2862 -0.1701
24071W        W40205   6.545  13.473   0.958 -0.1493  0.0527  0.0127
24072W        W40206  10.707   3.300  13.105  0.1236 -0.1379 -0.0694
24073W        W40207  15.173   8.521   3.850  0.0162 -0.1274 -0.1695
24074W        W40208  12.725   2.654   0.387  0.0279  0.2417 -0.1655
24075W        W40209   5.531  13.542  12.131  0.0512  0.0739  0.0187
24076W        W40210  12.335  14.894   2.929 -0.2346  0.0931  0.0245
24077W        W40211   9.904  11.634  15.541  0.0913  0.0229  0.3300
24078W        W40212   5.289  17.931   5.018 -0.1604  0.0750 -0.2909
24079W        W40213   6.727  14.224   1.313  0.3393  0.1340 -0.2242
24080W        W40214   3.764   0.135   0.022 -0.1060  0.0490 -0.1341
24081W        W40215  14.787   7.000  14.838  0.0574  0.0582 -0.0219
24082W        W40216  17.980   4.884   2.231 -0.0293  0.1680  0.3589
24083W        W40217  12.002  16.511   1.306  0.1502  0.0555 -0.2317
24084W        W40218  11.325  14.705   2.953 -0.1001 -0.1626 -0.1648
24085W        W40219   2.234   5.914   4.129  0.2376  0.0176  0.0128
24086W        W40220  13.025  12.992  11.435 -0.0298  0.1155 -0.4481
24087W        W40221   5.494  12.645   5.091  0.1646  0.3242  0.2479
24088W        W40222   0.125   4.310   2.146  0.0654 -0.1394  0.1140
24089W        W40223  15.803   1.217   3.585 -0.0130 -0.0641 -0.1509
24090W        W40224  11.623  12.121  15.727 -0.1048  0.1121  0.0370
24091W        W40225   7.428   7.616   4.019  0.0179  0.2440 -0.1251
24092W        W40226   8.974  15.362   0.418  0.0333 -0.0239 -0.2017
24093W        W40227   9.739  16.159   4.350 -0.3196  0.0178  0.0086
24094W        W40228   4.881   0.955  13.151  0.0102  0.0540  0.0152
24095W        W40229   5.044   9.377  16.242 -0.2923 -0.3690 -0.1319
24096W        W40230  10.488   3.381   2.741  0.0618  0.0853 -0.1436
24097W        W40231   0.009   8.025   5.135 -0.1970  0.0932  0.1456
24098W        W40232   7.902   0.214  11.610  0.1255 -0.0283 -0.0570
24099W        W40233   2.281   8.761   5.074  0.0287  0.1241  0.0160
24100W        W40234   9.153   6.739  14.094  0.1563 -0.1737  0.0851
24101W        W40235  17.005   2.932   3.452 -0.1228  0.1007  0.1820
24102W        W40236  10.684   4.475  13.688 -0.0657 -0.1480 -0.0012
24103W        W40237  14.517  16.028  13.912 -0.2847 -0.0843 -0.1777
24104W        W40238  17.695  14.518  11.689  0.1769  0.0806  0.0139
24105W        W40239  16.054  17.504   1.763 -0.0656 -0.0581 -0.1535
24106W        W40240   2.044  16.993  15.786 -0.2731 -0.2980 -0.3352
24107W        W40241   7.871  17.603   5.011 -0.3207  0.4638  0.2353
24108W        W40242   9.888   6.286   5.063  0.0943  0.1178 -0.1440
24109W        W40243  17.078   9.173  13.987  0.1732 -0.1830 -0.2254
24110W        W40244   2.861   4.867   4.397  0.0942 -0.4375  0.0536
24111W        W40245  10.672   1.277  12.382  0.0849 -0.2189  0.1521
24112W        W40246  13.376  12.148   1.140  0.1549 -0.1480 -0.2467
24113W        W40247   9.320   0.012   3.046  0.1142  0.2082 -0.0327
24114W        W40248   7.099  13.017  15.405 -0.1161  0.1120  0.3103
24115W        W40249   0.841   7.603   1.680 -0.1911 -0.3067 -0.0957
24116W        W40250   5.737   8.372  12.601 -0.1557  0.0167  0.0346
24117W        W40251  10.432   3.214   5.881  0.0897 -0.2035 -0.1459
24118W        W40252   5.689  13.806   3.809  0.0502  0.0494 -0.1454
24119W        W40253   8.127   1.501  15.640 -0.0753 -0.1649 -0.0399
24120W        W40254  14.715  12.912  11.103 -0.3644  0.0853 -0.0612
24121W        W40255  15.558   7.609  14.940  0.0574  0.0220  0.2237
24122W        W40256   5.411   1.888  15.761  0.0288 -0.2414  0.0093
24123W        W40257   4.758  13.278  12.653  0.1112  0.2118 -0.0936
24124W        W40258  14.129   9.509   0.802  0.3591  0.3696  0.0199
24125W        W40259  11.038  15.576   0.520  0.2312 -0.0057 -0.1758
24126W        W40260  12.403   0.438   2.391 -0.2059 -0.0334  0.0320
24127W        W40261   2.705   8.346   1.936 -0.0142 -0.0410 -0.2671
24128W        W40262   2.964   7.528   1.234 -0.1368  0.2921 -0.0296
24129W        W40263   6.290  13.238  15.464  0.1202 -0.0097  0.2224
24130W        W40264   3.287   8.904   4.369  0.2470  0.1283  0.0479
24131W        W40265   9.617   1.484   3.386  0.3207  0.1741  0.0169
24132W        W40266   3.581  16.564   1.400 -0.0599 -0.1908 -0.0264
24133W        W40267   4.214   3.747   5.600  0.0047  0.0376 -0.2749
24134W        W40268  15.933   4.630  12.774 -0.0080  0.2159 -0.0014
24135W        W40269  13.433   2.562  14.027  0.2192  0.3248  0.0835
24136W        W40270   7.763  13.983   0.936  0.2071 -0.1781  0.1304
24137W        W40271   8.984   4.148   5.263  0.0283  0.2942 -0.2386
24138W        W40272  10.864   8.310   5.022 -0.0670 -0.0144  0.0568
24139W        W40273  14.805  15.836   4.095  0.1101 -0.0986 -0.0269
24140W        W40274  12.659   1.561  11.335  0.0138  0.0410 -0.5308
24141W        W40275  17.326   5.954   5.762  0.0343 -0.1075  0.1018
24142W        W40276   8.542   1.842  12.818 -0.0122  0.2985  0.0715
24143W        W40277   9.331  17.950  13.638 -0.0638 -0.3223 -0.1000
24144W        W40278   4.520   5.146  13.756 -0.2110 -0.1130  0.0691
24145W        W40279  11.453  18.005  12.633 -0.0565  0.1935  0.0034
24146W        W40280  13.474  16.964  16.045  0.0189 -0.0972  0.0189
24147W        W40281  16.041  16.495   3.676 -0.2010 -0.5778 -0.0260
24148W        W40282  16.758   2.856  13.620 -0.0279 -0.0162 -0.3257
24149W        W40283   0.291   0.672   0.859 -0.2381 -0.0713 -0.0018
24150W        W40284   5.794   0.280   4.354 -0.0047  0.0196  0.1048
24151W        W40285   2.055   4.734   5.338 -0.0485  0.3202  0.2324
24152W        W40286   7.345   4.463   4.244  0.1053 -0.0159 -0.3194
24153W        W40287  15.086  14.151  13.525  0.0807 -0.1086  0.1689
24154W        W40288  15.149   6.413   1.599 -0.1717  0.0592  0.1612
24155W        W40289   2.081  17.568  12.354  0.0318 -0.2698 -0.1435
24156W        W40290   5.532   5.575  13.773  0.5496  0.0122  0.0090
24157W        W40291  10.794  15.016   2.138 -0.1162 -0.0725  0.0214
24158W        W40292   7.833  16.380   4.202  0.2313 -0.0159  0.2202
24159W        W40293   7.694   9.710   3.777 -0.1260 -0.0419  0.1092
24160W        W40294  10.254  13.617  15.302 -0.0666 -0.0241 -0.1147
24161W        W40295   0.649   0.470  15.190 -0.0583  0.1627 -0.2307
24162W        W40296  15.565  10.235  14.409 -0.1343  0.1418  0.2834
24163W        W40297  12.257  11.867  12.491  0.0535 -0.0993 -0.4915
24164W        W40298   2.223   9.581   0.856 -0.0517  0.0491 -0.4016
24165W        W40299  12.770  12.409  12.145 -0.2839  0.0355 -0.1441
24166W        W40300  16.282   7.030   0.309  0.1715  0.0809 -0.1182
24167W        W40301   7.800  15.700   4.798  0.1399  0.3027  0.1088
24168W        W40302   0.453   7.718   5.095  0.0344 -0.2731  0.1372
24169W        W40303   9.206   1.570  13.284  0.0707 -0.0092 -0.3831
24170W        W40304  10.189   6.025  15.178  0.0666 -0.0219 -0.0869
24171W        W40305  16.691  16.791   4.907  0.0203 -0.1301  0.1903
24172W        W40306   5.737   3.592   5.283  0.0524 -0.0505 -0.0904
24173W        W40307  15.981   8.138  11.179 -0.0912  0.1009 -0.2832
24174W        W40308  10.103  11.481   2.578 -0.0470  0.0789  0.1560
24175W        W40309   1.822  18.023  12.417 -0.0233  0.0344 -0.1470
24176W        W40310  15.498  11.573   5.111  0.1398 -0.1681  0.0319
24177W        W40311  15.329   6.327   0.115  0.1466 -0.3955 -0.1209
24178W        W40312   9.532   3.228   2.407 -0.2370  0.0093 -0.2556
24179W        W40313  12.344   5.466   4.344  0.1894 -0.2582 -0.0959
24180W        W40314  12.235  15.941  12.304 -0.0990  0.1023  0.0024
24181W        W40315  16.236  16.419   0.535  0.1506 -0.0207 -0.1529
24182W        W40316  17.099   1.261   1.192 -0.2999 -0.2101  0.1131
24183W        W40317  15.506  10.486   1.758  0.0872 -0.0678  0.2011
24184W        W40318   6.599   0.446  11.924 -0.2603  0.0590  0.2283
24185W        W40319  13.446   5.115   1.830  0.2942  0.4150 -0.2776
24186W        W40320  14.695   9.838  12.539  0.1680 -0.4403  0.1215
24187W        W40321  10.672   8.588   0.649  0.0484  0.1745 -0.2460
24188W        W40322   2.985   0.372  14.247  0.1847  0.2350 -0.3108
24189W        W40323   1.253   6.763   2.680  0.0741  0.0002  0.0037
24190W        W40324   5.657   7.286  15.913  0.1032  0.0672  0.1059
24191W        W40325   1.278   4.907  13.610 -0.2093  0.1184 -0.1380
24192W        W40326   6.991   1.943   5.298  0.2604 -0.1251 -0.4492
24193W        W40327   7.364  13.789  10.447  0.0692  0.1125 -0.0542
24194W        W40328  16.565  17.437   0.688  0.0033 -0.2419  0.3797
24195W        W40329  17.684  13.559  13.816 -0.0592 -0.2118 -0.0758
24196W        W40330  14.864  15.428   0.197 -0.0961 -0.1628  0.0781
24197W        W40331   6.216   9.776   2.101  0.0153 -0.0769  0.4380
24198W        W40332  11.833  12.899  14.009 -0.2148  0.2103  0.0839
24199W        W40333  13.131  11.319   1.776  0.0540  0.0228  0.1110
24200W        W40334  15.632   0.904   2.135  0.2456  0.0240 -0.0365
24201W        W40335   7.989   0.494  15.747  0.0080 -0.3386 -0.0168
24202W        W40336   9.896  14.456  11.072 -0.0562 -0.1915 -0.0485
24203W        W40337   0.216  14.365  13.207  0.0684 -0.1504 -0.0801
24204W        W40338  16.894   1.777  16.335 -0.0446 -0.1253 -0.4324
24205W        W40339   8.329   9.090   4.543  0.0046  0.0026  0.3061
24206W        W40340   5.426  15.761  16.245  0.1953 -0.1517  0.0257
24207W        W40341   5.516  10.100   2.714 -0.3355 -0.0631 -0.4447
24208W        W40342  13.500   7.208   3.984  0.4340 -0.0797 -0.2109
24209W        W40343  10.695   9.551  14.689  0.2379  0.2241  0.1104
24210W        W40344   5.615   3.783   3.494 -0.0075 -0.2062  0.2984
24211W        W40345  11.233   8.148   5.412 -0.1090 -0.1877 -0.1489
24212W        W40346   4.107   4.679  15.429  0.1725 -0.1620 -0.1653
24213W        W40347   8.924   1.111  15.372  0.2419 -0.0276  0.0941
24214W        W40348  17.831  11.154   1.422  0.1034 -0.0367 -0.0125
24215W        W40349   7.088  16.641  12.869  0.3549 -0.2203 -0.1279
24216W        W40350   6.555  11.910   4.320  0.2191  0.0746 -0.1276
24217W        W40351   8.655   0.920  14.866  0.1917 -0.1399  0.3143
24218W        W40352   0.810  11.767   1.088 -0.1654 -0.2554  0.1109
24219W        W40353  15.930  11.809   4.956  0.1880 -0.1708 -0.2906
24220W        W40354  15.526  13.761   4.261 -0.2109  0.3532  0.2284
24221W        W40355  16.576  13.251   4.826  0.2703  0.2527  0.1102
24222W        W40356   2.127   1.208   1.990 -0.1830 -0.0614 -0.1392
24223W        W40357  15.776   5.794   1.810 -0.0160 -0.0306 -0.0067
24224W        W40358   2.889  16.240  11.936  0.1404  0.0249  0.0611
24225W        W40359   8.544   8.514   5.697  0.0275 -0.0541 -0.0208
24226W        W40360  14.509   5.842   4.201  0.0367  0.1374 -0.2200
24227W        W40361  13.123  12.960  11.927  0.1411 -0.0445 -0.0849
24228W        W40362  14.903   8.116   4.092 -0.1593 -0.2081  0.2012
24229W        W40363  16.600  15.028   2.047  0.1676  0.0660 -0.1818
24230W        W40364   1.964  12.033   3.340 -0.0236 -0.1750 -0.1010
24231W        W40365   0.453   5.258  12.673 -0.1083  0.0234 -0.1004
24232W        W40366  14.631  10.470  13.974  0.1355 -0.2351  0.1624
24233W        W40367  10.403   1.915   5.465 -0.0369  0.0053  0.1222
24234W        W40368  17.317   7.863  13.601  0.0974  0.2045 -0.0323
24235W        W40369  13.587  15.103  13.303  0.0660  0.0239 -0.3401
24236W        W40370  13.492   7.104   4.463 -0.1130 -0.2809  0.0267
24237W        W40371   4.735   4.903   5.627  0.0577  0.0940 -0.0878
24238W        W40372   9.856   9.553  14.437 -0.2918  0.1302 -0.1226
24239W        W40373  13.199   1.327   3.112  0.2641 -0.1121 -0.1952
24240W        W40374   5.838   0.757   4.284  0.2041  0.2364 -0.2555
24241W        W40375   3.258  11.150  12.841  0.2454 -0.0188 -0.0245
24242W        W40376   4.368   8.871   3.502 -0.0981 -0.2053 -0.1559
24243W        W40377   3.133   3.935   5.997  0.0112 -0.1116  0.1655
24244W        W40378  16.778  12.973  11.457  0.1613 -0.2734 -0.3704
24245W        W40379  11.758   1.642  14.588 -0.1453  0.1871  0.2600
24246W        W40380  11.212   5.899  12.946 -0.0724 -0.0804  0.0833
24247W        W40381  18.076   1.013  15.781  0.1273 -0.1168 -0.3097
24248W        W40382   0.867   3.796  15.770 -0.1462 -0.0910  0.1226
24249W        W40383   9.765   0.570   1.557 -0.1293 -0.2382  0.0439
24250W        W40384   9.933   2.195  16.375 -0.2255 -0.1144 -0.0158
24251W        W40385   5.704   5.735   2.256 -0.1221 -0.0803 -0.2028
24252W        W40386  15.448  11.078  12.676  0.1547  0.1050 -0.1718
24253W        W40387   9.094  11.094   1.606  0.1417 -0.4614 -0.0946
24254W        W40388   4.645  13.890  10.485  0.0330  0.3511 -0.2118
24255W        W40389   4.597  17.237  15.283  0.0045 -0.2184 -0.0334
24256W        W40390  13.143   0.528  15.276  0.4981  0.1991  0.1585
24257W        W40391  15.367  15.015   2.333  0.3227 -0.1589  0.0124
24258W        W40392  15.747   4.374   4.694 -0.2674 -0.1019  0.0015
24259W        W40393  13.213  14.877  13.971  0.2972 -0.6135 -0.0360
24260W        W40394  15.559  13.197  11.789  0.1536 -0.2975  0.0677
24261W        W40395  17.936  10.797   5.479  0.0055 -0.0643  0.1947
24262W        W40396  14.487  17.681   0.783  0.0270  0.0106 -0.3913
24263W        W40397  12.691  15.645  14.804  0.3074 -0.1892 -0.1531
24264W        W40398   9.690   7.538   0.224 -0.0372  0.0182  0.2402
24265W        W40399  13.142   3.974  15.124  0.0041 -0.3101  0.0538
24266W        W40400  10.675   5.992  15.418 -0.2557 -0.3501  0.1103
24267W        W40401   7.301   3.969  14.199 -0.0224 -0.0365  0.2274
24268W        W40402   6.064   4.649   2.009 -0.1026 -0.2079 -0.0691
24269W        W40403   8.576  15.839   2.709 -0.0696 -0.0845 -0.1377
24270W        W40404   8.620   5.573  10.931  0.0100 -0.0318  0.0850
24271W        W40405  14.607   6.025  14.258 -0.0656  0.2207  0.2965
24272W        W40406   5.175   9.407   3.016 -0.0265  0.1439  0.1129
24273W        W40407   9.981   5.938   2.404  0.0030 -0.3198  0.2410
24274W        W40408   6.343  17.813   4.941  0.0063  0.2503  0.1216
24275W        W40409  14.792   4.005   3.905 -0.1044  0.1361 -0.1382
24276W        W40410   9.253   5.520   4.935 -0.2449  0.0655 -0.1647
24277W        W40411   4.508  10.538   1.626  0.1246 -0.0294  0.2773
24278W        W40412  10.042   3.404   4.712 -0.0550  0.2004  0.1434
24279W        W40413   7.686  14.038  12.264 -0.1854 -0.0532 -0.2916
24280W        W40414   4.943  12.049  11.932 -0.2395 -0.0354 -0.1995
24281W        W40415   4.040   7.520   1.694 -0.1015 -0.2476  0.1064
24282W        W40416  13.054   4.470  11.459  0.2305  0.1900 -0.0389
24283W        W40417   5.154  17.384   1.085  0.0651  0.0013 -0.3124
24284W        W40418  10.144  12.596   0.284 -0.0699 -0.3090 -0.0428
24285W        W40419  10.801  10.917   0.718  0.1614  0.0637  0.0434
24286W        W40420   2.489  11.781   1.862  0.0236  0.0415  0.0132
24287W        W40421   9.963   1.487  15.992  0.0726 -0.1899 -0.0080
24288W        W40422   0.784  12.054   2.072  0.0936 -0.2149 -0.1284
24289W        W40423   3.472   3.900   3.719  0.0441  0.3344  0.3242
24290W        W40424  10.143   1.582   5.138 -0.0010  0.1482  0.2944
24291W        W40425   4.687   9.054  15.016  0.2993  0.1626  0.0118
24292W        W40426   8.843   6.095  15.066 -0.0333  0.1271 -0.0926
24293W        W40427  10.069  16.837  11.545  0.0701 -0.1058  0.0201
24294W        W40428   9.661   0.637   4.175 -0.0853  0.1183 -0.2642
24295W        W40429  11.027   3.674   4.836  0.3154 -0.2059 -0.1566
24296W        W40430   6.612   6.639   3.650  0.1400 -0.0316 -0.1377
24297W        W40431  11.326   6.965   0.270 -0.2186  0.1347  0.1561
24298W        W40432   6.425   0.525  11.481  0.4029 -0.0545  0.0264
24299W        W40433   2.100  11.174   0.024 -0.1024  0.0784  0.0179
24300W        W40434   7.099   2.927  15.156 -0.4595 -0.1107 -0.1184
24301W        W40435   4.097   4.329   0.596 -0.1172 -0.1589  0.2930
24302W        W40436   5.870   1.570   4.118  0.1592  0.0810 -0.0360
24303W        W40437   1.139   3.368  12.371 -0.1386 -0.0020 -0.1461
24304W        W40438  17.066  16.615  15.636 -0.3441  0.0878 -0.3458
24305W        W40439   9.730   2.702   3.334 -0.0651 -0.0248 -0.1256
24306W        W40440   3.057   7.421  12.630 -0.1137  0.1140  0.1234
24307W        W40441  11.397   2.495   1.309  0.0562 -0.1057  0.4101
24308W        W40442   8.727   7.397  15.610 -0.1502  0.1740  0.0731
24309W        W40443  13.575  16.890  12.393 -0.0176 -0.1311  0.2101
24310W        W40444  15.228   3.446   0.154 -0.0002  0.0555  0.0494
24311W        W40445   4.408   3.433   5.180 -0.0645  0.2015  0.1039
24312W        W40446   9.896   2.294   3.947  0.0172 -0.1775  0.2044
24313W        W40447   7.378  14.755  16.241  0.1219 -0.1212 -0.3230
24314W        W40448   9.237   2.889  15.988 -0.2110  0.1360  0.1432
24315W        W40449  15.116  11.345   5.690  0.0206  0.1201  0.1128
24316W        W40450   2.441   7.239  13.189  0.1055  0.1468 -0.1221
24317W        W40451  10.760  13.413   0.153 -0.0601 -0.0794 -0.1154
24318W        W40452   0.529   3.980   3.953 -0.0684  0.1165  0.0596
24319W        W40453   2.467  10.511  11.037  0.0334  0.1332  0.0389
24320W        W40454  14.630   5.905  14.755  0.1893 -0.0491 -0.2290
24321W        W40455  10.333  14.958   2.394  0.1206  0.0818  0.2813
24322W        W40456  16.226  13.105   5.699  0.0881 -0.3127 -0.0797
24323W        W40457  11.690  10.996   1.859 -0.0386 -0.1819  0.0009
24324W        W40458   2.845   5.037  11.772 -0.0008 -0.1084  0.2242
24325W        W40459  13.723   8.558   4.578  0.0905  0.0708 -0.1453
24326W        W40460  15.512  15.444   1.403 -0.1347 -0.3620  0.0467
24327W        W40461   7.678  10.552   4.827  0.1780 -0.1040 -0.0711
24328W        W40462  12.885   6.194  13.523  0.0991 -0.2622 -0.2969
24329W        W40463   3.359  15.969  15.347 -0.2828 -0.3618  0.2272
24330W        W40464   5.783  11.452   0.134 -0.2364 -0.1341  0.1348
24331W        W40465  15.197  11.775   2.588 -0.1988 -0.0500 -0.0324
24332W        W40466  10.091   1.636   3.321 -0.2704 -0.1526  0.3315
24333W        W40467  13.773  11.823   3.551  0.1759 -0.3123  0.0289
24334W        W40468   0.303  12.662   3.653  0.1004 -0.1513  0.2976
24335W        W40469  11.675   0.086   2.111 -0.1343  0.1358 -0.1919
24336W        W40470   1.379  15.040  11.978 -0.1811 -0.1525  0.0400
24337W        W40471   9.573  11.878  16.204  0.0920  0.2021  0.0838
24338W        W40472   7.092  15.769  13.904 -0.0707  0.2848 -0.1345
24339W        W40473   0.535  17.875   4.263 -0.0915 -0.0141  0.0213
24340W        W40474   4.867   2.795  11.612  0.3482  0.2099  0.0769
24341W        W40475   3.954   9.167   4.233  0.0839  0.1445 -0.0222
24342W        W40476  16.787  15.502   4.252 -0.1845 -0.0890  0.0580
24343W        W40477   3.982   0.814  12.392  0.2346  0.2129  0.0004
24344W        W40478   2.745   3.328   0.987  0.1712  0.1035 -0.0945
24345W        W40479   2.721   9.654  14.047  0.0590  0.0189  0.2217
24346W        W40480   7.272  12.838   4.713  0.0351  0.3823  0.0986
24347W        W40481   9.257  11.705  12.466 -0.0368  0.0154 -0.2275
24348W        W40482  14.686   4.824  14.649 -0.1692 -0.0142 -0.0553
24349W        W40483  15.507   0.952   3.254 -0.0354 -0.1118 -0.0233
24350W        W40484   2.892   1.449   4.407 -0.0943  0.1656 -0.2460
24351W        W40485   2.599   2.813   1.794  0.0915 -0.1349  0.0481
24352W        W40486  16.124   9.779   4.935 -0.0868 -0.0015 -0.0527
24353W        W40487   5.930  15.494  16.232 -0.1940 -0.0997  0.1942
24354W        W40488  14.092  16.491  13.405 -0.0687 -0.0178  0.2333
24355W        W40489  11.161  12.155  15.019  0.1433 -0.3043 -0.0280
24356W        W40490  15.173  12.696  14.085  0.1093 -0.0674  0.1573
24357W        W40491   1.734   1.011  13.065 -0.0211 -0.3346  0.0308
24358W        W40492   0.118  17.973  14.176  0.2398 -0.1665  0.3283
24359W        W40493  16.111  13.668  15.146 -0.1368 -0.0982  0.0228
24360W        W40494   6.525   8.753  16.173 -0.0172  0.2707 -0.2685
24361W        W40495   1.816   9.467  12.216  0.2361  0.0116  0.2359
24362W        W40496  17.920  16.557   6.355 -0.2993 -0.1201 -0.1394
24363W        W40497   5.521  13.659   0.251  0.0798 -0.1253 -0.0241
24364W        W40498   1.528  15.884  12.194  0.1481  0.0949  0.0468
24365W        W40499  12.991  12.456  13.415  0.0879  0.1975 -0.3691
24366W        W40500   9.249  15.386   2.863  0.0972  0.2262 -0.0977
24367W        W40501  14.100  15.178   5.913 -0.0483  0.1415 -0.1686
24368W        W40502   6.017   8.891   3.186  0.0373  0.1378  0.1045
24369W        W40503  10.937   4.565   2.212 -0.1345  0.3212 -0.0539
24370W        W40504   8.966   4.505   4.365  0.4371 -0.2230 -0.2220
24371W        W40505   7.516  15.085   0.279 -0.1689  0.1103 -0.5470
24372W        W40506   5.238   1.323   3.676 -0.1865 -0.0298  0.1476
24373W        W40507   6.896  14.557  16.070  0.3702 -0.3860 -0.4515
24374W        W40508  15.713   0.997  16.293 -0.1591  0.1588 -0.1623
24375W        W40509  17.661   1.632   4.442 -0.0274 -0.2437  0.0842
24376W        W40510   8.632   7.301   0.515  0.2196 -0.3068  0.1553
24377W        W40511   4.917  11.847   0.364 -0.1664  0.0463  0.0028
24378W        W40512  17.847   0.165  14.072 -0.1623  0.2485  0.1186
24379W        W40513  15.765   1.407  15.961  0.0466 -0.0643  0.0194
24380W        W40514   3.675   9.689   4.277  0.0061  0.1765 -0.0588
24381W        W40515  12.532   9.277  15.704 -0.0406 -0.1443  0.1085
24382W        W40516   2.209   2.551   2.208  0.1530 -0.1454 -0.1376
24383W        W40517   0.693  14.055  14.837  0.1588  0.0835 -0.1350
24384W        W40518   2.518   2.240   0.647  0.1741  0.3078 -0.1164
24385W        W40519  11.587  17.086  12.119  0.2370 -0.3231  0.2087
24386W        W40520   9.831   4.063  13.697  0.0374  0.1878  0.0757
24387W        W40521  13.685  10.784  12.375 -0.0775  0.0212 -0.0587
24388W        W40522   3.798  16.960   0.005  0.0334 -0.2572  0.0512
24389W        W40523  16.902   5.660  12.714  0.0446 -0.0521 -0.0737
24390W        W40524   4.676   5.191  12.407 -0.0167 -0.2155  0.1660
24391W        W40525   0.795  11.349  13.717  0.5076  0.0538 -0.0595
24392W        W40526   5.675  16.810  11.321  0.0762 -0.1369 -0.0362
24393W        W40527   7.031   6.467  15.939  0.4209 -0.1618  0.2165
24394W        W40528  17.642  12.256   0.574  0.1496  0.1504  0.1339
24395W        W40529   4.148  13.678  16.201 -0.0359  0.0345 -0.1256
24396W        W40530  17.320   1.519  16.100 -0.1510 -0.0915  0.0934
24397W        W40531   9.532  13.441   3.518 -0.0291 -0.0569 -0.0292
24398W        W40532   6.745  16.749  11.896  0.1166 -0.1324  0.0735
24399W        W40533   8.427  12.363  14.779 -0.0059  0.0901  0.1499
24400W        W40534   2.431  15.570  12.236  0.0131 -0.1404 -0.2637
24401W        W40535   9.905   9.493   2.485 -0.0544  0.1442  0.2203
24402W        W40536  12.946  12.981   5.082 -0.0188 -0.0232 -0.0403
24403W        W40537  13.433  13.856  16.194 -0.1605  0.0000  0.1491
24404W        W40538  13.337   9.100   0.534 -0.1162  0.1572  0.3559
24405W        W40539   7.069  17.919   2.533 -0.0312 -0.0176  0.2780
24406W        W40540  15.116  16.190   3.606  0.3587 -0.0081  0.1144
24407W        W40541  14.253  12.635  16.030  0.1688 -0.0348 -0.0058
24408W        W40542   8.810  16.830  13.901  0.1873  0.1518  0.2376
24409W        W40543   3.995   0.289   2.457  0.1056  0.1624  0.1401
24410W        W40544  12.581   2.057   1.450  0.0680  0.2461  0.0581
24411W        W40545   9.934   0.574  11.441 -0.0451 -0.4985  0.1250
24412W        W40546   6.109   1.091   3.228  0.1506 -0.1847 -0.1896
24413W        W40547   0.949  12.654   5.334  0.1221  0.0399  0.3134
24414W        W40548  17.244   3.551  16.380 -0.0030  0.0035 -0.1902
24415W        W40549   0.136  12.464  11.906 -0.1761 -0.0483 -0.1887
24416W        W40550  17.846   3.616  14.154  0.2096 -0.0658  0.1472
24417W        W40551   3.995   9.657   5.168  0.0685 -0.3521  0.0575
24418W        W40552   7.815  11.186   4.735  0.3991 -0.0831  0.1123
24419W        W40553  16.392   6.667   4.787 -0.1376 -0.2451  0.2255
24420W        W40554   3.865   6.782  15.503  0.1208  0.1322 -0.1101
24421W        W40555   0.831   5.290   2.055  0.1581 -0.2491  0.2463
24422W        W40556   5.268   4.891   1.864 -0.1194  0.0046  0.0451
24423W        W40557  16.902  17.247   1.650 -0.1966  0.0241  0.0276
24424W        W40558  12.888   6.098   1.784  0.0311  0.0520  0.2008
24425W        W40559  14.446  14.570   4.552 -0.0749  0.2396 -0.5119
24426W        W40560   4.957   1.016  15.760 -0.0523 -0.0449 -0.2106
24427W        W40561  12.556   1.134   1.112  0.4450  0.3564 -0.1812
24428W        W40562   7.461   3.945   3.327  0.0205 -0.2548  0.2926
24429W        W40563   5.654   7.535   0.068 -0.4165  0.1934 -0.1563
24430W        W40564  10.634  17.806   4.380  0.0171  0.3332 -0.0466
24431W        W40565  12.538   4.188  11.527 -0.1817  0.1070 -0.1174
24432W        W40566  13.249   6.757  13.391  0.1220 -0.0215 -0.0918
24433W        W40567   1.195  14.112   1.638 -0.0665  0.0618  0.1065
24434W        W40568  12.572  15.745   1.915  0.1124  0.2054  0.1447
24435W        W40569  17.447   2.740   5.052  0.2047 -0.0985  0.0866
24436W        W40570   1.193   2.941   3.650  0.1582  0.2003 -0.0738
24437W        W40571  10.410  13.386   5.347 -0.0222 -0.0057 -0.2736
24438W        W40572  14.023  17.352   4.895 -0.0713  0.0379  0.0229
24439W        W40573  11.164  14.397   3.313 -0.2094 -0.3455 -0.0468
24440W        W40574  17.520  11.775   3.858 -0.0744  0.1925  0.0712
24441W        W40575   1.306  11.159  14.486 -0.2892  0.2859 -0.1305
24442W        W40576  17.826  17.671  14.159 -0.1162  0.3185  0.0498
24443W        W40577  10.662  10.622  13.635 -0.2197  0.0329  0.1613
24444W        W40578   1.515  14.761  16.344 -0.0171  0.1358 -0.0326
24445W        W40579   8.860  17.885  13.102 -0.0436  0.0819  0.1151
24446W        W40580  13.813  10.539   3.693  0.0157  0.0634  0.2686
24447W        W40581   0.416   6.011   3.840 -0.0100 -0.0616 -0.0766
24448W        W40582  17.205   2.467  16.359  0.0362  0.0449 -0.0073
24449W        W40583   6.628  16.138  13.052 -0.0546 -0.1539 -0.1381
24450W        W40584  16.102  14.312  12.086 -0.0191  0.1136  0.3797
24451W        W40585   2.840  14.785  11.685  0.0696 -0.1848 -0.0834
24452W        W40586  12.144   6.425  14.210  0.0236 -0.1194 -0.1781
24453W        W40587  16.013  16.066   4.419 -0.2000 -0.1747  0.2628
24454W        W40588   8.914   6.464  12.638 -0.0634  0.0452  0.0036
24455W        W40589  12.668   0.645   1.267  0.0709 -0.0353 -0.2156
24456W        W40590   1.414   1.182   6.293  0.2570 -0.0509  0.4729
24457W        W40591  10.106   5.004   4.812  0.1553 -0.0736 -0.1681
24458W        W40592   7.971   7.255  11.264 -0.1395 -0.0858  0.1843
24459W        W40593  15.060  10.771  15.926  0.2165 -0.0698 -0.3386
24460W        W40594  16.374   8.084   2.723 -0.1077  0.0621  0.4165
24461W        W40595  16.867   5.003   2.901 -0.1255  0.0649 -0.2101
24462W        W40596   1.210  15.541  11.909 -0.2082  0.0405 -0.1995
24463W        W40597   9.061   8.570  14.698  0.1872 -0.1263 -0.2383
24464W        W40598  15.056   7.985  12.628 -0.0322  0.2221  0.1728
24465W        W40599   9.814   6.157   5.585  0.1218 -0.0125 -0.2011
24466W        W40600   3.533  13.847   2.648  0.0001  0.1596 -0.0892
24467W        W40601   3.119   7.090   1.056  0.1460 -0.2921  0.1570
24468W        W40602   6.920  15.526   2.346 -0.0462 -0.2266 -0.0570
24469W        W40603  18.082  12.502  16.283 -0.1813 -0.1810 -0.1312
24470W        W40604   2.838   4.286   4.350 -0.0980 -0.3357 -0.0708
24471W        W40605   1.461  10.549   1.713  0.0790  0.0058  0.0318
24472W        W40606  11.678  15.711  15.598  0.1467 -0.1747 -0.3381
24473W        W40607  10.882  15.989  16.028 -0.0323 -0.0531 -0.3696
24474W        W40608   3.426   2.123  15.013 -0.1355  0.0937  0.5574
24475W        W40609   9.430   3.809  13.553 -0.1867 -0.1738  0.3177
24476W        W40610  12.870   0.452  12.477  0.0712 -0.1591 -0.0968
24477W        W40611   8.366  15.233  12.114  0.1424 -0.4320  0.0045
24478W        W40612  14.607   8.515   4.119  0.1420 -0.2290  0.3002
24479W        W40613   2.616   4.635   1.950  0.0131  0.1458 -0.1282
24480W        W40614  16.259   2.837   0.720  0.0352  0.1519  0.0268
24481W        W40615   2.761   0.757  11.331  0.2259  0.0606 -0.5476
24482W        W40616   3.409   1.559   0.480 -0.1905 -0.1545  0.0930
24483W        W40617   9.243  15.154  11.195 -0.0934 -0.1996 -0.1521
24484W        W40618   7.729  13.464  14.220 -0.1808  0.1379  0.0318
24485W        W40619   1.000   7.919   0.149  0.1086 -0.1546  0.0713
24486W        W40620   9.528   1.726   4.713  0.0343  0.1083 -0.0132
24487W        W40621   5.296  15.874  15.482 -0.0949 -0.1105 -0.3164
24488W        W40622   4.929   6.017  15.617  0.2179 -0.0723 -0.0907
24489W        W40623  16.443   0.440   3.489 -0.0285  0.0477 -0.1276
24490W        W40624   1.435   9.004  10.195 -0.0249  0.1358  0.0492
24491W        W40625   0.812   1.590   2.051  0.0185  0.3078  0.2166
24492W        W40626  16.100  17.575   0.474 -0.0926  0.0206  0.1781
24493W        W40627  12.417   9.738  15.908 -0.0290 -0.0726  0.0503
24494W        W40628   2.820   3.270   1.618  0.1765  0.2245 -0.1859
24495W        W40629  11.506   6.955  11.545  0.1594  0.0722 -0.0780
24496W        W40630   3.453  16.898   5.683  0.1297  0.0897 -0.0868
24497W        W40631  15.264  13.954   4.652  0.0104  0.0487  0.0293
24498W        W40632   3.077   8.616   4.714 -0.2929 -0.0730 -0.0918
24499W        W40633   6.751  12.672   2.766  0.2818 -0.1770 -0.0014
24500W        W40634   5.250  15.952   4.016  0.2240 -0.0607  0.0007
24501W        W40635   1.642  12.442   0.772  0.6646  0.0902  0.1798
24502W        W40636  11.626  11.021  15.900  0.0314  0.0538 -0.0141
24503W        W40637  13.771  14.816  15.770 -0.0527  0.0379  0.1705
24504W        W40638  15.608  17.706   5.508  0.1400  0.2864 -0.1822
24505W        W40639   5.308   7.868  15.316 -0.1707  0.3785  0.0179
24506W        W40640   1.641   2.585  11.521 -0.0309 -0.1536 -0.2542
24507W        W40641   0.000  15.560   5.141  0.0525  0.0666  0.0176
24508W        W40642  13.088  13.903   2.114 -0.3036 -0.1007  0.1413
24509W        W40643   2.422  16.531  13.433 -0.0437 -0.0334 -0.0848
24510W        W40644   2.527   1.660   5.202 -0.0454  0.1403 -0.2031
24511W        W40645   0.686   8.286   3.489 -0.0342  0.1173  0.0213
24512W        W40646  17.605  16.465  11.644  0.1737  0.0132 -0.1513
24513W        W40647  12.976  12.416  13.981  0.4436  0.1362  0.0344
24514W        W40648  15.063  11.853   4.780 -0.1638 -0.0114 -0.0368
24515W        W40649   6.663   3.864  13.373 -0.2930  0.0261 -0.0554
24516W        W40650   9.455  14.653  11.913  0.2643  0.1455 -0.1318
24517W        W40651  10.631  16.685  11.326 -0.0084  0.2478  0.1544
24518W        W40652   5.937  17.399   3.240  0.0536 -0.0709  0.2489
24519W        W40653   4.627   6.404  15.586 -0.1167  0.0991 -0.1033
24520W        W40654  17.720   9.062  10.401  0.0039  0.2745 -0.0383
24521W        W40655   8.066   9.653  16.049 -0.1170 -0.1446  0.2467
24522W        W40656   6.710   4.729   3.789  0.1998 -0.0142  0.0042
24523W        W40657   4.404  10.958   0.163  0.1128  0.1459  0.0510
24524W        W40658   5.912   1.576  13.686 -0.0709  0.2732 -0.2962
24525W        W40659  12.506  12.690  11.811  0.0053 -0.0747  0.0733
24526W        W40660  10.065  17.565   5.170 -0.2711 -0.0202  0.0593
24527W        W40661   9.779   5.009   0.295  0.0161  0.0735 -0.1679
24528W        W40662  14.858  16.572  13.135  0.1319  0.1052 -0.2535
24529W        W40663   8.142  15.980  16.012 -0.3733  0.0894  0.0893
24530W        W40664  15.552  15.277  13.560 -0.1310  0.2650 -0.1977
24531W        W40665   2.381   1.079   3.548  0.0143 -0.0185 -0.0533
24532W        W40666   6.627  10.589   4.927 -0.0305  0.1292 -0.3699
24533W        W40667  15.822   4.337   1.559 -0.2577 -0.3836 -0.1336
24534W        W40668  10.932   2.003   2.925 -0.1281  0.1113 -0.2428
24535W        W40669   7.334   6.349  13.386  0.0148 -0.1345 -0.0698
24536W        W40670   6.360   0.587   2.464  0.1137  0.1960 -0.2477
24537W        W40671   3.979  13.982  13.583  0.1399  0.1198  0.1036
24538W        W40672   4.029  12.895  15.067  0.3841 -0.0220 -0.2549
24539W        W40673   6.262   1.479   2.626  0.0636 -0.1272 -0.0001
24540W        W40674  14.897  10.241   2.320 -0.0581 -0.0275  0.1111
24541W        W40675  16.536   4.837   1.028 -0.2758 -0.1676  0.3239
24542W        W40676  14.362  10.060  11.442 -0.0688  0.0056  0.0403
24543W        W40677   9.437  11.613  11.965 -0.3230 -0.1808  0.0149
24544W        W40678  14.253  14.384  13.235 -0.2272  0.1181 -0.2818
24545W        W40679  11.351   4.607  15.973  0.0035  0.2095  0.0514
24546W        W40680  10.916   0.809  14.851  0.0352 -0.3718  0.0861
24547W        W40681   7.480  12.053   3.629 -0.0023 -0.0283  0.1138
24548W        W40682   2.360   6.346   2.706  0.0502 -0.0630  0.1545
24549W        W40683   7.308   8.627  12.877  0.1910  0.3609 -0.0357
24550W        W40684  14.433   3.579   3.964 -0.1893  0.0963  0.1324
24551W        W40685   7.938  15.823  14.182  0.2151  0.0383 -0.2408
24552W        W40686  11.958  10.773  12.019  0.1658  0.3265 -0.0781
24553W        W40687   3.015  15.399   4.591  0.2689  0.0542 -0.2065
24554W        W40688  10.297   0.926  12.465 -0.1340 -0.2123 -0.2233
24555W        W40689   1.474   7.519  14.102 -0.0201 -0.0521  0.2584
24556W        W40690   0.098   8.115   4.204  0.0834  0.0089  0.0863
24557W        W40691  16.123   6.494   3.745  0.0829  0.2409  0.0368
24558W        W40692   8.810  14.178  13.926 -0.0833  0.0707  0.1367
24559W        W40693   6.720  12.204   0.147  0.2528 -0.0931 -0.0832
24560W        W40694  13.634   3.432   4.888 -0.1931  0.0577 -0.2476
24561W        W40695   8.264  14.843  11.160 -0.1979 -0.2564  0.1486
24562W        W40696  17.403   7.402   0.998 -0.0149 -0.0034  0.3476
24563W        W40697  10.358   9.443   0.555  0.1650 -0.2778 -0.0141
24564W        W40698  15.850  11.998  16.263  0.0101 -0.1339  0.2357
24565W        W40699  15.179  13.952  14.676  0.1645 -0.1085 -0.0375
24566W        W40700  12.670   6.650   2.013  0.1257  0.0556  0.4843
24567W        W40701  12.297   7.876   0.692  0.0820  0.0869 -0.0922
24568W        W40702   6.694  10.177  13.020  0.2140  0.1803 -0.0644
24569W        W40703  16.000  12.875   4.508 -0.2310  0.1251  0.0026
24570W        W40704   9.040   8.191  12.495 -0.1862 -0.2546  0.0556
24571W        W40705  14.526   0.687  13.399  0.0343  0.0178  0.1397
24572W        W40706  10.796  15.113  15.705  0.0274 -0.0947 -0.0895
24573W        W40707  16.417  15.787  11.809  0.2333  0.0137 -0.0478
24574W        W40708  15.300   2.559   1.100  0.2651  0.0960  0.1648
24575W        W40709   0.802   8.389   0.143 -0.1509  0.1222 -0.0753
24576W        W40710  13.676  11.717   5.188 -0.0698  0.2765 -0.3992
24577W        W40711   3.481   7.463  12.219 -0.2453  0.2944  0.0319
24578W        W40712   9.549   1.826  16.129 -0.0539 -0.0807 -0.0767
24579W        W40713   4.780   0.688  11.793 -0.1313 -0.2140 -0.0602
24580W        W40714  16.786   9.574   5.028  0.0463  0.2329  0.0851
24581W        W40715   8.433   3.681   4.398 -0.2068  0.0203 -0.1387
24582W        W40716  10.315  16.775   4.993  0.1883 -0.2987 -0.0669
24583W        W40717   4.407  14.595  15.682 -0.2385 -0.1287  0.0642
24584W        W40718  16.863   6.270  14.122 -0.0199  0.3037 -0.4104
24585W        W40719   2.316  15.944  16.146  0.0614  0.2009  0.0472
24586W        W40720   6.887   0.379   3.358  0.0511 -0.1409 -0.0258
24587W        W40721  16.818   2.313  16.119 -0.0807  0.0117 -0.3514
24588W        W40722   0.441  13.863  13.883 -0.2611 -0.0144 -0.0155
24589W        W40723   4.966  15.760   0.032 -0.3391 -0.2133  0.0223
24590W        W40724   3.512   9.992  13.992 -0.0470  0.2298 -0.3474
24591W        W40725  16.040  12.929  14.792  0.1007 -0.1268 -0.1496
24592W        W40726  13.612   4.725  15.685  0.1319  0.1238 -0.0394
24593W        W40727  11.122   7.392   5.977 -0.0729 -0.1695 -0.0296
24594W        W40728   6.282  11.961  11.728  0.1261 -0.1452 -0.1141
24595W        W40729   1.617  16.576  16.205 -0.3979 -0.2824  0.3551
24596W        W40730   8.178   6.891  13.617 -0.1713 -0.1472 -0.2773
24597W        W40731   4.380   3.867   0.583 -0.1549 -0.1300 -0.0018
24598W        W40732   3.818  10.739  11.232 -0.2020  0.0866 -0.1429
24599W        W40733  11.105   8.388   2.878  0.1301 -0.0218 -0.1640
24600W        W40734  14.884   8.411  10.891  0.2678 -0.0715 -0.0088
24601W        W40735  11.882  12.841   4.035 -0.0425 -0.0548  0.2076
24602W        W40736  11.498   0.522  16.148  0.0187  0.0728  0.4343
24603W        W40737  12.031  15.793   1.290  0.0756 -0.2063  0.1757
24604W        W40738  15.912   0.425   6.006  0.0020 -0.0063  0.0315
24605W        W40739  11.575   3.133   4.328  0.0440 -0.3845 -0.0750
24606W        W40740   1.052   7.499   5.321  0.0568  0.4574  0.0692
24607W        W40741   0.059   9.745   5.161 -0.3538  0.1451 -0.0435
24608W        W40742   8.539   3.430  11.522 -0.1732  0.2708  0.1143
24609W        W40743  15.596  14.261   4.355 -0.1241 -0.1508 -0.0457
24610W        W40744  11.598  16.316   1.558 -0.2471  0.0938 -0.2055
24611W        W40745   9.617   1.302  14.890  0.1267  0.0681 -0.0464
24612W        W40746   2.051   7.113   3.657 -0.1383 -0.0258  0.1168
24613W        W40747   5.746   1.135  16.270  0.0164 -0.3544 -0.1385
24614W        W40748   5.158  12.996   5.119 -0.2538  0.0320  0.3209
24615W        W40749   7.217  10.929   1.954 -0.0905  0.1701 -0.1105
24616W        W40750  17.278  14.800   3.224 -0.2542  0.3092  0.1468
24617W        W40751  11.104   4.212  15.231 -0.1889  0.1486 -0.0203
24618W        W40752  16.241  12.266  10.122 -0.1497 -0.1659 -0.2619
24619W        W40753   0.721  11.230   0.000 -0.1764  0.0725 -0.0354
24620W        W40754   7.455   1.090  13.290 -0.0490 -0.2235  0.1234
24621W        W40755  14.884   3.836   4.795  0.0858 -0.0615 -0.1848
24622W        W40756   2.749   8.467   1.465  0.0871 -0.1111  0.2260
24623W        W40757   2.388  17.518  13.903 -0.0505 -0.1866  0.0905
24624W        W40758  12.198  13.415  11.455  0.0817 -0.0297 -0.0177
24625W        W40759  14.727  10.044  14.701 -0.0433 -0.0306 -0.3600
24626W        W40760   8.703   1.635  15.504  0.0116  0.0248 -0.0606
24627W        W40761  14.893  15.234   3.597  0.3456  0.1000  0.2619
24628W        W40762  17.015  13.710  15.347 -0.1387 -0.2573  0.0205
24629W        W40763   1.334  10.776  12.364  0.1118  0.4554 -0.0504
24630W        W40764   9.350   9.654  15.203 -0.3483 -0.0572  0.0231
24631W        W40765   2.579   6.157  14.571  0.0710  0.2672 -0.1665
24632W        W40766   1.653   6.492   2.793  0.0276 -0.0214 -0.0885
24633W        W40767   3.763   0.928   0.142 -0.2626  0.0393  0.3489
24634W        W40768  11.420   4.077  10.338  0.2989 -0.3617 -0.2717
24635W        W40769  16.766   7.519   3.109 -0.3981  0.1164  0.0169
24636W        W40770   0.381  10.925  11.653 -0.1333 -0.3181 -0.1456
24637W        W40771  16.664   6.220  14.754 -0.1223  0.1323  0.2844
24638W        W40772  17.109  13.883   5.274 -0.0152  0.0806 -0.0348
24639W        W40773  17.513   4.981   4.350 -0.0326  0.1854  0.0693
24640W        W40774  10.286  12.697   1.909 -0.0980 -0.0483 -0.0131
24641W        W40775   0.292   7.781  14.530 -0.1263  0.3327  0.1704
24642W        W40776   3.826   0.283  15.921  0.1454  0.2272 -0.2649
24643W        W40777  12.032   2.884  15.906  0.0716  0.1306 -0.0056
24644W        W40778  13.453   9.610  14.357  0.0967  0.1820 -0.1975
24645W        W40779  17.174   0.163  13.592 -0.0119 -0.1410 -0.2241
24646W        W40780   9.750  16.208  13.538 -0.0671  0.0533  0.0141
24647W        W40781   2.206   0.505   2.659 -0.0145  0.2261  0.2973
24648W        W40782   3.567   3.695  13.305  0.2222 -0.0379  0.1514
24649W        W40783   8.382  16.775   4.982  0.1828  0.3789 -0.1684
24650W        W40784   5.990   9.911  13.875 -0.0213  0.1299  0.1900
24651W        W40785   4.697   9.485  11.205  0.0590  0.3719 -0.0369
24652W        W40786   9.940  17.454  13.039  0.0102 -0.0151 -0.0272
24653W        W40787  13.288   8.790  14.158 -0.0254  0.3437  0.1376
24654W        W40788  16.177   5.310  10.940 -0.0123  0.0136 -0.1374
24655W        W40789   0.150  12.283   2.458 -0.1885 -0.0914 -0.1035
24656W        W40790  16.191  12.711  12.518 -0.0124  0.2127  0.4124
24657W        W40791  13.564  11.439  16.101  0.1044 -0.4037 -0.1682
24658W        W40792   6.775   3.085  12.696  0.2910  0.2710  0.2397
24659W        W40793  17.927   4.623  16.022 -0.1801  0.2317 -0.1746
24660W        W40794  10.784   8.871  14.205  0.1810 -0.2891  0.2311
24661W        W40795  15.336   6.209   4.618  0.4045  0.0090 -0.0723
24662W        W40796   5.144   6.397   3.925  0.0933 -0.1513 -0.1172
24663W        W40797   7.432   9.315   3.569  0.1612  0.0143 -0.0454
24664W        W40798  10.510   5.492  15.303 -0.0716  0.4251 -0.0335
24665W        W40799   2.170   0.924  13.382 -0.1284 -0.1200 -0.0482
24666W        W40800   7.350  16.513   2.165  0.0281 -0.0869 -0.0292
24667W        W40801   9.096  11.516   6.020  0.1506 -0.3334 -0.3350
24668W        W40802  16.421  14.971   1.508  0.0827  0.2196 -0.0422
24669W        W40803   5.535  15.163  14.979 -0.1331 -0.2157  0.0530
24670W        W40804  10.530   4.442   0.130 -0.1226 -0.1806 -0.0756
24671W        W40805  17.222   6.882  15.201  0.0461 -0.0129 -0.0736
24672W        W40806  15.498   8.400   4.227  0.1605  0.0377 -0.1651
24673W        W40807   1.181   2.916   1.761 -0.0946  0.3605  0.1556
24674W        W40808   5.859  11.887  13.628 -0.0846 -0.0677  0.2411
24675W        W40809   1.864  11.526   3.538 -0.2325 -0.2898 -0.2080
24676W        W40810   1.189   6.110   5.917 -0.2083  0.1521  0.0673
24677W        W40811   4.757  14.352   1.177 -0.0137 -0.0715 -0.1010
24678W        W40812  10.514  10.898   4.600  0.1299  0.2723  0.2646
24679W        W40813   5.977  15.042  14.105 -0.0136  0.1210  0.1001
24680W        W40814  11.776  10.135  15.686  0.1793  0.0679  0.0149
24681W        W40815   8.181   8.816   5.372 -0.0647 -0.2854 -0.3551
24682W        W40816   5.238   8.170   0.878 -0.0114  0.0115  0.1725
24683W        W40817   8.372  17.725  11.117 -0.1874 -0.0738 -0.2576
24684W        W40818   9.102   0.761   1.082  0.0486  0.1805  0.0835
24685W        W40819   7.887   1.508   3.733 -0.1082  0.2983  0.1982
24686W        W40820  14.901  14.615   5.331  0.0219  0.1669  0.1462
24687W        W40821   4.840   7.271  15.304  0.1021  0.1584 -0.3628
24688W        W40822  12.693  16.849   3.873  0.1670  0.2193  0.1702
24689W        W40823   3.151   8.205  12.289 -0.4013 -0.1036  0.1739
24690W        W40824  17.709  15.721   3.060 -0.0484  0.0576 -0.0072
24691W        W40825  14.491  15.392   4.334  0.1188  0.0593 -0.1860
24692W        W40826  15.117  11.212   2.604  0.0286  0.0176 -0.0901
24693W        W40827   4.003   6.833   5.678  0.0804 -0.0748 -0.1930
24694W        W40828  13.691  17.400  14.698  0.0780 -0.3480  0.1667
24695W        W40829   9.676   9.742   4.991  0.0863 -0.1205  0.1913
24696W        W40830  16.705   3.540   5.158 -0.1054  0.0325 -0.3057
24697W        W40831   8.630  16.853  13.018 -0.2095 -0.0484 -0.1498
24698W        W40832  16.052   9.269  14.717  0.0173 -0.1380 -0.0383
24699W        W40833   5.418   4.081  13.071  0.0866 -0.0510 -0.2336
24700W        W40834   0.220  10.204  13.844  0.3119 -0.1962  0.0748
24701W        W40835   4.299   6.591   3.360 -0.2001  0.3130 -0.0784
24702W        W40836   1.343  16.545   3.345  0.3054 -0.2197 -0.0072
24703W        W40837   0.349   4.168   2.583 -0.1719 -0.2208  0.0950
24704W        W40838  16.947   7.998  15.567 -0.5769  0.2861  0.0476
24705W        W40839   0.339   9.954  14.270  0.1249 -0.3434  0.0810
24706W        W40840  17.551  16.827   0.583 -0.2192  0.3207 -0.1858
24707W        W40841   2.841  14.718   1.933 -0.0451 -0.0377 -0.0257
24708W        W40842   9.605  15.058  16.267  0.1012  0.0513 -0.1401
24709W        W40843   4.051   6.615   2.580 -0.0738  0.2600 -0.0423
24710W        W40844  12.860  11.186  13.216  0.1316 -0.1838  0.0272
24711W        W40845  10.075   7.744   5.015 -0.0689 -0.1020  0.0824
24712W        W40846   1.742   6.689   3.638  0.0284  0.1662 -0.0136
24713W        W40847  14.039   7.916   1.021  0.0926 -0.0939  0.5364
24714W        W40848   0.787   7.082   4.598  0.2957  0.0674  0.0212
24715W        W40849   3.723   1.206   3.397  0.0239  0.0444  0.2351
24716W        W40850  12.020   1.007  12.260 -0.0880  0.2912 -0.3949
24717W        W40851   8.856  12.007  13.159  0.2877  0.0531 -0.4208
24718W        W40852   1.199   4.275  15.697 -0.1739  0.2516 -0.1383
24719W        W40853   5.356   9.524   4.306  0.3913  0.0723 -0.1590
24720W        W40854   1.388   8.944   2.697 -0.0267  0.1717 -0.1484
24721W        W40855  15.755   3.757  15.698 -0.0171  0.0092 -0.1100
24722W        W40856  10.614  13.942  11.406  0.0446 -0.1254 -0.2445
24723W        W40857   9.982   1.869   4.664 -0.2515  0.0016  0.3114
24724W        W40858   9.111  15.185   6.190  0.2794  0.0813 -0.2287
24725W        W40859  11.727  15.179  15.606 -0.2056  0.1706  0.1934
24726W        W40860   4.474   0.825   4.550 -0.0951  0.0137 -0.1658
24727W        W40861   6.005  16.310   6.194 -0.0471  0.0810  0.0050
24728W        W40862  16.896   9.109   4.028  0.1166  0.1673  0.1300
24729W        W40863   5.846  15.370  11.629  0.1699 -0.1962 -0.2023
24730W        W40864   3.813  17.222   0.786  0.0046  0.0028 -0.2993
24731W        W40865   3.594  17.341  16.060  0.0473 -0.0817 -0.2284
24732W        W40866   6.760  14.418  12.281  0.3193 -0.2619 -0.1893
24733W        W40867   9.529   8.639  15.347  0.1943 -0.0100 -0.2048
24734W        W40868  11.115   5.059  13.056 -0.1441  0.0966 -0.2558
24735W        W40869  14.203   1.116  14.450 -0.1242  0.3550  0.2801
24736W        W40870   3.738   5.915   1.558  0.2551 -0.3251 -0.1041
24737W        W40871   5.690  15.511  15.418 -0.1971  0.2606  0.0557
24738W        W40872  16.564  13.177   0.821  0.1204  0.0271  0.1144
24739W        W40873   6.676   0.410   1.252  0.1573 -0.0575 -0.0783
24740W        W40874  15.165   0.344  15.283  0.0968  0.3362  0.0012
24741W        W40875   1.992  12.763  13.521 -0.0982  0.0556 -0.0542
24742W        W40876   7.117   4.898  11.750 -0.3539  0.0316  0.0764
24743W        W40877   2.888  15.328   2.701  0.0225 -0.2554  0.2591
24744W        W40878  14.951   6.817   1.435  0.0404  0.1943  0.1025
24745W        W40879  11.123  12.294  15.502  0.0039  0.3294 -0.0130
24746W        W40880   5.638  17.214   2.351 -0.2116 -0.2312 -0.0726
24747W        W40881   1.738  14.822   5.863 -0.0289  0.0198  0.1840
24748W        W40882  11.235   3.245   5.435  0.0338 -0.0711 -0.3710
24749W        W40883  15.621  10.594   0.379  0.0115  0.2682  0.1858
24750W        W40884   6.492   5.074   2.511  0.2064 -0.1644 -0.3952
24751W        W40885  14.115  14.193  12.806  0.0014 -0.0838  0.1050
24752W        W40886  15.675  16.161   4.893 -0.1064  0.2230 -0.1314
24753W        W40887  14.820   3.191  12.112 -0.3346 -0.1223 -0.0893
24754W        W40888   2.941   4.185   0.989 -0.0046 -0.0966  0.3288
24755W        W40889  13.845   5.972  16.164  0.1260 -0.1111  0.0374
24756W        W40890  11.160   6.009   3.947  0.0857  0.0405 -0.3721
24757W        W40891  11.791  17.448  15.273 -0.0957  0.1737  0.0272
24758W        W40892   7.657   0.814  11.173  0.1428 -0.3681 -0.0300
24759W        W40893   3.746   3.986  14.260 -0.1531 -0.1924  0.0430
24760W        W40894   6.292   4.459   2.802  0.0287  0.0390  0.1546
24761W        W40895  17.704   7.129  14.897 -0.0037 -0.0520  0.0279
24762W        W40896   7.396   6.749   4.619 -0.1756 -0.2283 -0.1337
24763W        W40897   4.864  12.963  14.338 -0.0338  0.0451 -0.0113
24764W        W40898   8.414   4.200  12.187  0.1155  0.1910  0.0135
24765W        W40899   7.299   1.926   2.244 -0.4282  0.1122  0.0804
24766W        W40900   9.481   5.809   2.748  0.0755  0.1573 -0.1792
24767W        W40901  13.135  18.000   2.931 -0.2125 -0.0190  0.1761
24768W        W40902  12.758  12.973   2.354 -0.3688  0.0750  0.1354
24769W        W40903   6.662   7.490   3.466 -0.3220 -0.1925 -0.2601
24770W        W40904   2.525  13.397   1.242  0.3772 -0.2222  0.1845
24771W        W40905   2.667   6.597   0.222  0.0377 -0.2006 -0.0104
24772W        W40906  16.206   5.708   2.071  0.0092  0.2103 -0.0568
24773W        W40907   9.426  12.885  14.429  0.0465  0.0338  0.2274
24774W        W40908  12.082   6.841   2.536  0.0556 -0.0987  0.0744
24775W        W40909   5.281   0.329  13.805  0.3025  0.1798  0.0962
24776W        W40910   8.447   4.418   0.524 -0.2120 -0.3050  0.1289
24777W        W40911   3.347   0.634   1.926 -0.1032 -0.0303  0.1193
24778W        W40912  15.908   9.907  16.249 -0.0867 -0.1800 -0.0570
24779W        W40913  11.036   3.980   2.932  0.0011  0.1183  0.1939
24780W        W40914   3.267  15.490  13.924  0.1065  0.3812 -0.1011
24781W        W40915   8.996   8.885  15.424 -0.0917 -0.3893  0.1545
24782W        W40916  10.391   3.826  14.696  0.0464 -0.1783 -0.4156
24783W        W40917   1.640  16.530   2.968 -0.0541  0.0876  0.0741
24784W        W40918   6.242  11.940   5.691  0.2314  0.0794 -0.2002
24785W        W40919  11.699   3.026   5.570 -0.0322 -0.0764  0.1619
24786W        W40920  17.878   1.201  13.838 -0.2616 -0.3793  0.0479
24787W        W40921  10.223   8.024   1.613  0.2274  0.1281  0.3355
24788W        W40922  10.521  17.354  14.833 -0.0918  0.1082 -0.3466
24789W        W40923  17.223   3.234  15.840  0.1005 -0.0675 -0.0931
24790W        W40924   3.554   7.670  13.898  0.1527 -0.0383 -0.2557
24791W        W40925  14.768   5.053  13.297 -0.0473 -0.1133 -0.4034
24792W        W40926  10.057  13.448  13.095 -0.1920 -0.0282  0.1124
24793W        W40927   1.239  10.800  11.433  0.0521  0.0020 -0.0998
24794W        W40928  14.375   5.805  12.871  0.0054  0.0231 -0.1855
24795W        W40929   2.666  17.338   2.050 -0.4624  0.0592 -0.0360
24796W        W40930  11.673   1.984  15.505  0.0888 -0.2179 -0.1230
24797W        W40931  10.865   5.527   2.079 -0.0547  0.0397  0.1133
24798W        W40932  11.253  16.564   4.108  0.2334 -0.0889 -0.1310
24799W        W40933   2.779  10.137  15.396  0.0293  0.0791 -0.2656
24800W        W40934   2.208  17.907  14.182 -0.0622  0.3319 -0.1238
24801W        W40935   2.401  17.664   1.610 -0.0642  0.4870 -0.2058
24802W        W40936   9.060  17.305  16.388  0.0038  0.0343  0.1272
24803W        W40937   8.116  17.859   3.745 -0.3345 -0.2751 -0.1546
24804W        W40938   7.543   3.587   4.855  0.0939 -0.0518 -0.0990
24805W        W40939  17.817   1.981   5.328  0.2503 -0.1003  0.1990
24806W        W40940  17.035   3.520  11.230 -0.0439  0.2569 -0.2638
24807W        W40941   9.808  13.597  16.033  0.1429  0.0960 -0.2856
24808W        W40942   6.969   9.898  15.272  0.0495  0.1903 -0.1858
24809W        W40943  12.087  15.184   5.126 -0.0918  0.1900  0.1225
24810W        W40944   1.214  17.292   3.959  0.0244  0.3383  0.2242
24811W        W40945  16.866  16.505   0.978 -0.2248 -0.4493  0.0185
24812W        W40946   0.359   2.611  13.362 -0.0920  0.0659  0.1187
24813W        W40947  10.253  15.628   5.644  0.1601 -0.0576 -0.3238
24814W        W40948  14.472  11.299   1.467  0.0244 -0.0125 -0.0628
24815W        W40949   9.703  11.527   1.700  0.1158 -0.1302 -0.1577
24816W        W40950   9.853  11.238   5.885  0.3316  0.1036 -0.0218
24817W        W40951   4.896  12.218  12.679 -0.0384  0.0375  0.1807
24818W        W40952  14.838  16.577   2.263 -0.0880  0.0989  0.1301
24819W        W40953  12.736  10.813  11.847  0.2014 -0.0794  0.1385
24820W        W40954  10.465  17.585   2.487  0.1452 -0.1554 -0.2100
24821W        W40955  12.978   1.232   5.517 -0.0892  0.1709 -0.0365
24822W        W40956   1.788   2.550   4.259  0.2724  0.0929  0.0498
24823W        W40957   4.604  10.526  12.347  0.2741 -0.1170 -0.0845
24824W        W40958   4.925   9.825   1.607 -0.0199  0.0058 -0.2534
24825W        W40959  14.689   4.205  14.194 -0.1732  0.0866  0.1240
24826W        W40960  14.205  15.063  13.970  0.0304 -0.0053 -0.0230
24827W        W40961   5.732   3.620   2.983  0.1208  0.0755 -0.1302
24828W        W40962   8.057  10.230  12.759 -0.1790  0.1268 -0.2406
24829W        W40963   0.213  12.923  12.809  0.4632 -0.0411 -0.0972
24830W        W40964  15.425   0.624  14.314 -0.1457 -0.4954  0.3364
24831W        W40965   0.528   7.949  12.192 -0.2650 -0.0981  0.0561
24832W        W40966  12.724   3.500   4.598  0.2664 -0.1397  0.1576
24833W        W40967   7.430  11.501  12.286  0.2012 -0.0367 -0.0991
24834W        W40968  12.592  10.075   2.397 -0.0838  0.0757 -0.0044
24835W        W40969   9.364   0.671  16.027 -0.1478  0.0807 -0.0327
24836W        W40970  12.320   4.126  14.882  0.0672  0.0429  0.1553
24837W        W40971   4.914   7.144  13.563 -0.1150  0.1013  0.0382
24838W        W40972  13.391  16.791   6.095 -0.0212  0.0854 -0.1267
24839W        W40973  14.570   7.456   0.145 -0.3109 -0.1941 -0.0763
24840W        W40974  13.762  17.027   0.051  0.2282  0.2927  0.0881
24841W        W40975   0.778  14.688   5.628 -0.0251  0.1183  0.2241
24842W        W40976  13.393  12.781  15.365 -0.0295  0.1810 -0.0214
24843W        W40977   3.838   9.707   2.494  0.0407  0.4099  0.0443
24844W        W40978  11.112   6.038  14.595  0.3072 -0.0812 -0.1095
24845W        W40979   2.494   5.524   1.969  0.2154  0.0809 -0.0025
24846W        W40980   8.277  10.056  14.918 -0.0401 -0.1513 -0.0938
24847W        W40981   0.744   0.348  13.611  0.1889 -0.0387 -0.0324
24848W        W40982   5.098   7.597  13.554  0.3673 -0.2232  0.1683
24849W        W40983  10.761   5.242   1.349 -0.1771  0.2552 -0.3042
24850W        W40984   2.031  15.756  15.490 -0.1642 -0.1113 -0.1570
24851W        W40985   3.739   2.428   0.296  0.3061  0.0416  0.0353
24852W        W40986  12.898   4.388  12.895 -0.0902 -0.0311  0.1374
24853W        W40987   7.645   9.260  16.213 -0.1738  0.0693  0.4262
24854W        W40988   3.495   4.426  16.161  0.0181  0.2322  0.0566
24855W        W40989  11.756   0.560  13.671 -0.3103 -0.2738 -0.0887
24856W        W40990   5.635   4.205  13.543  0.2492 -0.1709  0.0349
24857W        W40991  17.771   3.038   1.797 -0.0532 -0.0167 -0.0151
24858W        W40992   1.542  10.376   0.196  0.0286  0.0711 -0.0536
24859W        W40993   5.939   8.327   6.129  0.1390  0.0151  0.0375
24860W        W40994  15.123  11.662  12.662 -0.4617  0.2000 -0.0218
24861W        W40995   1.772   1.596   5.161 -0.0952 -0.0799 -0.1039
24862W        W40996   4.037  16.673   2.835  0.1056 -0.1259  0.1724
24863W        W40997  15.567   7.641  11.758  0.1290  0.3204  0.0896
24864W        W40998  10.419  12.869  15.790  0.0372  0.2173 -0.3101
24865W        W40999   3.332  15.338  13.352  0.4188 -0.0161 -0.0702
24866W        W41000   6.534   7.784   4.489 -0.1057 -0.3696  0.0830
24867W        W41001   3.290  15.522  15.148  0.1853 -0.2643 -0.2941
24868W        W41002  15.567   2.123  13.426  0.1119 -0.3597 -0.1630
24869W        W41003   5.703  13.162   2.587  0.0946 -0.3010  0.1246
24870W        W41004  10.289  10.066  16.405  0.2092  0.1830 -0.0765
24871W        W41005  11.504  12.874   1.837 -0.2429  0.1547  0.0836
24872W        W41006  13.705  12.341  14.456 -0.0616  0.0758 -0.0345
24873W        W41007   2.621   8.323  14.290 -0.0294 -0.0466 -0.0395
24874W        W41008  10.351  10.452   4.512  0.0011 -0.0083  0.1067
24875W        W41009   1.601  17.616   2.975  0.0791  0.0450  0.0017
24876W        W41010  16.754   8.239   1.190  0.2403 -0.2830 -0.0736
24877W        W41011  16.769  12.593  14.106  0.3918 -0.2299 -0.0441
24878W        W41012   8.066  15.081   2.577  0.2037  0.0762  0.1599
24879W        W41013   9.464  17.987  12.560  0.3004  0.3069 -0.2932
24880W        W41014   3.294  17.104  16.350 -0.2311 -0.3561  0.0575
24881W        W41015   6.885  11.861   5.252  0.3354  0.0426 -0.0610
24882W        W41016  12.179   4.311   1.048 -0.1611  0.2795  0.0475
24883W        W41017  15.721   4.533  11.666  0.2045  0.1418  0.1744
24884W        W41018  14.229  10.749  14.299  0.1166 -0.2719  0.1147
24885W        W41019   6.249   4.271   5.183 -0.1279 -0.0146  0.1291
24886W        W41020  17.966  11.238  14.277 -0.0769  0.0133 -0.0610
24887W        W41021  10.179   0.545   4.352  0.1381  0.1360  0.2549
24888W        W41022  11.491   3.719   4.354  0.0851 -0.0502  0.1105
24889W        W41023  16.473   8.793   4.006 -0.0512 -0.2129 -0.0404
24890W        W41024  15.993  11.683  11.463  0.2085  0.0302  0.0975
24891W        W41025   8.587  11.775  15.618 -0.0359  0.0712 -0.0452
24892W        W41026  17.212   3.678   4.216  0.0401 -0.0510 -0.1744
24893W        W41027  10.683  11.369   4.765  0.2485  0.1502 -0.1385
24894W        W41028  13.857  17.845   0.713 -0.1420  0.0126 -0.1286
24895W        W41029  11.252  12.585  11.419 -0.0961 -0.1984 -0.2127
24896W        W41030   4.561   0.891  14.518 -0.0127  0.0455 -0.2928
24897W        W41031  17.611   6.361  13.563  0.2879  0.0165 -0.0446
24898W        W41032  14.250  16.884   5.590 -0.0530 -0.0046  0.2351
24899W        W41033   0.614  11.262   0.473  0.5070 -0.3291 -0.0731
24900W        W41034  15.022   2.457  12.012  0.1242 -0.2848 -0.1538
24901W        W41035   8.043  15.878  15.257  0.2309 -0.0310 -0.2569
24902W        W41036   5.917   3.381   3.374 -0.0585  0.0511  0.2430
24903W        W41037   2.564  15.867   0.823 -0.0968 -0.1269  0.1497
24904W        W41038  11.237   9.544  14.818  0.2524 -0.0047  0.0319
24905W        W41039   5.075   1.659   0.236  0.1999 -0.2915  0.0833
24906W        W41040   8.890   3.986   2.185  0.0306  0.0379  0.0522
24907W        W41041  14.033   3.897   3.621 -0.1755  0.1225  0.3596
24908W        W41042  14.462   5.769  11.370 -0.1728 -0.2695 -0.1092
24909W        W41043   7.680   0.011   3.710 -0.0610  0.1325  0.1002
24910W        W41044  10.067  17.749   4.551  0.0118  0.0586  0.2042
24911W        W41045   4.888   1.576   0.971 -0.3147 -0.1571  0.1480
24912W        W41046   7.692   4.105   4.105  0.0721 -0.0277  0.0650
24913W        W41047   5.909  17.549  15.751 -0.1607 -0.2122 -0.2101
24914W        W41048   9.755   6.907  14.098  0.0847 -0.0937 -0.0152
24915W        W41049  17.544   2.582  15.088  0.1862  0.1999  0.0330
24916W        W41050  16.668  10.768   3.118 -0.0340 -0.3792 -0.0161
24917W        W41051  10.952  14.965  16.213  0.1947  0.2916  0.1707
24918W        W41052   9.775   1.546  11.691  0.4753 -0.2242  0.2085
24919W        W41053   8.861  15.629   3.582  0.0297 -0.2958 -0.0051
24920W        W41054   2.070  15.070  16.104  0.4030  0.0317 -0.0482
24921W        W41055  11.985  14.884  11.519  0.0291  0.1173  0.0413
24922W        W41056   8.174   3.865  14.522  0.1506  0.2698  0.0052
24923W        W41057   8.372   6.054   1.353 -0.0318  0.0979 -0.0808
24924W        W41058  13.990   6.134  12.974  0.0744 -0.0168 -0.0199
24925W        W41059  14.618  13.411   3.090 -0.0270 -0.2220  0.2784
24926W        W41060   2.372  10.867  16.120  0.0762  0.0233  0.2112
24927W        W41061  10.607   6.511   2.966  0.1347 -0.1156  0.1291
24928W        W41062   2.441   0.323  12.946 -0.0388 -0.1719 -0.0299
24929W        W41063  13.839   3.511   0.930  0.0408 -0.0631  0.0352
24930W        W41064  10.236   9.503  16.131  0.1658 -0.2487 -0.2918
24931W        W41065  11.806   6.972   0.795 -0.0364 -0.0986 -0.5018
24932W        W41066  13.807  13.621   4.115 -0.0959  0.4054  0.0978
24933W        W41067   3.642  12.038  15.398  0.0010 -0.0494 -0.0711
24934W        W41068  15.128  15.898  11.963 -0.1003  0.2783  0.3931
24935W        W41069  10.659   9.314   4.202  0.0277 -0.3411  0.1762
24936W        W41070  15.657  12.725   1.863 -0.1410 -0.0803  0.1745
24937W        W41071   9.719  14.891   4.486 -0.0942  0.3533  0.2938
24938W        W41072  15.912  14.817   3.759 -0.0847  0.3012  0.1981
24939W        W41073   4.890  13.165   4.679  0.0436 -0.1434  0.2832
24940W        W41074  16.794   6.213  15.254 -0.0731  0.1408 -0.1658
24941W        W41075  12.144  18.012  13.458  0.0036 -0.1395 -0.1402
24942W        W41076  13.074   1.163   2.148  0.2377 -0.3966 -0.1245
24943W        W41077  12.921  10.546   5.109  0.0122 -0.0676  0.2520
24944W        W41078  17.474  11.739   0.888 -0.2946 -0.1689 -0.0996
24945W        W41079   9.474  11.423  14.688  0.0857  0.2523 -0.0451
24946W        W41080   2.040   1.077  12.127  0.2326  0.0048  0.0358
24947W        W41081   5.350  13.671  12.547  0.2095 -0.0042  0.2216
24948W        W41082   4.310  10.529  11.490  0.1583 -0.1529 -0.1356
24949W        W41083   7.275  16.835  15.184 -0.3449  0.1991 -0.3173
24950W        W41084  10.115   6.558  14.502  0.1696 -0.0500  0.3189
24951W        W41085  15.062   2.977  15.303  0.2540 -0.1102 -0.0383
24952W        W41086   2.195   2.210  15.694 -0.0296  0.0379 -0.3210
24953W        W41087   6.153  17.800   0.990 -0.1059 -0.0687 -0.2033
24954W        W41088   4.443   2.249   3.196  0.1955  0.0662 -0.0611
24955W        W41089  16.195  15.694   4.140  0.1749 -0.0860  0.2159
24956W        W41090   3.549   4.863  11.267  0.1880  0.1715  0.0732
24957W        W41091  10.746   4.612   1.293 -0.0626 -0.0632  0.0500
24958W        W41092   2.066   9.937  15.633  0.3566 -0.1328 -0.1493
24959W        W41093  12.880  16.940   4.348 -0.0166  0.0379 -0.0604
24960W        W41094   5.795   8.867  12.458 -0.0207 -0.1530  0.0604
24961W        W41095   7.648   0.821  15.927  0.0587  0.1535 -0.2347
24962W        W41096   0.544  11.934  14.528  0.0509 -0.2830 -0.3863
24963W        W41097   8.710   3.083   5.355  0.0708  0.2890 -0.5691
24964W        W41098   5.941   7.386  12.113  0.3183 -0.1814  0.1821
24965W        W41099  12.010   0.712   1.582  0.0104 -0.2457 -0.6638
24966W        W41100  16.291  11.862  16.011  0.2750  0.2311 -0.3807
24967W        W41101   4.353   7.793  12.571  0.0934 -0.1842 -0.0340
24968W        W41102  16.289   5.528   2.498 -0.1366 -0.1476 -0.2799
24969W        W41103  14.304   6.510  13.785 -0.0077 -0.1582 -0.0129
24970W        W41104   7.444  12.683   1.610  0.2882 -0.0140  0.0191
24971W        W41105  16.818   5.551   5.831 -0.0040  0.3400  0.3287
24972W        W41106  13.339   9.698  15.529  0.2719  0.1932 -0.2762
24973W        W41107  11.700   8.912   5.001 -0.4200 -0.0672  0.0799
24974W        W41108   5.374   6.917   1.018 -0.0883 -0.3557  0.1367
24975W        W41109  13.202  16.662   4.927 -0.2646  0.0847 -0.3336
24976W        W41110   2.094   5.861  14.097  0.1246  0.0633  0.0924
24977W        W41111   5.558  11.724   2.888 -0.0260 -0.0973  0.1103
24978W        W41112   8.029   4.761  12.942  0.1589 -0.0627  0.1759
24979W        W41113   9.525   2.829   5.410 -0.0915 -0.2120 -0.1504
24980W        W41114   3.114  17.135  15.810  0.0069  0.3630  0.2658
24981W        W41115  13.196  10.730  12.086  0.1259  0.1131 -0.1492
24982W        W41116   9.961   6.832   0.556 -0.0609 -0.0014 -0.3118
24983W        W41117   3.284  10.215   4.956  0.1499  0.1141  0.1360
24984W        W41118   0.443  14.523   3.273  0.1667  0.1281  0.0629
24985W        W41119  17.959   1.737   2.246 -0.0662  0.1110 -0.2617
24986W        W41120  11.092  11.224  12.308  0.2069  0.0818 -0.1052
24987W        W41121   7.527   9.268   5.842  0.2798  0.0198 -0.3533
24988W        W41122  10.541   0.178  16.189 -0.1362  0.1586 -0.0325
24989W        W41123  13.587   4.713   0.266 -0.1411  0.0482  0.3214
24990W        W41124   0.160   1.802   3.569  0.0177 -0.1305 -0.0580
24991W        W41125  14.694  10.026  15.933  0.1790  0.0173 -0.0995
24992W        W41126  11.980  13.685  12.941 -0.1476 -0.0329 -0.2593
24993W        W41127   6.034  12.432   1.811 -0.0280  0.1184  0.2367
24994W        W41128   3.906  17.453   1.810  0.0672  0.0471 -0.1539
24995W        W41129   7.599  14.820   4.912 -0.0354  0.0720 -0.3095
24996W        W41130   9.942   7.859   2.093  0.0787  0.1073  0.1489
24997W        W41131   6.988   3.419   4.216 -0.2695 -0.2249  0.1105
24998W        W41132   0.696  14.515  16.043 -0.0556  0.1417 -0.1378
24999W        W41133   3.468   9.997  13.478 -0.2643 -0.0910 -0.1481
25000W        W41134  13.833  15.041   5.402 -0.1565  0.0162 -0.0616
25001W        W41135  11.756  15.429   4.788  0.0982 -0.2820 -0.0743
25002W        W41136   6.998  10.040   1.788  0.3640 -0.1262  0.3387
25003W        W41137  13.438   1.656   2.811  0.2841 -0.0208 -0.2311
25004W        W41138   5.842   2.869  11.544 -0.3196 -0.0549 -0.0893
25005W        W41139   1.644  16.702  12.963  0.2052 -0.2521  0.0313
25006W        W41140  11.469  14.689   1.759 -0.0663  0.1665  0.1823
25007W        W41141  10.993   9.712  15.758 -0.0950 -0.0987  0.0930
25008W        W41142  17.721  15.044   4.839 -0.0259  0.1403  0.5190
25009W        W41143   8.471  12.998  10.963  0.0187  0.1710  0.0696
25010W        W41144   1.982  13.604  12.240  0.0107 -0.1396  0.0756
25011W        W41145  16.819   4.223   3.524  0.0753  0.0441 -0.2979
25012W        W41146  12.322  17.342   0.487 -0.1294 -0.0874  0.2988
25013W        W41147   9.075   1.816   4.249 -0.0871  0.0901 -0.1092
25014W        W41148   7.666  11.765   1.780 -0.0469  0.2723  0.0838
25015W        W41149   4.944  12.936   2.781 -0.0606  0.0491 -0.1401
25016W        W41150   5.713  16.494  12.431  0.0673  0.0742 -0.2588
25017W        W41151   3.106  15.476  14.670  0.1609 -0.1573  0.2451
25018W        W41152  16.413   2.395  11.161  0.1292 -0.1026  0.2536
25019W        W41153  13.949  11.372  14.484 -0.3233 -0.4506 -0.1686
25020W        W41154  14.325  12.057   4.128 -0.0077  0.0771 -0.3129
25021W        W41155   0.040   1.789  12.396  0.2721  0.0092 -0.1874
25022W        W41156  10.119   2.041  13.346  0.1606 -0.0165 -0.2263
25023W        W41157   0.642  14.638  14.609  0.0087 -0.0522 -0.0261
25024W        W41158  15.044   5.882  14.423  0.0999 -0.2464  0.3268
25025W        W41159   0.371  14.068  11.981 -0.1391 -0.0635 -0.0336
25026W        W41160  15.218  13.731  11.110 -0.1515 -0.0217  0.2147
25027W        W41161   7.670   4.750  11.767 -0.1391 -0.1397 -0.3994
25028W        W41162  12.191   9.168  12.800  0.0435 -0.1141 -0.0917
25029W        W41163  13.598  10.376  15.926 -0.0928  0.0036  0.3597
25030W        W41164   7.668   6.496   4.004 -0.0012 -0.2097 -0.1335
25031W        W41165   5.592   6.355  14.497 -0.1323  0.1761  0.1004
25032W        W41166   3.403   7.039   3.043 -0.0634 -0.0057 -0.0689
25033W        W41167  12.008  16.111  11.433 -0.0654 -0.1168  0.0353
25034W        W41168  12.946  14.908  12.029  0.2201  0.0611 -0.2168
25035W        W41169   4.093   5.606  16.327  0.0697  0.0766 -0.1395
25036W        W41170  10.739   6.334  14.989  0.2521 -0.1907  0.0677
25037W        W41171   6.312   3.140   0.216  0.2630  0.0437  0.2090
25038W        W41172  17.398  14.077  11.514 -0.3455  0.1475 -0.2158
25039W        W41173   3.328   9.282  14.998  0.0029  0.3549 -0.1515
25040W        W41174  10.722  17.815   3.258  0.0732  0.0429 -0.0443
25041W        W41175   0.551  15.295   1.171  0.2910 -0.1653 -0.1405
25042W        W41176   9.297   9.493  12.376 -0.2681  0.1836  0.0757
25043W        W41177   2.906   7.103  13.233 -0.2882 -0.0891 -0.0983
25044W        W41178   1.146  14.648   3.586  0.1232 -0.1530  0.1621
25045W        W41179  17.587  17.779  12.872  0.1159 -0.0558  0.1049
25046W        W41180  12.681  14.811  14.223  0.0889  0.0479  0.0264
25047W        W41181   5.805  13.475  11.406  0.1576 -0.2801 -0.2724
25048W        W41182   6.447  12.175  11.323  0.2319  0.2025  0.1974
25049W        W41183   3.552  11.017   3.064  0.0440  0.0386  0.1025
25050W        W41184   0.300  15.056   3.173  0.1011  0.0759  0.2219
25051W        W41185   5.932   5.422  12.876  0.0035 -0.0755 -0.1416
25052W        W41186  14.297   6.759   0.921 -0.1649  0.1661  0.2252
25053W        W41187   7.903  14.454   1.845  0.0674  0.2110  0.0021
25054W        W41188   5.668   0.418   2.056 -0.1112 -0.0887  0.0831
25055W        W41189   3.612   3.621   2.160  0.2072  0.1143 -0.1166
25056W        W41190   9.691   4.332  12.897  0.2201 -0.1544 -0.2013
25057W        W41191   5.719   1.464  13.218 -0.1055 -0.0187  0.0158
25058W        W41192  10.727   8.457  16.110  0.1932  0.2755  0.1408
25059W        W41193  16.436   3.558  16.119 -0.4168 -0.2898 -0.0749
25060W        W41194  15.903   2.581   2.775 -0.5013 -0.0619 -0.0684
25061W        W41195   0.727   0.681  16.040 -0.0199  0.1334 -0.1236
25062W        W41196  16.288   8.136  16.282 -0.0592  0.1177 -0.0555
25063W        W41197  13.393  17.521   3.606 -0.1470  0.2792  0.3176
25064W        W41198   0.158  16.176  15.102  0.3852 -0.0002 -0.1119
25065W        W41199   6.790  10.791  13.339  0.0063 -0.0558  0.0080
25066W        W41200  17.142   0.784   3.343  0.0832  0.0973 -0.3104
25067W        W41201   8.594   4.607  13.558  0.1704 -0.0353 -0.0706
25068W        W41202  18.043  12.035   2.010  0.2102 -0.0240 -0.0975
25069W        W41203   5.819   6.108   3.345 -0.1110  0.0869  0.0782
25070W        W41204  13.216   7.231   4.854  0.2838  0.1818  0.0365
25071W        W41205  14.095   2.154  12.470 -0.1146 -0.3060 -0.1633
25072W        W41206  14.734   6.564  15.103 -0.2497 -0.0878  0.0291
25073W        W41207   9.608  12.406   3.295  0.0577  0.0891  0.4169
25074W        W41208   7.928  12.030   3.300  0.4207 -0.0969 -0.1708
25075W        W41209  11.106  13.843  12.717 -0.0089 -0.0667 -0.0072
25076W        W41210   4.231  11.880   1.595 -0.1568 -0.1067  0.0682
25077W        W41211   3.632   1.206  11.156  0.0383 -0.2155  0.1904
25078W        W41212   7.085  15.628   0.498  0.0482 -0.0520  0.0356
25079W        W41213   5.382   9.844   3.707  0.0757  0.0685 -0.2316
25080W        W41214   9.720  11.265   4.278 -0.0167 -0.1887 -0.2201
25081W        W41215   6.344  11.773  13.503  0.0923 -0.1240 -0.1096
25082W        W41216   8.781   7.794   4.310  0.0407 -0.0136  0.3591
25083W        W41217   2.840  12.619   0.487  0.1783 -0.0664 -0.1382
25084W        W41218  15.002   0.164   0.619  0.0380 -0.0618 -0.0914
25085W        W41219   1.114  15.448   2.587  0.0024 -0.0084  0.0117
25086W        W41220  13.634   3.916   3.348 -0.2055  0.3617 -0.0087
25087W        W41221   3.954  11.712   4.469  0.1117  0.0915  0.1983
25088W        W41222  11.672  13.216  13.070 -0.0664  0.1751 -0.3532
25089W        W41223  15.825  10.370   3.466  0.2098 -0.0275  0.0672
25090W        W41224   0.306  16.856  12.126 -0.0579 -0.1984  0.0561
25091W        W41225   4.907  15.687  11.586 -0.0645  0.0431  0.1062
25092W        W41226   8.218   2.015  15.636  0.2330  0.0439 -0.2282
25093W        W41227   3.537   6.237   1.115 -0.0446 -0.0028  0.0851
25094W        W41228  15.878   9.722   2.609 -0.1035 -0.1100 -0.2646
25095W        W41229   9.488  13.615   2.263  0.1222  0.0072 -0.1490
25096W        W41230   5.730  12.050  14.092  0.2102 -0.0990  0.0892
25097W        W41231   6.427   9.542  14.051 -0.0809 -0.0368 -0.0773
25098W        W41232   2.291  12.762  12.757  0.1808 -0.2525 -0.0823
25099W        W41233   4.322  13.543   3.719 -0.0453 -0.1301 -0.0261
25100W        W41234   2.161   8.226   2.022 -0.3945 -0.0181  0.0726
25101W        W41235  13.335   8.953  14.633 -0.2998 -0.3037  0.0330
25102W        W41236  15.062   3.661  13.291  0.2604  0.1644  0.0838
25103W        W41237   1.399  11.781  10.939 -0.2497 -0.0973  0.0780
25104W        W41238   9.713   9.428  11.606 -0.2516  0.0759  0.3526
25105W        W41239  15.084  13.178  14.057  0.2013 -0.0749 -0.3235
25106W        W41240  17.100   4.239   2.826 -0.0498 -0.3431 -0.0647
25107W        W41241   4.597   0.407   0.505  0.2079  0.1126 -0.0606
25108W        W41242  10.736  14.316   1.013  0.1657  0.2315 -0.4398
25109W        W41243   9.937  12.543  15.762 -0.0073  0.2405  0.2457
25110W        W41244   5.981   2.824  12.839  0.1129 -0.0534  0.0569
25111W        W41245  11.956  13.654  13.504  0.1619  0.0065  0.0080
25112W        W41246   7.380   4.131   0.718 -0.0861  0.0111  0.0428
25113W        W41247   7.149  12.887   1.213 -0.0202 -0.0709 -0.1818
25114W        W41248  11.228  10.869  15.172 -0.3291  0.1558 -0.1924
25115W        W41249   3.318   7.369  13.515  0.0763 -0.1786  0.3604
25116W        W41250  12.851   2.979  13.299 -0.0398  0.0948  0.0171
25117W        W41251  13.960  11.944  14.519 -0.1790  0.1003  0.1738
25118W        W41252   1.989  11.131   2.831  0.3909  0.1419  0.0675
25119W        W41253   5.721   6.982   3.639 -0.5824 -0.1551 -0.2070
25120W        W41254  11.770  17.001  10.360 -0.3908  0.1629  0.0022
25121W        W41255  10.278  16.946   3.453 -0.0080  0.2214 -0.3087
25122W        W41256   4.443  10.659   5.653  0.3945  0.1910  0.1219
25123W        W41257   5.769  12.446  15.036 -0.0364  0.3253  0.2731
25124W        W41258   0.479   7.973  14.050  0.0860 -0.0554  0.0103
25125W        W41259  16.283   2.657  12.397  0.0108 -0.1473  0.3740
25126W        W41260   3.117   4.682  12.187 -0.0112  0.0868 -0.0681
25127W        W41261   8.134   5.074   4.098 -0.0127 -0.1454  0.0237
25128W        W41262  16.758   2.232  15.647  0.2328 -0.1633  0.1454
25129W        W41263  17.187   7.085  13.156 -0.1412 -0.2248 -0.0904
25130W        W41264  11.142   8.962  12.833  0.0493  0.0409 -0.2966
25131W        W41265   1.262  11.484  13.843 -0.0810  0.1064 -0.1275
25132W        W41266   7.073   2.018  13.315 -0.0465  0.2631  0.3380
25133W        W41267  11.104  10.740  16.185 -0.2026  0.1044  0.2912
25134W        W41268  14.621  14.538  12.077 -0.1444  0.2537 -0.0989
25135W        W41269  13.774   5.000   1.463 -0.2168  0.0876 -0.0595
25136W        W41270   8.461   2.602   5.447  0.0722 -0.0696  0.1614
25137W        W41271   1.429  15.802  13.319 -0.2595 -0.1039 -0.0101
25138W        W41272   0.974   3.552   2.120 -0.1593 -0.0340 -0.0879
25139W        W41273   7.168   9.889  16.293  0.2421 -0.1382 -0.0204
25140W        W41274   8.840   2.463  13.714 -0.1637 -0.0261 -0.0722
25141W        W41275  13.418   9.796   1.891 -0.0796  0.1373 -0.0847
25142W        W41276   3.904  14.025   0.332  0.2662 -0.2293  0.2631
25143W        W41277  16.726  12.544  12.564  0.0691 -0.0253 -0.0499
25144W        W41278  11.669  11.206  15.331 -0.0940  0.3659  0.0080
25145W        W41279   3.875  14.138   3.452 -0.0614  0.0489 -0.0203
25146W        W41280  14.659  17.188   4.248  0.0350  0.2682 -0.1735
25147W        W41281   3.298   5.758   1.815 -0.2588  0.0157 -0.1204
25148W        W41282   0.889  15.774   0.659  0.1990  0.1511  0.1893
25149W        W41283   0.717   5.550  13.908  0.0049  0.0038 -0.0048
25150W        W41284   1.571  17.074  14.571 -0.0666 -0.0194 -0.2014
25151W        W41285   3.606  12.357  11.600  0.0813  0.0794 -0.3425
25152W        W41286   1.078   0.212  14.467 -0.2541  0.0532 -0.0250
25153W        W41287  12.575   0.168  11.492  0.0237 -0.0224  0.0969
25154W        W41288   3.021   9.483   1.380 -0.0709 -0.2158  0.0347
25155W        W41289   7.677   0.317  11.151  0.1414 -0.3305  0.2074
25156W        W41290  16.532  16.243  11.795 -0.1435 -0.0556  0.0678
25157W        W41291   7.898   3.411   4.539  0.4273  0.0886 -0.0541
25158W        W41292  17.070  16.509   3.469  0.1183  0.2744  0.3319
25159W        W41293   4.256  14.957  10.190  0.0409 -0.1134 -0.2468
25160W        W41294   4.029  12.013  14.407  0.2704  0.2764 -0.3068
25161W        W41295  11.007  15.444  13.949  0.3893  0.3299  0.1076
25162W        W41296   7.066  11.628  13.936 -0.0306 -0.2041  0.0512
25163W        W41297  14.247  14.231   5.599  0.1639 -0.2871 -0.4443
25164W        W41298   3.476  17.421   1.123 -0.5837  0.0349  0.2684
25165W        W41299   3.950   6.585   5.253 -0.0768 -0.0720  0.1227
25166W        W41300   1.141  12.538   0.884 -0.5769 -0.1091  0.0965
25167W        W41301   5.467   1.177   3.112  0.0438  0.0398  0.0994
25168W        W41302   0.360   9.583   3.939  0.1318  0.0918 -0.0896
25169W        W41303   7.156  11.380  16.381  0.0254 -0.1393  0.1056
25170W        W41304   9.871   4.594   4.017 -0.2159 -0.0145  0.3459
25171W        W41305   1.582  15.805   1.809 -0.1126  0.0502  0.1412
25172W        W41306   7.242   0.357  13.732  0.3037  0.2345 -0.3147
25173W        W41307   9.423   1.329  16.116  0.0366  0.0429  0.0528
25174W        W41308  10.946   4.069  13.467 -0.0912 -0.0140  0.0658
25175W        W41309   9.237   7.677  11.945 -0.2382  0.3727  0.2429
25176W        W41310  16.600   0.378  12.851  0.2893  0.1306 -0.1878
25177W        W41311  16.889   3.918   3.158  0.0093  0.0215  0.0167
25178W        W41312  17.393  10.817   5.437 -0.1461 -0.1777  0.0505
25179W        W41313   9.366  11.651   3.615  0.0213 -0.1531 -0.0169
25180W        W41314  11.934   1.177   2.998  0.0345 -0.5946  0.0103
25181W        W41315   3.138  10.417   4.503  0.2749 -0.0175 -0.3323
25182W        W41316   8.774   9.566   0.271  0.0087 -0.0776 -0.1108
25183W        W41317  15.857   4.433   0.381  0.2377 -0.0743 -0.1737
25184W        W41318   5.631  18.006   4.631  0.1029  0.2475  0.0263
25185W        W41319   8.896   7.706   2.980  0.0963 -0.0948  0.0103
25186W        W41320   5.137   9.224  14.521  0.3663  0.1484  0.1492
25187W        W41321  11.603   0.846  12.198  0.1515 -0.0861 -0.0703
25188W        W41322   7.756   7.295   0.767  0.1204  0.1533  0.0959
25189W        W41323   8.539  10.427  12.907  0.0379 -0.0479  0.0898
25190W        W41324   2.192   3.007  14.416 -0.0715  0.2006  0.1533
25191W        W41325  17.124   1.724  11.574 -0.2721 -0.2040 -0.0024
25192W        W41326  18.068   4.844   3.534 -0.1982  0.3847 -0.1188
25193W        W41327   7.024  14.312   2.553 -0.1127 -0.0886 -0.0442
25194W        W41328   4.166   3.803   4.955 -0.1325  0.2224 -0.0785
25195W        W41329  16.869  12.593  11.782  0.1117 -0.0302  0.1306
25196W        W41330   8.937   6.563   0.867  0.0019  0.1352 -0.1671
25197W        W41331   2.135  16.455   0.121  0.2082 -0.0245 -0.0215
25198W        W41332  16.997   0.382  15.053 -0.3842 -0.0155 -0.3326
25199W        W41333   0.061  16.092   1.285  0.1736  0.2835  0.0230
25200W        W41334   4.749  10.158   0.055  0.0555  0.3139 -0.1616
25201W        W41335  13.267   6.334  11.882  0.2225  0.0566  0.1616
25202W        W41336  12.179  11.785  11.566  0.1650  0.1296  0.1147
25203W        W41337   1.114   9.045  11.938 -0.1422  0.2323 -0.1936
25204W        W41338  11.715  11.456   1.457 -0.1285 -0.0185 -0.1669
25205W        W41339  16.239   8.700  16.053 -0.1304  0.3901 -0.1605
25206W        W41340   2.480   1.080   4.550  0.1934 -0.0606  0.0150
25207W        W41341   8.419   0.425   0.007 -0.2348 -0.2791 -0.0792
25208W        W41342  15.448   1.811   3.778 -0.2693 -0.1800 -0.1212
25209W        W41343   8.619   6.019  12.682  0.2025  0.0909  0.0197
25210W        W41344  16.058  16.050   0.835 -0.0092  0.5746  0.5125
25211W        W41345   3.554  16.238  15.698  0.2101 -0.0156 -0.0403
25212W        W41346   3.151   8.248  14.506  0.1458  0.0066  0.2002
25213W        W41347   7.838   3.587  13.812 -0.0049 -0.1938  0.0264
25214W        W41348   6.692  12.253   2.386  0.0628  0.3608 -0.2516
25215W        W41349  16.312  12.764   9.960 -0.2281  0.0704 -0.1432
25216W        W41350  13.881   3.717   0.492  0.2960  0.0302  0.2642
25217W        W41351   9.815   5.189  14.771  0.0760  0.3757  0.0720
25218W        W41352  14.431   5.329   3.504  0.1257  0.3035 -0.2405
25219W        W41353  13.462  17.539  15.188  0.1735 -0.3104 -0.2229
25220W        W41354  11.964   6.629  11.513 -0.0326 -0.0815  0.2388
25221W        W41355   1.276  12.318  14.206 -0.3300 -0.0048 -0.1680
25222W        W41356  11.609   7.368   0.002 -0.0214  0.1293 -0.3545
25223W        W41357  11.012   6.244  16.370  0.0765 -0.2808  0.1461
25224W        W41358  16.719   8.984  15.213  0.2737  0.2663  0.3364
25225W        W41359   7.164  14.609   4.951  0.2130  0.0587 -0.2363
25226W        W41360  16.289   9.359   1.883  0.1155 -0.1367  0.3148
25227W        W41361   0.731  10.830  12.793  0.0145  0.0219 -0.1152
25228W        W41362   6.308   2.825   0.859 -0.2256 -0.1397 -0.1444
25229W        W41363   3.121  15.165   0.569 -0.1681  0.2575  0.1838
25230W        W41364   5.161   9.741  14.428  0.0637 -0.1800 -0.2534
25231W        W41365   6.516  10.588  16.021 -0.0262 -0.0164  0.1925
25232W        W41366   4.717   1.803   4.522 -0.0739 -0.2744  0.0914
25233W        W41367  13.649  15.095  11.552  0.1073  0.1080 -0.1005
25234W        W41368   9.849   4.628   4.758  0.1139 -0.0691  0.0470
25235W        W41369   4.523   4.555   0.313 -0.1162  0.1389  0.0520
25236W        W41370   1.247   1.985  12.333  0.0382 -0.0495 -0.2839
25237W        W41371  15.346  17.684   5.907 -0.3145 -0.2583 -0.1612
25238W        W41372   2.155  16.945   1.479  0.2316  0.1304 -0.3059
25239W        W41373   0.196  17.853  12.055 -0.2578 -0.5378  0.4563
25240W        W41374   8.159   5.641   1.485  0.0405 -0.0342  0.0621
25241W        W41375   1.454  16.314   4.110 -0.0673  0.1998  0.2491
25242W        W41376   2.611  17.908   4.744 -0.1918  0.1408  0.0990
25243W        W41377  16.167   0.704   5.189  0.2344 -0.3504 -0.3742
25244W        W41378   0.100   9.825  15.951  0.0158 -0.0600 -0.0684
25245W        W41379  15.060  14.861   3.922 -0.1770  0.2155  0.1696
25246W        W41380  15.759   5.602  11.801 -0.0205  0.1927  0.1160
25247W        W41381  10.858   2.311   0.554 -0.0432  0.0650 -0.2108
25248W        W41382  13.988   7.187   0.899  0.0013 -0.3892 -0.2646
25249W        W41383  13.863   9.358  15.831  0.0251 -0.0818  0.0260
25250W        W41384   3.274  15.054  14.408 -0.3628 -0.2583  0.1822
25251W        W41385  12.458  10.734  14.125 -0.0477  0.1566  0.0018
25252W        W41386   3.121   8.212   2.776  0.1412 -0.0312  0.2852
25253W        W41387  14.683   6.749  12.980  0.1344  0.1527  0.0643
25254W        W41388   9.236  15.383  16.000 -0.1898 -0.0052  0.0576
25255W        W41389  14.749  15.530  11.643 -0.3457 -0.4526 -0.2005
25256W        W41390   2.480   6.199   0.431  0.1089 -0.0606  0.0438
25257W        W41391   2.046  14.945  13.761  0.2519 -0.1379 -0.1257
25258W        W41392  13.729   7.299  12.202  0.2281 -0.2894 -0.0450
25259W        W41393   0.405   8.762   1.735  0.1333  0.0702 -0.0332
25260W        W41394   4.806  11.425   5.378  0.2085  0.0481 -0.3166
25261W        W41395  11.403  12.841   5.196 -0.0711 -0.1376  0.0384
25262W        W41396  10.042  10.837   5.378 -0.0041  0.0399  0.1188
25263W        W41397  13.073   4.921   4.591  0.0279 -0.2234  0.0178
25264W        W41398   7.318  18.026   5.777 -0.0748 -0.1003  0.1243
25265W        W41399   7.366   9.011   4.930 -0.0448  0.1107 -0.0055
25266W        W41400  10.149   7.135   5.264 -0.1580  0.0563 -0.0076
25267W        W41401  11.782  15.772   0.245 -0.0134 -0.0355 -0.2354
25268W        W41402   1.598   1.346   1.708  0.3586  0.0399  0.0011
25269W        W41403  11.656   4.009  15.979  0.0059  0.1075 -0.0148
25270W        W41404  10.306   3.814  13.869 -0.0908 -0.1486 -0.1974
25271W        W41405  14.398   9.247  15.727  0.0977  0.0829  0.3308
25272W        W41406  11.830   4.833   5.274 -0.3134  0.0176  0.0523
25273W        W41407   5.050   0.966   3.872  0.0911  0.0649 -0.2746
25274W        W41408  12.368  15.986  14.997 -0.4297 -0.0015  0.0114
25275W        W41409  11.530   0.890   2.710  0.1176  0.1057  0.1756
25276W        W41410   2.623   8.740  11.671  0.1082  0.0878 -0.0141
25277W        W41411   7.561   9.360  14.702 -0.1548  0.0640  0.2181
25278W        W41412   8.851   4.488   2.982 -0.0478 -0.0570 -0.2494
25279W        W41413  17.827  12.286  11.686  0.1616  0.0107 -0.1684
25280W        W41414   9.986   7.627  13.670 -0.2784 -0.1288  0.1497
25281W        W41415   5.051   2.371   1.233  0.1836  0.2709  0.0421
25282W        W41416   3.158  10.480   6.339  0.2355 -0.0108 -0.2540
25283W        W41417   1.832  12.962  12.562  0.1340  0.3594 -0.0718
25284W        W41418   5.189   0.591   3.169 -0.2470 -0.0321 -0.0484
25285W        W41419   0.061  10.067   1.377  0.2501 -0.0510 -0.0648
25286W        W41420  11.344  17.961  14.056 -0.2038  0.3792 -0.0915
25287W        W41421   4.809  17.438   0.639  0.0037  0.0684 -0.3260
25288W        W41422  11.204   0.536  15.566  0.0083  0.1605 -0.0164
25289W        W41423   7.029  11.833  11.832 -0.0662  0.0634 -0.0189
25290W        W41424   2.623   4.488  12.384 -0.0776 -0.1768  0.2270
25291W        W41425   7.787  11.629   2.943  0.0897  0.2216  0.0676
25292W        W41426   1.884  12.245  12.321  0.0611  0.0385  0.1793
25293W        W41427   2.392  12.546   4.176 -0.2808  0.0627 -0.0729
25294W        W41428   7.136  16.202   1.791  0.2443 -0.0273 -0.3562
25295W        W41429   8.745  11.849  12.321  0.1229  0.2215  0.0949
25296W        W41430  14.086   6.354   2.326 -0.0117  0.1976 -0.1090
25297W        W41431   9.312   2.208  15.873  0.0058  0.0904 -0.0642
25298W        W41432  12.088   4.231   1.824 -0.0562  0.1804  0.0168
25299W        W41433  12.398   7.259  13.666  0.3052 -0.0921  0.1303
25300W        W41434   6.084   5.014  11.984 -0.1464 -0.2781  0.0553
25301W        W41435  17.579  12.532   5.099 -0.0318 -0.0040  0.1201
25302W        W41436   4.326  11.035  10.473 -0.1166  0.0571  0.3224
25303W        W41437   3.726  14.493   5.422 -0.0804 -0.0715  0.0418
25304W        W41438   7.174   2.260  14.661 -0.0751  0.0526 -0.5782
25305W        W41439  15.896   0.808   3.945 -0.0157  0.1428  0.1522
25306W        W41440  17.506   4.544  10.957 -0.0372 -0.0389 -0.0840
25307W        W41441   6.431  12.709   0.434  0.3138  0.0343 -0.0289
25308W        W41442  16.553   5.329   1.082 -0.0993  0.2402  0.2236
25309W        W41443   2.126   6.455  13.029 -0.3831 -0.0558 -0.0561
25310W        W41444  14.721  16.936   1.249 -0.0379  0.3472  0.0282
25311W        W41445  14.511  10.763   1.774 -0.0116 -0.4743 -0.2364
25312W        W41446   6.230  13.244  14.514 -0.0798 -0.1205 -0.0444
25313W        W41447   9.625   3.584   6.325 -0.0674  0.1126 -0.0782
25314W        W41448  17.421   1.282   0.410  0.0330 -0.3145  0.1387
25315W        W41449   8.774   8.182   4.655  0.3909  0.3201 -0.0041
25316W        W41450   1.545  10.698  14.196 -0.1755  0.1491  0.2108
25317W        W41451   4.109  14.034  11.660  0.1089  0.2307 -0.2993
25318W        W41452  13.807  14.260   0.413 -0.2682 -0.1902  0.0117
25319W        W41453   2.445   6.317  16.240  0.1841  0.1223  0.0647
25320W        W41454   8.498  14.731   0.030  0.0041 -0.0245 -0.1051
25321W        W41455   6.909  14.928  13.781  0.2017 -0.0602 -0.1799
25322W        W41456   1.907  15.891  15.014  0.0491 -0.3881 -0.0005
25323W        W41457   3.581  12.739   0.675 -0.1115  0.2164 -0.3306
25324W        W41458  11.826  11.078   5.372 -0.0058  0.1123  0.2103
25325W        W41459   3.774  15.762  16.066 -0.2388  0.0302  0.1144
25326W        W41460   0.291   5.504   0.934 -0.1525  0.1510  0.3265
25327W        W41461   1.144  11.603  12.015 -0.1332 -0.3055 -0.2683
25328W        W41462   6.861   9.187   2.889  0.1191  0.1186  0.2273
25329W        W41463  11.308   9.707   1.819 -0.0440  0.2700  0.0535
25330W        W41464  12.929   6.429  15.771 -0.0409 -0.1901 -0.3294
25331W        W41465  10.832   5.586  15.700  0.2621  0.0811 -0.3454
25332W        W41466  10.126   4.285   3.130 -0.0775  0.3080  0.1399
25333W        W41467  18.078   0.510   1.759 -0.1283  0.2383  0.1132
25334W        W41468   3.766  13.841   2.166 -0.0942  0.2756 -0.1459
25335W        W41469  15.516   2.512   0.537 -0.1699 -0.0879 -0.1769
25336W        W41470  14.403  13.102   4.703  0.0683 -0.1172  0.0512
25337W        W41471   1.590  15.033   4.921  0.1173  0.2196  0.0583
25338W        W41472   5.936   1.212  14.027  0.0684  0.0627  0.0452
25339W        W41473  12.438  14.035   0.781 -0.2293  0.0416 -0.1001
25340W        W41474   2.952  15.961  13.791 -0.1652  0.0292 -0.1013
25341W        W41475  11.847  17.323   2.560  0.2823  0.0330 -0.1203
25342W        W41476   9.990   2.540   1.464  0.1750  0.0527  0.2078
25343W        W41477  16.270  16.757  13.727  0.1408 -0.1486 -0.0617
25344W        W41478   6.804   0.463  12.987  0.2173  0.0682 -0.0242
25345W        W41479   2.268  13.714   2.538  0.4233 -0.2653  0.0052
25346W        W41480   9.138   9.407   2.619  0.1859 -0.2848 -0.0141
25347W        W41481  15.122   8.361  11.333 -0.0691  0.1139  0.1917
25348W        W41482   6.074   4.093   3.432  0.0227 -0.0790 -0.0219
25349W        W41483   8.286  10.815  13.997  0.1087 -0.1247  0.1014
25350W        W41484   3.351   5.303  15.895  0.1647 -0.1486 -0.1137
25351W        W41485   7.376   5.237  13.483  0.0604 -0.2650 -0.0051
25352W        W41486   3.508   6.444   5.037 -0.0910 -0.0916  0.0558
25353W        W41487   4.531   5.548  11.620  0.3594  0.1083  0.0959
25354W        W41488   4.687   8.162  12.856 -0.0786  0.3166  0.0374
25355W        W41489   2.330  11.936  15.401 -0.2536 -0.0890  0.1339
25356W        W41490   1.373   8.959  14.400 -0.0509  0.1096 -0.0301
25357W        W41491  16.018  14.330   2.324 -0.1455  0.0078 -0.1698
25358W        W41492  12.302   9.765  13.913 -0.0739 -0.2643 -0.0448
25359W        W41493   1.462  12.213  11.260 -0.2839 -0.3190  0.2186
25360W        W41494   1.337   6.969   0.213  0.2174 -0.1745  0.3210
25361W        W41495  10.715   9.385  16.079 -0.2244  0.1422 -0.0321
25362W        W41496  12.690   0.191   4.743  0.0003  0.1784 -0.2818
25363W        W41497  16.673   2.437  11.986  0.3911 -0.0847  0.1853
25364W        W41498  15.330   5.790   4.858  0.1137 -0.1278 -0.0908
25365W        W41499   3.521   4.940  12.323 -0.0615  0.1428  0.1604
25366W        W41500   4.975   8.890  13.223 -0.1957 -0.0510 -0.1713
25367W        W41501   7.139  13.597  14.809 -0.3164 -0.1617  0.0360
25368W        W41502   6.105  16.635   1.650  0.1945  0.0880  0.0018
25369W        W41503  11.228   0.341   2.879 -0.0723 -0.1243 -0.1759
25370W        W41504  13.813  14.296  13.477 -0.0818 -0.0417 -0.0217
25371W        W41505   1.503   2.964   4.550 -0.0659  0.2532  0.2346
25372W        W41506  15.316   1.984  11.792 -0.1699  0.0228 -0.1598
25373W        W41507   6.684  15.571   3.669 -0.0914 -0.0173  0.4521
25374W        W41508  15.857   4.066   5.153  0.1950  0.0845  0.2723
25375W        W41509  11.222  17.912   3.088 -0.0120 -0.3445  0.0256
25376W        W41510   3.030  12.043  14.448 -0.1167  0.0388  0.0052
25377W        W41511  14.509  17.719   4.305  0.0454 -0.1424  0.1388
25378W        W41512  10.761   4.541  14.311 -0.4152  0.2556 -0.0098
25379W        W41513  16.222  16.619   5.952  0.1149 -0.0003  0.0868
25380W        W41514  14.096  10.641  12.250  0.0819  0.2162  0.5710
25381W        W41515  10.086  14.689   1.380 -0.0361  0.1521  0.1328
25382W        W41516  15.586  14.030   5.053  0.1991  0.0132 -0.0313
25383W        W41517  13.895   7.253   4.818 -0.0494 -0.2789 -0.1493
25384W        W41518   4.867   5.847   3.240  0.1590 -0.1878  0.3308
25385W        W41519  10.611   0.005   2.341 -0.1342  0.0346  0.3098
25386W        W41520   8.009   3.997   6.073  0.1690  0.0325 -0.0539
25387W        W41521  13.120  13.776  12.084 -0.0595  0.0917 -0.2476
25388W        W41522  12.998  13.446  11.702 -0.2823 -0.2611  0.0028
25389W        W41523  15.136   4.363  10.834 -0.0342  0.1494 -0.0448
25390W        W41524   8.697  15.897   4.767  0.4485 -0.1877  0.4520
25391W        W41525  13.440   5.226  14.792  0.0244  0.0068 -0.1432
25392W        W41526  11.366   6.993   1.921 -0.0337 -0.0574 -0.0875
25393W        W41527  14.791  13.841   0.786  0.0575 -0.2399  0.1804
25394W        W41528   6.854   3.102   2.395 -0.0425  0.0246  0.1094
25395W        W41529   5.238  10.835   1.856  0.2761 -0.1600  0.0975
25396W        W41530   8.658  14.609   1.282 -0.1464  0.0290 -0.1381
25397W        W41531  11.856   6.118   2.067 -0.1020  0.2633  0.1034
25398W        W41532   7.599   8.449  12.481  0.0900 -0.0641 -0.2134
25399W        W41533   9.435  13.509   0.243 -0.2106 -0.0756 -0.0003
25400W        W41534   9.142   3.115   0.920  0.0861  0.2358  0.0125
25401W        W41535  16.591  13.094   0.349 -0.0134 -0.0872 -0.0797
25402W        W41536  13.216  12.523  14.426  0.2973 -0.0608 -0.1629
25403W        W41537   5.199   5.019   1.413 -0.0948 -0.0726 -0.0953
25404W        W41538   8.908   2.290  12.959 -0.1040  0.1330 -0.0159
25405W        W41539  12.892   5.481   1.076  0.2295  0.1752 -0.0451
25406W        W41540   2.611  12.690  13.150 -0.1075 -0.0688 -0.0665
25407W        W41541   8.288   8.279   4.835 -0.0732 -0.1556  0.0586
25408W        W41542  12.334  16.743   1.043  0.0034  0.1336 -0.0677
25409W        W41543  10.999   1.611  12.446  0.1243  0.2118  0.1450
25410W        W41544   8.451  16.338   1.629  0.0642 -0.2313 -0.0760
25411W        W41545   9.255   1.279   3.629 -0.0507  0.2772 -0.2528
25412W        W41546   6.559   1.712   4.987 -0.1228 -0.1823 -0.0076
25413W        W41547  18.084  11.064   1.961  0.2585  0.2929  0.0822
25414W        W41548  12.391  13.972   1.409  0.0338  0.2163  0.0487
25415W        W41549  12.330   6.085   6.093 -0.1703  0.1397  0.0602
25416W        W41550   9.113   9.391  11.578 -0.2615  0.3096  0.0464
25417W        W41551  16.752  12.110  16.351  0.0910  0.2003  0.0159
25418W        W41552  13.628  11.252  12.804  0.0383 -0.2447  0.1049
25419W        W41553   1.497   8.558   6.482  0.1621  0.0865 -0.2661
25420W        W41554   3.530   9.767   5.333 -0.3222 -0.1632  0.1042
25421W        W41555   2.721   8.500  15.296 -0.2039  0.2063  0.4596
25422W        W41556   3.223   3.889  16.032 -0.0868  0.2588  0.0039
25423W        W41557  15.243  18.057  15.638  0.1343 -0.0581 -0.0058
25424W        W41558  12.208  14.679  13.999  0.0900 -0.2788  0.0688
25425W        W41559   5.498  11.408   1.960 -0.0360  0.0537  0.0136
25426W        W41560   2.827  13.249  16.387 -0.1120 -0.0497  0.0852
25427W        W41561   4.028   2.749  15.056  0.1347  0.0679  0.1149
25428W        W41562   4.532   3.690  13.119 -0.0079  0.0634  0.1299
25429W        W41563  17.093   3.443  13.135 -0.0825 -0.0033  0.0962
25430W        W41564   3.039   1.537   1.769 -0.1183 -0.1684 -0.3517
25431W        W41565   1.231   6.109   4.161  0.2504  0.0398  0.4808
25432W        W41566  16.359  12.617  11.956 -0.3048  0.1653  0.0923
25433W        W41567  12.687   6.667   1.014  0.0158  0.0376 -0.1875
25434W        W41568  13.242  11.086   3.743 -0.0302 -0.3459 -0.1570
25435W        W41569   0.642   3.653  15.063  0.2883  0.0227 -0.1252
25436W        W41570  17.177  12.742   3.789  0.2917  0.3373 -0.0837
25437W        W41571   3.348   1.587  16.411 -0.0404  0.0094 -0.2705
25438W        W41572  17.062  16.395  11.874 -0.2529 -0.0084 -0.1038
25439W        W41573   8.572  15.608  13.789  0.0478  0.2049 -0.0723
25440W        W41574  15.760  16.542  12.064  0.1181 -0.2507 -0.3743
25441W        W41575  17.685   1.130  16.095  0.0475  0.1484  0.1473
25442W        W41576   8.389   7.192  15.242 -0.2577  0.0620 -0.2653
25443W        W41577  14.954  15.538  15.575 -0.1417  0.1462 -0.0534
25444W        W41578   8.098   5.920  15.412 -0.2305  0.0653 -0.0152
25445W        W41579   7.676  10.696  14.935  0.0904  0.0417  0.0397
25446W        W41580  10.930  17.710   2.264  0.2690  0.0909 -0.1659
25447W        W41581   0.861  11.163  15.234 -0.1383 -0.0577 -0.1607
25448W        W41582   2.475  15.872  11.727  0.2543  0.1911  0.0815
25449W        W41583  17.520  10.311   6.195  0.0670  0.1989 -0.2165
25450W        W41584   4.854  13.821   3.017  0.3868 -0.0460  0.0466
25451W        W41585   3.413   5.924   5.081  0.0020 -0.0988  0.1819
25452W        W41586  14.129  17.284  14.398 -0.3059  0.3258 -0.0160
25453W        W41587   2.060   6.420   0.134  0.2340 -0.1119 -0.2442
25454W        W41588  16.794  16.773   4.333  0.1131 -0.3490 -0.1755
25455W        W41589  11.829   9.844  15.255  0.2078 -0.0208  0.0162
25456W        W41590  10.448   5.202   2.587  0.2561  0.1866  0.0512
25457W        W41591  12.995  17.480   5.008 -0.2255  0.1422 -0.0703
25458W        W41592   0.494   2.469   1.901 -0.1455  0.0379 -0.1022
25459W        W41593  14.828   1.459   2.737 -0.0706  0.3814 -0.0561
25460W        W41594  17.499   6.733  11.897 -0.0403  0.2535 -0.1122
25461W        W41595   0.645  15.061  14.973  0.3503  0.2444 -0.3568
25462W        W41596   0.286   5.884  13.844  0.1684 -0.1433 -0.0252
25463W        W41597   1.884  17.855  13.640 -0.0857 -0.1205  0.1121
25464W        W41598  13.923   6.281  13.460  0.0796 -0.1044 -0.2920
25465W        W41599  11.233   7.908   4.553 -0.1004 -0.0547  0.2776
25466W        W41600  15.815   4.296   3.065  0.3869 -0.1027  0.1945
25467W        W41601   2.939   3.101   3.402  0.0475 -0.1826 -0.1782
25468W        W41602   8.938   0.503  11.830 -0.1062  0.2105  0.1290
25469W        W41603  17.112   6.956   5.231 -0.1247  0.0007 -0.0010
25470W        W41604  12.464  15.935   4.216 -0.0969  0.2711  0.1722
25471W        W41605   0.570  16.504   0.450 -0.1540  0.2881 -0.1504
25472W        W41606  15.545  16.172   2.197  0.1161 -0.2006 -0.1794
25473W        W41607   2.410   6.907   3.920  0.4038  0.1223 -0.4421
25474W        W41608  12.365  12.137  11.999  0.0739  0.1624 -0.1247
25475W        W41609  15.619  12.291  12.500 -0.1130  0.0817  0.0362
25476W        W41610   1.048  11.764  13.489 -0.0380  0.0026 -0.0365
25477W        W41611   7.058  14.296  11.131  0.1258 -0.0182  0.0993
25478W        W41612  15.426   6.897  14.176 -0.0332  0.1972 -0.1412
25479W        W41613   9.914  12.301  11.525  0.0778 -0.0897  0.1865
25480W        W41614   9.371   8.005   1.219 -0.0185 -0.1144 -0.1046
25481W        W41615   5.809   8.918   4.621  0.0911 -0.3852 -0.2484
25482W        W41616  14.091   2.491  13.964 -0.0527  0.0214  0.0642
25483W        W41617   2.618   5.869   4.567  0.2191 -0.0876 -0.1592
25484W        W41618   1.296  13.900   1.181 -0.2283 -0.0723 -0.1158
25485W        W41619  17.346   9.689  15.160  0.0078  0.2008 -0.4486
25486W        W41620   6.197  14.950  11.923  0.1913 -0.0242 -0.1830
25487W        W41621   0.777   9.564  11.698  0.0977 -0.0806  0.0377
25488W        W41622   8.926   4.966   3.699 -0.0403 -0.1714 -0.0753
25489W        W41623   6.950   0.129   2.918 -0.1897 -0.1272  0.0939
25490W        W41624  16.827   7.183  16.031  0.1333 -0.2125 -0.1503
25491W        W41625  12.166  12.642  13.807 -0.1290 -0.1852  0.0276
25492W        W41626  14.438  12.579   0.739  0.2797  0.0041 -0.1611
25493W        W41627   7.501  11.462  10.868  0.1634 -0.1652 -0.2655
25494W        W41628  10.146  16.757  11.049  0.1692 -0.2484  0.0774
25495W        W41629   7.694  14.026   5.279 -0.0491 -0.3596 -0.2806
25496W        W41630  10.608   0.607   1.106  0.1234 -0.1848  0.1724
25497W        W41631   8.447  14.392  12.695 -0.1653  0.3867  0.1896
25498W        W41632   3.901   2.335   3.557  0.1493 -0.0894  0.2938
25499W        W41633  13.923   1.143   0.564  0.0718 -0.0396  0.2696
25500W        W41634  15.611  11.623   4.583  0.0428  0.1341  0.2430
25501W        W41635  12.495   3.837   2.560  0.3894  0.1116  0.1055
25502W        W41636  12.891  16.526   5.893  0.0037 -0.1584  0.0612
25503W        W41637  17.644   8.737   2.080  0.3601 -0.0716 -0.1201
25504W        W41638  11.913   7.082   0.271 -0.3336 -0.1879  0.1682
25505W        W41639  16.518   8.737  14.107  0.2454  0.1365  0.0077
25506W        W41640   4.232  11.083  12.467 -0.0020  0.2003 -0.1592
25507W        W41641   1.695   2.914   5.490 -0.1523  0.0174 -0.1821
25508W        W41642  16.904   1.707  12.261 -0.0543  0.0365 -0.3585
25509W        W41643  17.272  18.060   4.638  0.1991  0.0172 -0.0637
25510W        W41644   4.275  14.108   3.786  0.0244  0.1667 -0.0010
25511W        W41645  11.581   8.446  14.573  0.1058 -0.0218 -0.2114
25512W        W41646  12.029  16.489  14.388 -0.1249 -0.2325 -0.2289
25513W        W41647   1.858   5.815  14.825  0.0364 -0.1852 -0.0444
25514W        W41648   7.084   9.090  11.961 -0.2408 -0.2063  0.2939
25515W        W41649   7.298   5.731  12.167 -0.1606 -0.0051  0.4031
25516W        W41650  13.193   0.631   3.916 -0.0050  0.0508 -0.1484
25517W        W41651   4.126   3.397   0.551 -0.1744  0.2464  0.0073
25518W        W41652   6.687   3.260  15.131  0.0572  0.2655  0.1120
25519W        W41653   0.169   2.079   4.915  0.1019  0.1141  0.1451
25520W        W41654  16.684   2.727   2.470 -0.1939 -0.2984  0.1414
25521W        W41655  13.880   8.695  14.614 -0.1042  0.0505 -0.1501
25522W        W41656  16.832   0.892   5.890  0.0813 -0.2096 -0.1270
25523W        W41657   7.763   9.068   4.599  0.0455  0.0297 -0.4071
25524W        W41658  10.546   0.988   4.242  0.1195  0.3087  0.1709
25525W        W41659   6.353  17.249   2.999  0.0942 -0.4197 -0.1732
25526W        W41660   4.386   9.204   3.961  0.1765  0.3965  0.1300
25527W        W41661  11.528  12.421  12.187  0.1247 -0.3827  0.1509
25528W        W41662   1.978  16.289  12.669 -0.0834  0.0750  0.0113
25529W        W41663   9.898  15.830   0.748  0.1460 -0.1655  0.1344
25530W        W41664  13.432  16.714  14.517 -0.2034  0.0010 -0.0184
25531W        W41665  14.392   2.900  13.039 -0.1619  0.0203 -0.1554
25532W        W41666  17.406  14.341  16.257 -0.3460  0.1823 -0.0795
25533W        W41667   3.173   7.929  13.444 -0.1478  0.0646 -0.4782
25534W        W41668  12.747   3.043  11.264 -0.2849  0.0489 -0.1536
25535W        W41669   3.015   2.172   3.085 -0.1999 -0.2024  0.1467
25536W        W41670   1.827   0.655  14.709  0.0125 -0.0839  0.0459
25537W        W41671  13.981   1.798   3.633  0.4602  0.2328  0.2329
25538W        W41672   4.693   7.901  11.798  0.2420 -0.1523  0.0123
25539W        W41673   2.747  10.863   4.678  0.0234  0.0032  0.0708
25540W        W41674   7.337   4.846   4.677 -0.0303 -0.1902 -0.1509
25541W        W41675   3.686  15.095   4.149  0.2889 -0.2740 -0.3371
25542W        W41676  12.712  11.978  15.376  0.2226  0.1005 -0.0997
25543W        W41677  14.624  15.979  11.837  0.1066 -0.3557 -0.0934
25544W        W41678  15.761  12.033  11.739 -0.0442  0.0220  0.2257
25545W        W41679  13.009  11.878   1.528  0.1983  0.1092 -0.1283
25546W        W41680  14.912  10.854  15.386 -0.0540  0.0140 -0.3876
25547W        W41681  14.654   1.255   3.617 -0.0524 -0.0741  0.2091
25548W        W41682   5.450  16.696   2.096  0.3227  0.2522 -0.2941
25549W        W41683  17.816   0.086  14.583  0.0046  0.3715 -0.1174
25550W        W41684  13.425   4.251  11.815 -0.2061 -0.0682  0.0524
25551W        W41685  11.663   1.810  15.021  0.0915  0.0365 -0.2753
25552W        W41686  10.119   8.360  14.228 -0.0334  0.2424 -0.1595
25553W        W41687  15.876   2.539  14.351  0.2351 -0.0352 -0.0349
25554W        W41688   6.425  11.926   2.660  0.2037 -0.2188 -0.0849
25555W        W41689   0.447   0.841  14.290  0.1145 -0.0004  0.0112
25556W        W41690  11.080  16.730  16.301  0.0701  0.0833 -0.2375
25557W        W41691  11.753   6.846  16.259 -0.0494 -0.0703 -0.0405
25558W        W41692   5.385  16.397   4.265  0.0521  0.1294  0.0768
25559W        W41693  12.937   7.440  12.544 -0.3434  0.2376 -0.2492
25560W        W41694   7.111  17.557  14.055  0.3463  0.2574  0.0510
25561W        W41695   7.031  15.638  15.466  0.0378 -0.3493 -0.2036
25562W        W41696  15.951  16.997   4.374  0.0394 -0.2495  0.3172
25563W        W41697  13.027   4.734   2.372 -0.1802  0.3613  0.0756
25564W        W41698  14.995  16.756  13.692  0.1931  0.3370 -0.2007
25565W        W41699   1.247   0.306   1.335  0.0403 -0.2780  0.1183
25566W        W41700  15.838   5.457  15.432 -0.0665 -0.0024 -0.2767
25567W        W41701  13.268  15.975  12.528  0.1499 -0.2132 -0.0280
25568W        W41702   8.629   4.006   0.377 -0.2507  0.0734  0.1574
25569W        W41703   4.613   9.321  15.879 -0.1575 -0.0466  0.0661
25570W        W41704   2.167  12.919  14.413  0.1813 -0.2069  0.1268
25571W        W41705  15.555   7.132  15.732 -0.2526 -0.3630 -0.1457
25572W        W41706   9.640  14.480  14.218 -0.0611 -0.0069  0.2135
25573W        W41707   1.279   7.874  13.607 -0.2546 -0.0652  0.0471
25574W        W41708   9.068   5.391  15.686 -0.0456 -0.2499 -0.1495
25575W        W41709   1.359  10.421   4.329  0.0233  0.2409  0.3301
25576W        W41710  14.197   3.185  15.466  0.2825 -0.2017 -0.0866
25577W        W41711  18.056   5.723   3.936  0.2073 -0.2778  0.1924
25578W        W41712   7.257   7.247   0.668 -0.1808 -0.2235  0.1427
25579W        W41713   7.311  12.726   0.182 -0.1189 -0.0158 -0.1947
25580W        W41714  11.496  15.082   4.518  0.1766  0.1419  0.0222
25581W        W41715   2.537   9.842   0.093 -0.0432  0.0611 -0.0660
25582W        W41716   1.025  12.191   4.624  0.1588  0.0418 -0.1517
25583W        W41717  16.402  14.171   1.791 -0.0144  0.4274 -0.4070
25584W        W41718   0.540   4.559  12.194 -0.0786  0.0247  0.3597
25585W        W41719   5.655  14.129   0.475  0.1827  0.1128  0.0145
25586W        W41720  10.256  14.441   0.457 -0.0103 -0.0136  0.0446
25587W        W41721   5.961  11.763   0.586  0.2560  0.2552  0.2797
25588W        W41722  14.290  18.024  12.406  0.3695 -0.0457 -0.0077
25589W        W41723   9.102   5.948   5.168  0.3302  0.0742 -0.0378
25590W        W41724   7.676   9.652   1.159 -0.0010  0.1194 -0.3665
25591W        W41725   6.738  15.477  13.663  0.1716 -0.4221 -0.1232
25592W        W41726   8.638   5.955   2.619  0.1354 -0.0851 -0.3242
25593W        W41727   0.827   8.670   5.854  0.1780  0.1453  0.1024
25594W        W41728  18.005  17.820  12.603  0.2471 -0.0790 -0.2217
25595W        W41729   2.395  14.528   1.772  0.0397  0.0859  0.0333
25596W        W41730   7.466  11.538   0.756 -0.0125  0.0487 -0.0042
25597W        W41731   5.156   8.306  15.195  0.0924  0.0737 -0.0649
25598W        W41732   2.118  11.543  11.506 -0.2182  0.1377  0.0049
25599W        W41733   9.810   5.224  11.047  0.1521  0.1883  0.3495
25600W        W41734   2.872   1.324  13.166  0.3310 -0.0174 -0.1858
25601W        W41735   3.615  16.735   3.130 -0.1944 -0.1112  0.1967
25602W        W41736   5.619   5.666  12.485  0.1310 -0.0027 -0.2126
25603W        W41737   8.331   9.919  13.206  0.2324 -0.1351 -0.0746
25604W        W41738   3.650  17.730   4.259  0.0687  0.0900 -0.2813
25605W        W41739   7.666  16.273  13.096  0.0777 -0.0676  0.0291
25606W        W41740   2.909   9.864  12.760 -0.0708  0.1579  0.0268
25607W        W41741   5.709   7.415   4.423  0.0419  0.2372  0.2450
25608W        W41742  14.464  17.335   5.650 -0.1033 -0.0843  0.1956
25609W        W41743  13.011   1.448   4.679  0.0629  0.0547 -0.1836
25610W        W41744   0.159  15.158   4.909 -0.4076  0.2662  0.0741
25611W        W41745   6.198   9.170  12.788  0.2110 -0.1122 -0.1536
25612W        W41746   6.072  17.066   2.606 -0.0423  0.2567  0.3229
25613W        W41747  16.318  11.259  12.987 -0.0759 -0.0608 -0.1369
25614W        W41748   9.026  16.825   0.116 -0.3098  0.1998 -0.0364
25615W        W41749   2.475   6.687   3.422  0.0053 -0.2330 -0.0228
25616W        W41750  16.295   8.140  14.804  0.1098  0.1325  0.2042
25617W        W41751  16.724   0.835  15.073 -0.0536 -0.1647  0.1332
25618W        W41752   0.852  10.554   1.718  0.0539 -0.0208 -0.1382
25619W        W41753   6.617   5.615  14.466  0.2610 -0.1229  0.0863
25620W        W41754   6.738  17.146  15.713  0.1324  0.1514 -0.0951
25621W        W41755  12.751   2.901  15.472  0.0699 -0.4590  0.1910
25622W        W41756  10.214  12.624  16.193 -0.0202  0.2416 -0.0419
25623W        W41757   8.930   5.271   0.911  0.0405  0.1583  0.1651
25624W        W41758   5.226   2.260  16.328  0.0506  0.0953  0.0658
25625W        W41759   8.038  12.968  13.652 -0.1936  0.2223  0.3285
25626W        W41760  14.926   1.884   4.771  0.0248 -0.2020  0.3814
25627W        W41761  10.484   2.421   5.244  0.0966 -0.0289  0.0757
25628W        W41762   8.064  13.171   0.853  0.0280  0.2550 -0.1087
25629W        W41763   4.721  13.967   3.992 -0.1259 -0.2141  0.4074
25630W        W41764   9.436   2.300   5.306 -0.1205 -0.4274  0.0052
25631W        W41765  14.347  16.026   4.836 -0.0780 -0.0403 -0.0765
25632W        W41766   2.579   7.086   0.371 -0.1352  0.0214  0.0991
25633W        W41767  15.935   2.010  14.561 -0.1564 -0.0284 -0.3271
25634W        W41768  15.559   8.886   4.051  0.2322 -0.0680 -0.0956
25635W        W41769   5.898  17.084  13.580  0.1083  0.2877  0.0537
25636W        W41770   3.695  15.243   5.163 -0.1309  0.2163 -0.2030
25637W        W41771   3.466  15.427   2.264 -0.1253 -0.1347  0.1057
25638W        W41772  15.493   6.362   3.057 -0.2249  0.1336 -0.1095
25639W        W41773  13.674   9.377  14.805  0.1166 -0.0269  0.0208
25640W        W41774   4.958   3.100   0.568 -0.5293 -0.0456 -0.1955
25641W        W41775  17.940  14.237   0.004 -0.2747  0.2423  0.0554
25642W        W41776  16.752  10.825   6.182  0.2320  0.1272 -0.0076
25643W        W41777  14.292   5.833   5.926 -0.0537 -0.2885  0.0902
25644W        W41778   8.274   1.160  11.720 -0.2551  0.1857 -0.1504
25645W        W41779  12.881  12.101  11.089  0.0769 -0.0888  0.0808
25646W        W41780  13.999   2.589   2.168 -0.1341 -0.0439 -0.1874
25647W        W41781  15.262   5.897   3.505  0.1239  0.1852 -0.0567
25648W        W41782   5.389  11.053  14.841  0.1680 -0.0624 -0.2105
25649W        W41783   8.463   0.087  13.492 -0.2423  0.4028  0.0970
25650W        W41784   1.955  10.180   5.494  0.0314 -0.1384  0.1613
25651W        W41785  11.268   2.798  13.633  0.1296  0.1781 -0.0567
25652W        W41786   0.334   0.075   3.083 -0.2319 -0.0047  0.1806
25653W        W41787   1.709   8.404   3.986 -0.0542  0.3165  0.0024
25654W        W41788   8.820  17.770   3.191 -0.0624  0.0503  0.0673
25655W        W41789   2.368  16.469   1.466 -0.1304  0.1836 -0.4693
25656W        W41790  15.725  16.217  14.628  0.1460  0.1958 -0.0982
25657W        W41791  17.548   5.093  13.173 -0.0110 -0.3413 -0.2356
25658W        W41792  12.441  10.606  15.535 -0.0080 -0.1321  0.0247
25659W        W41793   8.148  14.364   0.207  0.1842 -0.0770  0.0517
25660W        W41794   5.361  13.215   1.787  0.0337 -0.0988 -0.2368
25661W        W41795   2.580   4.328  14.375  0.0258 -0.1003 -0.2953
25662W        W41796   7.297   2.078   4.890 -0.0422  0.5912 -0.1149
25663W        W41797  12.012   3.693   4.881  0.3010  0.0011 -0.2206
25664W        W41798   9.072  12.480  13.113 -0.1962 -0.0076  0.0516
25665W        W41799   7.114   8.532   3.998 -0.1056  0.2539 -0.0173
25666W        W41800  15.550   6.735   1.551 -0.0842  0.0411 -0.1430
25667W        W41801   9.610   2.551   2.041 -0.1431 -0.0313 -0.0631
25668W        W41802   6.257  15.383   5.327  0.0903  0.0263  0.1023
25669W        W41803   4.949   3.428  14.872  0.0821 -0.0819  0.1430
25670W        W41804   5.740  16.479   0.915  0.0159  0.3802 -0.3153
25671W        W41805   2.414   6.314   4.436  0.1268 -0.2233 -0.0630
25672W        W41806   7.501   1.246   4.679  0.1846 -0.0819 -0.0327
25673W        W41807   2.954   8.099   4.356  0.0028 -0.0343 -0.1042
25674W        W41808  17.369   0.328  11.239 -0.2708 -0.2440  0.2253
25675W        W41809   9.960   6.709  15.532 -0.0700  0.3463 -0.1312
25676W        W41810   3.648  11.654   5.099  0.0958 -0.0527 -0.2215
25677W        W41811   4.371   2.578   5.638  0.0331  0.1718 -0.1391
25678W        W41812  16.239  17.546  13.974  0.1541 -0.0129  0.0410
25679W        W41813  14.782   0.986  13.039  0.1049  0.0272 -0.0985
25680W        W41814   2.451   2.802  12.514 -0.0449  0.1551 -0.1594
25681W        W41815  15.720  11.218  15.528 -0.1036 -0.3196  0.0261
25682W        W41816  16.783   7.559   4.239  0.0158 -0.2539 -0.2121
25683W        W41817   1.044   7.212   3.537  0.0888 -0.2005  0.0208
25684W        W41818  12.988   2.455  13.215 -0.1114  0.1443  0.3884
25685W        W41819  13.480   6.215  15.360 -0.0886  0.0812  0.0385
25686W        W41820  10.428   6.789   3.405  0.4537 -0.1432 -0.1426
25687W        W41821   7.903   4.365  12.002 -0.0598  0.1704 -0.3456
25688W        W41822  10.016   9.553  13.076 -0.0200 -0.2330  0.0378
25689W        W41823  10.507   9.999  13.509 -0.0499 -0.1783  0.0343
25690W        W41824   1.471  11.347   4.557  0.0059  0.1227 -0.3122
25691W        W41825  15.786  16.702  13.952 -0.0870 -0.0404 -0.1741
25692W        W41826  17.518  13.115   0.533  0.0403 -0.2949  0.0447
25693W        W41827  11.935   3.395   2.150 -0.0697 -0.1101 -0.0746
25694W        W41828  13.634  15.607  11.644  0.1716  0.1794  0.2438
25695W        W41829   7.457  13.495  12.336 -0.1203  0.0401  0.3768
25696W        W41830  11.315   8.472  14.982 -0.0573 -0.0457 -0.1508
25697W        W41831   1.938  11.513   4.749  0.0951 -0.0432 -0.1161
25698W        W41832   4.759   1.488   1.963  0.2207 -0.0592 -0.0927
25699W        W41833   2.290  17.518   4.183  0.0916 -0.0132  0.0908
25700W        W41834  15.825   2.927  12.103  0.0034  0.3349 -0.0060
25701W        W41835   9.488  17.111  15.802  0.1124  0.2033  0.2410
25702W        W41836  14.382   4.497   1.944 -0.1105 -0.0514  0.1797
25703W        W41837   5.206  15.810   1.966 -0.1771  0.1346  0.0263
25704W        W41838  13.549  12.441  12.613 -0.1281  0.0523 -0.0062
25705W        W41839  16.981   7.896  12.824 -0.1370 -0.0221  0.0182
25706W        W41840   8.560   3.154  14.354 -0.0777 -0.0952  0.4173
25707W        W41841   7.848   9.667  14.978 -0.1806  0.3039 -0.0070
25708W        W41842  14.057  15.048   1.750  0.1278  0.2003 -0.1378
25709W        W41843   7.562   4.456   3.189  0.1631 -0.0951 -0.0453
25710W        W41844   9.917  17.230  11.165  0.1913 -0.2428  0.3220
25711W        W41845   9.408   8.352   1.572 -0.1904 -0.0742  0.0903
25712W        W41846   6.554  16.622   1.167  0.3168  0.0197  0.0641
25713W        W41847   7.463  18.054  16.398 -0.0282 -0.0170 -0.0785
25714W        W41848   6.176   4.002   4.622 -0.1495 -0.1360 -0.3705
25715W        W41849   9.048   7.454  16.021  0.0313  0.0614 -0.0805
25716W        W41850   7.392   2.120  16.149 -0.3846 -0.0245 -0.1773
25717W        W41851  17.269   9.369   1.371 -0.0788  0.2062  0.2304
25718W        W41852   3.321  13.766  14.443 -0.1334 -0.0925 -0.0209
25719W        W41853   0.292   5.819   2.982 -0.0404  0.0276  0.0510
25720W        W41854   6.377  16.294  14.202  0.0738  0.4230 -0.2555
25721W        W41855   2.258   9.339   6.357  0.3313  0.1553 -0.0922
25722W        W41856  10.241   5.988  13.147  0.0050 -0.0788  0.1455
25723W        W41857   7.539   4.476   5.875 -0.1179 -0.0063 -0.0590
25724W        W41858   6.994  11.444   3.896  0.2715  0.2167  0.1088
25725W        W41859   8.382   1.514   2.096  0.1410 -0.0407  0.1285
25726W        W41860   8.048  18.058   1.625 -0.0267 -0.1358 -0.2081
25727W        W41861   1.254   2.657   2.429 -0.0647  0.1254 -0.1951
25728W        W41862   7.398   3.001  12.170 -0.1327  0.0963  0.4187
25729W        W41863   1.999   1.015   0.916 -0.0838  0.3506 -0.0644
25730W        W41864   4.686   7.308   6.159  0.2740 -0.0147 -0.1953
25731W        W41865  14.337   6.518  15.500 -0.0808 -0.1422  0.1795
25732W        W41866  12.268  13.032   1.766 -0.3271  0.0622  0.2195
25733W        W41867  13.888   9.844   1.113  0.3126  0.2109 -0.0334
25734W        W41868  15.843  14.637  15.067  0.3040  0.0777  0.1190
25735W        W41869   1.841   2.798  13.870  0.2687  0.0127  0.3839
25736W        W41870   0.260  10.438   0.404 -0.0110 -0.1073 -0.0433
25737W        W41871   8.800  18.080   1.301  0.2094 -0.2496  0.1633
25738W        W41872  18.013   6.227  14.161  0.1620  0.3596  0.0048
25739W        W41873   1.386  16.952  12.159 -0.1451 -0.1736  0.3361
25740W        W41874  13.492  16.808  15.331  0.0627 -0.0163 -0.1498
25741W        W41875   5.817   7.994   3.250 -0.2911  0.0891  0.1447
25742W        W41876  17.096   1.824  13.139  0.0798 -0.1933 -0.0694
25743W        W41877   7.556  15.089   2.504  0.2088 -0.4539 -0.1052
25744W        W41878  15.525  13.712  10.704  0.3100 -0.1124 -0.0054
25745W        W41879  10.620   7.877  12.957 -0.1485 -0.3329  0.2129
25746W        W41880  17.156  10.865  15.731  0.3000 -0.0685 -0.0297
25747W        W41881   7.064   7.751   2.432  0.0837 -0.1068 -0.1619
25748W        W41882  17.997   3.694  15.934  0.0880 -0.0363  0.1087
25749W        W41883  12.282   3.295  12.677  0.2625 -0.1468 -0.3297
25750W        W41884   0.622   9.757   5.061  0.2076 -0.0397  0.1101
25751W        W41885   9.210  10.784  13.350 -0.0413  0.0404  0.1271
25752W        W41886  13.899   2.863  13.098  0.3449  0.0520  0.1408
25753W        W41887   4.414  12.008   5.772  0.1898  0.2507  0.0402
25754W        W41888   0.790   0.643  11.856  0.3210 -0.1835  0.4009
25755W        W41889  17.837   1.738  16.066  0.1095 -0.1462 -0.4127
25756W        W41890  17.475  12.827   2.606 -0.1701 -0.2037 -0.0769
25757W        W41891  11.895   4.249   3.162  0.1024 -0.1347  0.0404
25758W        W41892  15.327   6.892   1.128  0.2101  0.0747 -0.0075
25759W        W41893   9.757  15.317  12.182  0.1693  0.1826 -0.0642
25760W        W41894  15.621   4.935  14.868 -0.2597  0.0369 -0.1566
25761W        W41895  14.992   9.237   4.549  0.0820  0.1585  0.0696
25762W        W41896   8.313  13.674   0.214  0.0873 -0.2621 -0.0083
25763W        W41897   6.956  11.865  14.831  0.1315 -0.3119 -0.0429
25764W        W41898   7.038   4.841  14.425 -0.0689 -0.0227  0.0256
25765W        W41899   3.198   1.126   1.190 -0.3503 -0.0847  0.0074
25766W        W41900   9.544   4.126  12.450  0.0489  0.2519  0.0001
25767W        W41901   6.897   7.228  16.188 -0.3217 -0.0261  0.2225
25768W        W41902  13.883   1.668   1.787 -0.0802  0.0733 -0.3976
25769W        W41903   4.204   2.505  13.568 -0.3656  0.3097 -0.0210
25770W        W41904  10.373   0.274   5.709 -0.1758 -0.2287 -0.2142
25771W        W41905  10.025   9.932  13.467 -0.4106  0.1827  0.1326
25772W        W41906   5.405   3.116  15.252  0.2290 -0.0614 -0.0398
25773W        W41907   2.283   2.652  13.506 -0.0901  0.0232  0.1344
25774W        W41908   0.656  15.954  15.144  0.0435 -0.0780  0.0611
25775W        W41909   4.865   7.816   0.757 -0.0646 -0.1456  0.1376
25776W        W41910   0.772  11.657  12.351  0.3155  0.0183 -0.0039
25777W        W41911  11.987   6.416  13.696 -0.0420 -0.0508 -0.2679
25778W        W41912   2.016  10.016   3.069  0.0431  0.1062  0.2518
25779W        W41913   0.843   6.944  12.323  0.0804 -0.0135  0.3663
25780W        W41914   4.514   4.551   2.413  0.4830 -0.1230 -0.1870
25781W        W41915  15.874  12.522   4.137  0.1258  0.0477 -0.0496
25782W        W41916  13.452  10.104   0.997 -0.0937 -0.1198 -0.0957
25783W        W41917  17.058  15.316   2.694  0.0677  0.0968 -0.0543
25784W        W41918  12.667  13.988  14.866  0.2385 -0.1158 -0.0546
25785W        W41919  12.585  17.873  13.212  0.1399 -0.4518 -0.0187
25786W        W41920   7.765  10.239   5.631 -0.0244  0.1343 -0.0294
25787W        W41921   6.770   2.709  15.519 -0.0462  0.1706 -0.1406
25788W        W41922  17.165   0.139   1.984 -0.0379  0.0321 -0.2505
25789W        W41923   0.872  16.286  12.621  0.0252  0.0131 -0.0535
25790W        W41924   9.690   2.141  15.488  0.2252 -0.1186  0.0655
25791W        W41925  17.169   6.979  16.358 -0.1554 -0.2567 -0.0179
25792W        W41926  17.588   8.409   2.496  0.0346 -0.1915  0.0417
25793W        W41927   5.424  17.331  14.864 -0.0187 -0.1362  0.2199
25794W        W41928  13.445   0.838   3.022  0.2232  0.2614  0.1204
25795W        W41929  13.446   6.962   0.500  0.1878  0.2693 -0.1858
25796W        W41930   1.153   2.889  16.007 -0.1158  0.0954  0.3541
25797W        W41931   8.361  13.528   4.217 -0.0517 -0.0130 -0.2654
25798W        W41932   8.233  14.379  12.009  0.3171  0.0059 -0.1626
25799W        W41933   6.006  18.002  13.241  0.0624  0.3324 -0.2236
25800W        W41934   7.549  17.648  13.839  0.1542  0.0742  0.0551
25801W        W41935  12.889   4.477  10.890 -0.2818  0.0270  0.2741
25802W        W41936  14.578   6.478   1.339 -0.2879 -0.2118  0.3749
25803W        W41937   7.206  12.741   3.402  0.0053 -0.3431 -0.1270
25804W        W41938  16.971  10.044  11.180 -0.0346 -0.0309  0.1629
25805W        W41939  17.706   7.519  13.597 -0.0635 -0.1829 -0.0121
25806W        W41940   8.395   2.649  15.605 -0.0284  0.2403  0.0686
25807W        W41941   3.498   1.619   5.359 -0.0255 -0.1371 -0.0761
25808W        W41942   7.534  16.609  13.826  0.0078 -0.1271  0.0120
25809W        W41943   6.000   8.715  15.452  0.1609 -0.1415  0.2349
25810W        W41944   0.193  13.571  11.671 -0.1914  0.3398 -0.2769
25811W        W41945   9.620  12.671   3.714  0.1293  0.0485 -0.0946
25812W        W41946   6.399   3.792   1.565  0.1831 -0.3532 -0.0335
25813W        W41947  14.159   0.375   2.949  0.0629  0.0546 -0.0284
25814W        W41948   3.183   5.450   5.136 -0.1398 -0.2249  0.0456
25815W        W41949  10.922  13.664   3.515  0.2119  0.1584  0.1909
25816W        W41950   7.526  13.840   4.638  0.3168 -0.1464 -0.1161
25817W        W41951  14.548   0.470   0.597 -0.1702  0.0319  0.0439
25818W        W41952   4.531   4.265  12.455  0.0569 -0.0054 -0.1967
25819W        W41953   3.185  17.563  14.840 -0.1579  0.5468  0.1053
25820W        W41954  12.715  12.048  11.617 -0.3248 -0.1820  0.0039
25821W        W41955  17.846  16.472  14.973  0.0717 -0.0144  0.2047
25822W        W41956   2.815   2.721   5.643  0.1167 -0.1342 -0.2851
25823W        W41957  17.619   9.973   2.989 -0.2126  0.0193 -0.1436
25824W        W41958   0.360  15.014   0.573  0.1901 -0.4175 -0.0507
25825W        W41959   6.666  11.533  15.180  0.1138  0.1089 -0.2905
25826W        W41960  16.777  17.668  12.167  0.0225  0.2009 -0.1072
25827W        W41961   3.922   7.244  13.307  0.3701 -0.1062  0.0324
25828W        W41962  15.519  17.297   6.234 -0.0708 -0.1995  0.1379
25829W        W41963   4.013  11.800  13.176  0.1236  0.0480  0.1095
25830W        W41964   7.542  15.952   3.538 -0.0885 -0.3001 -0.1815
25831W        W41965   2.383   4.019  12.906  0.0846 -0.0082 -0.0690
25832W        W41966  15.532  17.471   1.760 -0.0873 -0.1032 -0.0714
25833W        W41967   3.858   1.824   0.745  0.1100 -0.0643 -0.0071
25834W        W41968   4.825   3.117  15.350  0.4348 -0.0927 -0.0529
25835W        W41969   9.783   7.592  12.159 -0.0463  0.1222  0.1670
25836W        W41970   1.975   5.503   4.192  0.1831  0.1806 -0.0069
25837W        W41971   9.297   0.366  15.461  0.0953  0.1514 -0.0433
25838W        W41972  12.003   5.886   0.708 -0.1092  0.2604  0.0172
25839W        W41973   3.487  11.800  12.214 -0.1478  0.0275 -0.1872
25840W        W41974   2.939   2.280   2.528  0.2101 -0.0908  0.3523
25841W        W41975   1.060  13.512   3.020  0.0706  0.3164 -0.2079
25842W        W41976   0.339  12.903  11.515 -0.0243  0.1985 -0.1493
25843W        W41977   6.401   9.731   2.998  0.2481 -0.2196 -0.0283
25844W        W41978  16.922  13.522   3.150  0.0750 -0.0440  0.1704
25845W        W41979   6.329   7.024  14.822 -0.1378  0.1702  0.3026
25846W        W41980   1.878  10.293   1.858 -0.0976  0.0708  0.2130
25847W        W41981   6.601   3.626   0.354 -0.0498 -0.1930 -0.0984
25848W        W41982   2.390   0.789   2.185 -0.1160 -0.0870 -0.3803
25849W        W41983  11.213   5.580   5.459 -0.2396  0.0349  0.3690
25850W        W41984   1.326   6.452   0.045  0.1815 -0.0332 -0.1624
25851W        W41985  14.994   9.442  13.102  0.0585 -0.1044  0.0993
25852W        W41986   5.603  14.578   0.246 -0.0280  0.1516  0.1415
25853W        W41987  13.667   5.831   3.357 -0.4539  0.1074  0.1590
25854W        W41988  13.748  16.618  15.737  0.2994 -0.2511  0.2816
25855W        W41989   1.696   7.655  15.193 -0.2239  0.1232 -0.0870
25856W        W41990   3.791   9.713  14.273 -0.0688  0.1380 -0.2389
25857W        W41991  15.754   9.256   1.101 -0.0764 -0.0533 -0.1293
25858W        W41992  16.323  11.970   4.630  0.1749  0.0825  0.2276
25859W        W41993   0.076   4.016  16.360  0.0666 -0.1468 -0.1714
25860W        W41994   8.619  14.122  13.070 -0.1767 -0.1141 -0.1234
25861W        W41995   8.181  14.130  16.135  0.0039 -0.0324  0.1063
25862W        W41996  17.852  12.887  14.568 -0.0468  0.2937  0.0512
25863W        W41997  10.640  10.263  13.089  0.1792 -0.1323 -0.2837
25864W        W41998  10.211   4.380  13.801  0.0225  0.1750 -0.0217
25865W        W41999   2.205  15.681   1.197  0.1030 -0.2071 -0.2499
25866W        W42000   3.251  10.995  12.240 -0.4015  0.0955  0.0206
25867W        W42001   3.735   2.617   3.126  0.4170 -0.1525 -0.0460
25868W        W42002  10.767   2.361   4.835 -0.2922  0.0140  0.1648
25869W        W42003   3.834   1.649   3.793  0.1682  0.1280  0.0924
25870W        W42004   3.669   3.061   0.267 -0.0583  0.2004 -0.0784
25871W        W42005   2.811   2.939  12.895  0.1649  0.2248  0.4392
25872W        W42006   9.772   0.458  15.225  0.0888 -0.4155  0.0845
25873W        W42007  17.406  11.965   4.388 -0.2116 -0.0031  0.2509
25874W        W42008   9.132  14.087   4.064 -0.0932 -0.0946 -0.1644
25875W        W42009  11.080   8.946   4.288 -0.1761  0.0274 -0.0463
25876W        W42010  17.937   8.779   1.378 -0.1432 -0.2057  0.0797
25877W        W42011   1.725   4.259  14.369 -0.1059  0.0459 -0.3003
25878W        W42012  12.820   0.784   2.396 -0.2209 -0.3007 -0.3308
25879W        W42013  16.963   0.864   0.273  0.0259 -0.0975 -0.0515
25880W        W42014   9.458   7.155   3.519 -0.0805  0.0802 -0.1893
25881W        W42015  10.188  16.026   4.666  0.0896  0.1273 -0.1445
25882W        W42016  10.201   8.097  15.599 -0.2161 -0.1426  0.2491
25883W        W42017   6.959   2.903   3.541  0.1984  0.1632  0.0514
25884W        W42018  17.959  16.362  13.790  0.1314 -0.0977 -0.2500
25885W        W42019  12.617  12.738   0.966  0.1860 -0.3438 -0.1069
25886W        W42020   0.183  13.657   3.961  0.0481  0.0343  0.0827
25887W        W42021  12.293   6.246   1.182  0.2325  0.2253  0.0636
25888W        W42022   5.298   7.254   3.316 -0.0806  0.1271 -0.0049
25889W        W42023  13.164  15.029   1.765  0.1496  0.1240 -0.1455
25890W        W42024   4.766  10.890   5.311  0.1750  0.3087  0.1335
25891W        W42025   8.474   4.099  13.585  0.1271  0.1634  0.1533
25892W        W42026   6.652  11.522  12.563 -0.1155  0.0006 -0.0082
25893W        W42027   4.616   9.436   3.172 -0.5342 -0.1021  0.1690
25894W        W42028  16.294  15.139   2.709 -0.0296 -0.0362 -0.1058
25895W        W42029   9.442  12.172   6.160  0.0501  0.4246 -0.1532
25896W        W42030   3.995   5.582  12.943 -0.2714  0.3063 -0.1645
25897W        W42031   7.703  12.959   0.476  0.1339  0.0757  0.3393
25898W        W42032  13.670   4.771  16.207  0.2500 -0.3922 -0.0323
25899W        W42033   0.988  15.517  13.311  0.0579 -0.1033  0.1088
25900W        W42034   1.642   9.511   6.075 -0.3209  0.0654  0.4273
25901W        W42035  15.767  11.645  13.423 -0.2569  0.0694  0.1496
25902W        W42036  13.972  14.841  11.868 -0.0390  0.0832 -0.0842
25903W        W42037  13.901   0.384   4.766  0.4158  0.0280  0.2247
25904W        W42038   2.233  12.227   2.000  0.0025 -0.1339  0.3118
25905W        W42039  12.720  11.938   5.081 -0.1860 -0.0969  0.1080
25906W        W42040   7.503   2.774   1.755  0.0825 -0.2252  0.3670
25907W        W42041  12.259   3.005   1.348  0.3143  0.3266  0.1363
25908W        W42042   8.685  14.695  10.356  0.2736 -0.2539 -0.0423
25909W        W42043  15.465   7.744  15.749 -0.2731 -0.0653 -0.2482
25910W        W42044   5.028  15.166  13.297  0.0836  0.2221  0.0151
25911W        W42045   2.081   6.179  11.949 -0.2088 -0.3397 -0.0900
25912W        W42046   0.228   6.605   5.872 -0.4015 -0.0340  0.3512
25913W        W42047  11.685   3.215  11.721 -0.2236  0.0619 -0.0803
25914W        W42048   4.736   2.438  16.384 -0.0936  0.1371  0.3106
25915W        W42049  14.015   8.351  15.971 -0.0225 -0.1286 -0.1574
25916W        W42050   8.170  13.166  14.603 -0.1824  0.0218 -0.1654
25917W        W42051   7.481  15.257   1.706  0.1568 -0.0584  0.1535
25918W        W42052  15.659   5.327  14.456 -0.0891 -0.1377 -0.2322
25919W        W42053   8.391  10.393   1.796 -0.0286 -0.1262  0.1334
25920W        W42054  14.242  13.369   0.207 -0.2633  0.1681  0.0013
25921W        W42055   7.662   7.083   0.252 -0.0040  0.1280 -0.0228
25922W        W42056  11.130  15.002  14.398  0.2826 -0.3402  0.0842
25923W        W42057   1.458   0.031  13.908 -0.1374 -0.1438  0.0742
25924W        W42058  16.237   9.107  13.716  0.2914 -0.0520  0.0913
25925W        W42059  12.565   3.429   1.659  0.0955  0.1348  0.0482
25926W        W42060  12.305  14.140  12.082 -0.2064 -0.0356 -0.0120
25927W        W42061  13.603   0.406   1.762  0.0777 -0.1355  0.4240
25928W        W42062   1.095   4.746   5.153 -0.0101  0.1459  0.1289
25929W        W42063   7.390  16.216  12.661  0.2169  0.1399 -0.1198
25930W        W42064   9.173   7.564   1.332 -0.0633 -0.0829  0.2352
25931W        W42065   9.436   2.400  11.579  0.2807 -0.1513 -0.0149
25932W        W42066  12.275   2.091  10.569  0.2133  0.0170 -0.2235
25933W        W42067   7.355   9.826  14.040 -0.2763 -0.2140  0.0616
25934W        W42068  13.337   5.650  16.139  0.2458 -0.1495  0.2414
25935W        W42069   0.277   5.246   4.356  0.0127 -0.1169 -0.1479
25936W        W42070   9.812   9.072  13.153 -0.1134  0.2898  0.0087
25937W        W42071   4.666   1.453  12.385  0.1826 -0.2112  0.2423
25938W        W42072   8.024   0.142   4.162  0.0688  0.1370 -0.0878
25939W        W42073   2.974   7.758   2.922  0.1077  0.2139 -0.0691
25940W        W42074  15.196  13.921  15.250 -0.2120  0.0986  0.2528
25941W        W42075   3.435   8.745   0.023 -0.0761  0.0426  0.3254
25942W        W42076   7.805   5.127   4.624 -0.1991  0.1016 -0.0156
25943W        W42077  13.908   8.303   4.027  0.4254  0.0526  0.2615
25944W        W42078   4.861   6.855  16.067 -0.0140 -0.2692 -0.0133
25945W        W42079   5.326   3.023   4.000 -0.1074  0.0955  0.2796
25946W        W42080  11.029   7.614  14.715 -0.0600 -0.1889 -0.2336
25947W        W42081  13.835   6.328   3.319  0.2048 -0.1836 -0.3304
25948W        W42082  15.600   2.760   2.024 -0.2526 -0.1126 -0.1815
25949W        W42083   6.700   9.812  15.793  0.1245  0.1150 -0.1753
25950W        W42084   1.751   4.577   2.268 -0.0772 -0.1471  0.1852
25951W        W42085   9.810   0.821  12.864 -0.0055  0.0279  0.1888
25952W        W42086   5.764   8.723  11.047 -0.1122 -0.1336  0.1875
25953W        W42087  15.123   8.863  11.087  0.2176  0.1722  0.3477
25954W        W42088  11.736   5.257   0.181  0.0648 -0.0177  0.0908
25955W        W42089   3.295   5.063  12.738 -0.1095 -0.3591 -0.0906
25956W        W42090   0.275   3.529   0.901  0.1234  0.1008 -0.2675
25957W        W42091   1.646  14.254   2.990  0.0221  0.1673  0.1218
25958W        W42092  10.021  13.871  13.488  0.2349 -0.0397  0.0252
25959W        W42093   2.338  16.200   2.495  0.3185  0.1222  0.3524
25960W        W42094   7.905  10.171  15.812  0.0105  0.3527  0.1084
25961W        W42095   1.263   3.270   4.112 -0.1626  0.2196  0.3051
25962W        W42096   4.260  13.067   1.540 -0.0401  0.0061 -0.0502
25963W        W42097  11.927  17.714  12.689  0.1711  0.2841  0.2008
25964W        W42098   8.903   7.352  12.554  0.1671 -0.1346  0.1151
25965W        W42099  10.488  17.742  11.552 -0.1941 -0.0888  0.1511
25966W        W42100   2.255  10.841   4.243 -0.1705 -0.0655 -0.0626
25967W        W42101  15.051   6.855  15.559  0.0307 -0.3763 -0.0368
25968W        W42102   0.174   0.812   2.423 -0.0248  0.0329 -0.1388
25969W        W42103   1.579   0.745   4.572 -0.1312 -0.0916 -0.0293
25970W        W42104  12.210   2.895  14.533 -0.0111  0.2923  0.1577
25971W        W42105   9.696  13.886   0.010 -0.1360  0.1790  0.0660
25972W        W42106  16.901  11.526   5.139 -0.1834  0.2063  0.1390
25973W        W42107   6.326  10.815   1.517  0.0249  0.1408 -0.0389
25974W        W42108  14.956  10.478   5.070  0.1007  0.2643  0.1846
25975W        W42109   8.727  11.448   5.136 -0.2852  0.2556 -0.1676
25976W        W42110  15.581  13.152   3.582  0.1019  0.5011  0.0413
25977W        W42111   6.244  17.838   1.824  0.2167 -0.2079 -0.3894
25978W        W42112  11.157   1.704  14.443  0.2299  0.3083  0.0555
25979W        W42113  10.857  14.874  14.002  0.2490 -0.4399  0.2058
25980W        W42114   6.058   0.737   1.981  0.0734  0.0308  0.1179
25981W        W42115   4.371   3.855  12.177  0.1458  0.2349 -0.1784
25982W        W42116   6.591   5.009   4.155 -0.3730  0.2241 -0.0472
25983W        W42117  13.483   2.557   1.515  0.2851  0.1120  0.1001
25984W        W42118   7.950   2.856  12.203  0.1645 -0.3679  0.2580
25985W        W42119   3.394  13.538   0.913 -0.3203 -0.3934 -0.2094
25986W        W42120  11.940  14.954   1.198 -0.3121  0.1298  0.0293
25987W        W42121  17.868   4.309  14.098  0.0263 -0.1477  0.2673
25988W        W42122  13.939   0.254  16.262  0.1595  0.1037 -0.1125
25989W        W42123  12.142   2.720  13.536  0.2146  0.2400 -0.3998
25990W        W42124  14.235  11.008   0.216  0.3473  0.3964 -0.2930
25991W        W42125   7.069   0.664  15.923 -0.0164 -0.2374  0.1458
25992W        W42126  11.139   4.322  11.769 -0.0741 -0.3733 -0.0879
25993W        W42127  15.181  17.822  10.978  0.1639 -0.2682  0.3010
25994W        W42128  11.180  12.051   0.866 -0.0988  0.2862 -0.2247
25995W        W42129  12.739   7.093   1.541 -0.2875  0.0832  0.3450
25996W        W42130  13.841  17.818  12.130 -0.0143  0.0770  0.0189
25997W        W42131  18.024   5.699  14.190  0.3344 -0.1582 -0.0910
25998W        W42132  10.940   5.512  13.079 -0.3965 -0.1279  0.2857
25999W        W42133   5.703  11.801   4.579 -0.1597 -0.2354 -0.0546
26000W        W42134   5.221   6.285   0.780 -0.0658  0.2582  0.2376
26001W        W42135   3.600   5.061  15.485  0.2112 -0.2068  0.2161
26002W        W42136  14.607   4.371   3.604 -0.2051 -0.2701  0.3031
26003W        W42137  16.601  10.086   2.089 -0.2415  0.3111 -0.1061
26004W        W42138   4.332   7.524   1.213 -0.1502  0.0577 -0.2983
26005W        W42139   9.166   0.566   4.164  0.0618  0.2020  0.2382
26006W        W42140  12.237   8.758   1.905 -0.2119 -0.1433  0.0268
26007W        W42141   5.723   8.164  14.836 -0.3279  0.0215  0.0906
26008W        W42142  17.207   2.884   3.994  0.0706 -0.2698  0.1329
26009W        W42143  16.201   2.075   1.949  0.0665 -0.0974 -0.0904
26010W        W42144   3.433  16.727  16.031  0.2214  0.1103 -0.0674
26011W        W42145  14.527  17.539  14.573 -0.0285 -0.2364  0.0451
26012W        W42146  12.296  15.276  11.216  0.1849 -0.0060 -0.0568
26013W        W42147  16.759  16.274  13.401  0.7540  0.0039  0.1431
26014W        W42148   8.134   8.980   2.080  0.0248 -0.1466 -0.0681
26015W        W42149  15.279   7.230   4.396  0.0137  0.1009 -0.0277
26016W        W42150   8.232   5.171   5.132  0.3555 -0.0203 -0.0432
26017W        W42151   2.622  13.993   0.446  0.2742  0.3271 -0.2581
26018W        W42152   8.308   8.330   3.671 -0.1824  0.3902  0.0676
26019W        W42153  10.192  11.616   1.568 -0.1115  0.0447 -0.1107
26020W        W42154  10.060   2.958   1.126 -0.3770 -0.1444  0.2285
26021W        W42155  16.469   8.585  14.965  0.2426  0.1820  0.0186
26022W        W42156   4.602  16.226  16.295 -0.0347  0.0235 -0.0446
26023W        W42157   9.634  11.406   3.183 -0.0919  0.1331 -0.1525
26024W        W42158  15.787   4.822   2.213 -0.0814 -0.0841  0.0239
26025W        W42159  13.504   3.506   5.363 -0.1973 -0.0208 -0.2011
26026W        W42160  14.041   6.442   4.890 -0.1244  0.1735  0.1736
26027W        W42161   6.937   8.309  15.397 -0.0153 -0.0307 -0.0822
26028W        W42162   0.166   4.605   4.795  0.3117 -0.1767 -0.0145
26029W        W42163  11.632   5.942   4.117  0.2150 -0.0850 -0.2431
26030W        W42164  10.258   1.173  16.314 -0.0519 -0.1724 -0.1040
26031W        W42165   6.242   4.797  14.005 -0.0617 -0.0476 -0.0876
26032W        W42166   4.682  11.708   2.793  0.0456 -0.1610  0.0020
26033W        W42167   3.489   0.086  11.926  0.0706 -0.0063  0.1770
26034W        W42168   1.291  14.398   5.302  0.1252  0.1391 -0.2779
26035W        W42169  16.781  15.800   0.180  0.0121 -0.0400 -0.0820
26036W        W42170  16.075   4.702   1.286 -0.2396 -0.0691 -0.0224
26037W        W42171  13.398  10.341   1.928 -0.1584 -0.1312  0.0581
26038W        W42172  17.219  16.177   0.905 -0.1560  0.1131 -0.2088
26039W        W42173  14.266  11.212  14.109 -0.2098 -0.0624  0.0480
26040W        W42174   9.051   9.842   6.733  0.2412  0.2651  0.2059
26041W        W42175   4.207   9.296  12.540  0.1023 -0.0880  0.0221
26042W        W42176   2.454   9.248  15.881  0.1766  0.2633 -0.2604
26043W        W42177  13.595   9.853   3.504 -0.2144 -0.0643 -0.1321
26044W        W42178   0.480  17.962  13.807 -0.1452 -0.3745  0.1083
26045W        W42179  11.002  10.082  14.126 -0.0219 -0.0618  0.0373
26046W        W42180   4.306   6.001  12.859  0.0687  0.1579 -0.0330
26047W        W42181  12.546  11.388  11.599 -0.1579  0.3610 -0.4596
26048W        W42182   4.654   7.587  12.183 -0.0049 -0.2559 -0.1409
26049W        W42183   3.914   6.478  15.073 -0.2001 -0.0344 -0.0057
26050W        W42184   6.453   1.705  14.928 -0.3145  0.1374  0.0268
26051W        W42185   5.770  13.247   4.589  0.2057  0.0587 -0.0043
26052W        W42186  11.274   7.166   4.521  0.1948 -0.3314 -0.1341
26053W        W42187  15.503   0.530  11.908 -0.0331 -0.1050 -0.1317
26054W        W42188  11.852  12.716  13.362  0.0859  0.1450 -0.0996
26055W        W42189   7.584   3.041  14.823  0.4304 -0.1204 -0.3737
26056W        W42190  15.701   1.558  12.741 -0.1025  0.0513  0.3015
26057W        W42191   6.246   9.748   4.989 -0.0910  0.3737 -0.0341
26058W        W42192   9.593  16.106   3.458  0.0060 -0.1167 -0.1524
26059W        W42193  10.027   3.933   6.165 -0.1831 -0.1521  0.2835
26060W        W42194  14.497  12.824  10.627 -0.0395 -0.1210 -0.1985
26061W        W42195  15.488   8.926  15.978 -0.1610 -0.0182 -0.0343
26062W        W42196   2.385  12.752   2.405 -0.0421 -0.1126  0.1804
26063W        W42197   6.358  13.789   3.594  0.1339 -0.0097 -0.0546
26064W        W42198  16.566  11.298  11.974 -0.0865  0.0354 -0.0207
26065W        W42199  16.610  15.835   3.883 -0.2217  0.0307 -0.3554
26066W        W42200   6.415  13.617  16.352 -0.1670 -0.0256  0.1404
26067W        W42201   3.321   7.010  12.504 -0.3856  0.1459 -0.0695
26068W        W42202  17.595  17.669  11.813 -0.0406 -0.0353  0.1108
26069W        W42203   2.205   7.844  11.484  0.0763 -0.0872 -0.1113
26070W        W42204   7.938  11.166   4.275  0.0228 -0.2029 -0.2112
26071W        W42205   8.842   4.615  11.882  0.0257 -0.1560  0.1715
26072W        W42206  16.653   9.805  14.174  0.1828 -0.1197 -0.0700
26073W        W42207   1.662   6.749   2.327  0.0691 -0.0725  0.0613
26074W        W42208   6.749   2.329   0.277  0.0872 -0.2573  0.1840
26075W        W42209  11.402  13.682   2.704 -0.2964 -0.0775  0.1003
26076W        W42210   1.546  13.606  11.957 -0.2303  0.0649  0.0144
26077W        W42211  12.788  14.549   3.603 -0.1152 -0.0260 -0.0902
26078W        W42212  15.491   2.255   0.134 -0.0364  0.0903  0.0099
26079W        W42213  15.145  10.877   4.878  0.3442 -0.0024 -0.0426
26080W        W42214   0.890  10.495  12.330  0.1750 -0.1015 -0.2175
26081W        W42215   5.866   9.581  11.207  0.2591  0.0760 -0.0376
26082W        W42216   9.728  11.562  10.888  0.0819 -0.0911  0.1070
26083W        W42217   8.982  16.638  13.507  0.0802 -0.0576 -0.0494
26084W        W42218  17.964   3.209   0.670  0.0138 -0.2747 -0.0110
26085W        W42219  16.138  12.475   1.729 -0.1700  0.1642  0.0823
26086W        W42220   2.957  14.561  12.791 -0.0125 -0.1268  0.1242
26087W        W42221  13.668  13.440   1.502  0.1509 -0.1771  0.0004
26088W        W42222   1.970  10.228   3.807  0.0811  0.2991 -0.0119
26089W        W42223   0.987   3.300  11.908 -0.3479  0.1513 -0.2312
26090W        W42224   2.201  13.203   5.083 -0.0035  0.0922 -0.0817
26091W        W42225  14.113  14.747   0.299 -0.1134 -0.0923 -0.2934
26092W        W42226   9.205   5.030   4.545  0.0205 -0.2239  0.0970
26093W        W42227  12.363  17.547   1.787  0.2193  0.1129  0.0365
26094W        W42228   5.333  17.914  14.083  0.0872  0.1479 -0.1424
26095W        W42229  14.491  15.298   3.227  0.2880  0.4806  0.1326
26096W        W42230   1.491   5.105   5.091 -0.0673  0.0339  0.0599
26097W        W42231  17.254  17.110   2.630  0.1656  0.2076  0.0499
26098W        W42232   7.677  12.287  13.314 -0.1935 -0.0788  0.0837
26099W        W42233   9.091  16.598   3.898 -0.2826  0.3157 -0.0983
26100W        W42234   8.039   2.545  11.714 -0.1934 -0.4810 -0.2547
26101W        W42235   5.893  16.381  11.586 -0.2077 -0.0542 -0.1589
26102W        W42236  15.955  15.081   5.828  0.2650  0.2182  0.1326
26103W        W42237  18.085  14.158   2.783 -0.2272  0.3438  0.1612
26104W        W42238  16.036  11.959  12.642 -0.3571  0.0469 -0.1352
26105W        W42239   7.796  14.275  12.790 -0.3444 -0.1427 -0.5465
26106W        W42240  10.630   4.917  11.360 -0.0422  0.4205 -0.0741
26107W        W42241   6.927   6.919  10.694 -0.0104  0.0061  0.0143
26108W        W42242  17.290   4.365  12.787  0.1923 -0.2595  0.1213
26109W        W42243   3.102  10.786   3.544  0.0448 -0.2383 -0.0020
26110W        W42244  15.550  13.321  11.222 -0.2316 -0.0510 -0.1191
26111W        W42245   0.196   5.860  13.343 -0.1755  0.1899 -0.1232
26112W        W42246  13.570  16.475  13.244  0.0393 -0.0159 -0.1095
26113W        W42247  16.415  17.271   5.269 -0.0371  0.0539  0.1624
26114W        W42248   2.488  15.275   4.864 -0.0932 -0.3167  0.0609
26115W        W42249   5.386  17.267   0.617 -0.0146  0.0583 -0.3115
26116W        W42250  15.882  14.368   1.112 -0.1116  0.2059 -0.1741
26117W        W42251   8.875   5.276  15.221  0.0325 -0.3366  0.0769
26118W        W42252  12.257   2.611   3.428 -0.0473 -0.2419 -0.0020
26119W        W42253  11.003   3.042  11.288  0.0328 -0.2023  0.0614
26120W        W42254   8.324   4.641  15.606  0.0214 -0.0572  0.0172
26121W        W42255  13.223   1.469  12.226 -0.1268  0.1996 -0.0408
26122W        W42256  12.140   0.529   0.539 -0.1217  0.1126 -0.1844
26123W        W42257   5.875  14.207  14.708 -0.0328 -0.4714  0.0151
26124W        W42258   6.679   8.264  11.337  0.1564 -0.2429  0.0747
26125W        W42259   8.716   1.200  11.483  0.2591 -0.0829 -0.1671
26126W        W42260  17.673   6.950  15.459  0.0223 -0.0263 -0.3429
26127W        W42261  11.197  16.227   0.960  0.0783 -0.0684  0.1778
26128W        W42262   5.517   7.701   4.820  0.1189 -0.0857  0.0138
26129W        W42263   3.432   9.019  11.236 -0.1781 -0.2151  0.0933
26130W        W42264   3.375  14.685  12.628 -0.1514  0.1233  0.0590
26131W        W42265  15.808  12.451  12.964 -0.3087 -0.1975  0.0609
26132W        W42266   7.722  16.797   1.253 -0.0836  0.1434  0.3230
26133W        W42267   5.114  15.930  14.152  0.1822  0.1422  0.1837
26134W        W42268  11.339  12.780   1.331  0.1608  0.0348  0.3416
26135W        W42269   2.116   7.387   6.073 -0.0489 -0.0010  0.3109
26136W        W42270  14.106   6.551   0.089 -0.1994  0.2320  0.3111
26137W        W42271  11.445   7.134   3.003 -0.1941  0.0767  0.0613
26138W        W42272   7.793   7.557   0.188  0.2252  0.1593  0.0214
26139W        W42273  12.221   0.891  15.205 -0.0521  0.0902  0.0482
26140W        W42274   8.190  10.136  14.372  0.2061 -0.1972  0.0515
26141W        W42275   6.219   2.860   1.416 -0.0909  0.0867 -0.0285
26142W        W42276  17.072  12.468   4.677  0.0839 -0.0748  0.0452
26143W        W42277  12.625   5.840  11.352  0.0948  0.0778  0.0473
26144W        W42278  13.382   4.394  14.883  0.0670 -0.3575  0.2477
26145W        W42279  10.087   8.988   1.926  0.0863 -0.0714 -0.0552
26146W        W42280   2.143  14.898  15.618 -0.1384 -0.0153  0.0210
26147W        W42281   8.898   4.066  13.259  0.0542 -0.2366 -0.1466
26148W        W42282  14.609   8.268  12.497  0.1031 -0.1239  0.0072
26149W        W42283   3.649  14.644  12.038  0.3557 -0.0963 -0.1641
26150W        W42284   1.458   4.282  12.124  0.1547 -0.0779  0.2115
26151W        W42285  12.610  17.037   1.953  0.0654 -0.2362 -0.3537
26152W        W42286  14.184   4.760  14.481 -0.2721  0.1508  0.1366
26153W        W42287   6.427   4.511   5.941 -0.1764  0.0473  0.0494
26154W        W42288   6.859  14.896   0.945 -0.3048 -0.1732  0.1343
26155W        W42289  10.177  10.769  15.872 -0.0958 -0.2912  0.0123
26156W        W42290  11.155   8.654  14.503 -0.2751 -0.1346 -0.0609
26157W        W42291   6.927  17.302  11.691  0.0574 -0.0866 -0.0646
26158W        W42292  12.986   6.171   3.567 -0.2684  0.0316  0.1806
26159W        W42293   2.610   7.349   3.922  0.5005  0.0696  0.0413
26160W        W42294   9.606  17.470   1.606  0.3832  0.2566 -0.0083
26161W        W42295  17.952  14.606  15.976 -0.2386  0.1093 -0.5230
26162W        W42296   5.346   1.493  16.107  0.1780 -0.1108  0.0001
26163W        W42297  10.303  15.702  16.294 -0.4112  0.1661 -0.0998
26164W        W42298  10.013   9.347  13.512 -0.0339  0.0215 -0.1730
26165W        W42299  15.451   0.172  12.454 -0.0098 -0.0628 -0.1336
26166W        W42300  16.186   0.856  16.141  0.0159  0.0985 -0.3208
26167W        W42301   1.430   3.684  10.971  0.0857  0.1035 -0.0547
26168W        W42302  13.154  15.224   2.224 -0.0839 -0.0451 -0.0430
26169W        W42303  15.446   8.733  12.632  0.0356  0.2399 -0.1528
26170W        W42304   6.217   9.273   2.316  0.1054  0.0979 -0.0005
26171W        W42305   8.259   6.285   5.498  0.0464 -0.1525 -0.1614
26172W        W42306   7.299   1.764   4.377  0.0662  0.1730 -0.0364
26173W        W42307   6.780   3.898  11.410 -0.3805  0.1139  0.1178
26174W        W42308  13.140   4.264   1.502 -0.0261  0.0353 -0.0449
26175W        W42309  16.381  12.569  11.417 -0.0926 -0.2193  0.0648
26176W        W42310  15.341  13.738  13.704  0.2486 -0.1416  0.2422
26177W        W42311  16.585   2.519   0.396 -0.1499  0.1111 -0.1602
26178W        W42312  10.501   8.456  14.528  0.3662  0.1225 -0.1822
26179W        W42313   6.147  12.137  14.947 -0.1360  0.1019  0.0562
26180W        W42314  12.152  15.506   1.716 -0.1662  0.0930  0.0769
26181W        W42315   3.802  17.782  11.803 -0.0401 -0.0450  0.0945
26182W        W42316  12.199  13.232   2.473  0.3516 -0.0561 -0.0161
26183W        W42317   7.474   5.089  14.173  0.0890 -0.2320 -0.0043
26184W        W42318   4.458  14.954  12.481  0.0959 -0.3225  0.0414
26185W        W42319  14.270  10.046  14.076 -0.3193 -0.0187 -0.2605
26186W        W42320   9.146  16.504  12.955 -0.0447 -0.1217  0.3640
26187W        W42321   6.790   8.150   5.852  0.2975  0.0059  0.0102
26188W        W42322  16.959  11.915  11.947 -0.0869 -0.0343  0.0494
26189W        W42323  14.552   3.470   3.052 -0.0357  0.0131 -0.0999
26190W        W42324   2.696   4.213   1.658 -0.1675  0.1038 -0.1712
26191W        W42325  14.190   5.631  14.347 -0.1309  0.0404  0.0689
26192W        W42326   4.130  15.454   1.352 -0.0528 -0.0138  0.0437
26193W        W42327   4.178   3.411  15.295  0.1605  0.1263 -0.1703
26194W        W42328  16.083   0.061  15.973  0.0237  0.0549 -0.0153
26195W        W42329  14.890   7.016  11.639 -0.2134 -0.0594  0.0477
26196W        W42330   6.432  13.794   1.318 -0.0591  0.0911 -0.2278
26197W        W42331  11.146   9.038   3.007  0.0203  0.2293  0.0443
26198W        W42332   8.397  15.253   2.235 -0.0101  0.0410 -0.1603
26199W        W42333  11.285   0.980  13.191 -0.2738  0.0313  0.0145
26200W        W42334  10.753  17.735   0.171 -0.1187  0.0355  0.1801
26201W        W42335   1.392   8.700   5.117  0.0927 -0.0603  0.0447
26202W        W42336   1.995  13.067  13.053 -0.0065  0.1165 -0.0821
26203W        W42337   0.094  10.338  12.868  0.0151 -0.3400  0.0096
26204W        W42338  10.503   8.570  11.579 -0.1044  0.4379  0.2467
26205W        W42339   6.418   9.481   0.183 -0.1907 -0.0758  0.1221
26206W        W42340  14.388  10.054  15.047 -0.0413 -0.0141  0.1701
26207W        W42341  13.527  13.024  15.904  0.2169  0.5636 -0.0123
26208W        W42342  16.536  16.707  13.330 -0.1649  0.1142 -0.0930
26209W        W42343  14.670   4.287   4.881  0.0998 -0.1077 -0.1826
26210W        W42344  17.595   5.227  12.435  0.1243 -0.0854  0.1558
26211W        W42345   2.625  11.228  15.834 -0.2334  0.0460  0.0183
26212W        W42346  15.588   3.863  14.183 -0.0754 -0.1175 -0.1201
26213W        W42347  12.348   4.980   2.470 -0.2603  0.1422 -0.0401
26214W        W42348   9.253   8.446  15.708  0.2146  0.2520 -0.1419
26215W        W42349  16.394  10.248   5.337  0.1396  0.0995 -0.0475
26216W        W42350   9.266  16.025   4.525 -0.4144  0.2436 -0.1320
26217W        W42351   5.893   0.664  11.490  0.2715  0.3946 -0.0156
26218W        W42352   5.293   3.251   5.334 -0.1138 -0.2338  0.1750
26219W        W42353  14.812   6.668   0.912 -0.0207  0.1484  0.0159
26220W        W42354  15.110  16.894  12.348  0.3381 -0.0199  0.1438
26221W        W42355   2.598   0.317  15.479  0.1512  0.3432  0.1063
26222W        W42356   8.756   2.309   2.375 -0.0291  0.2634  0.2569
26223W        W42357   7.452  12.424   5.108  0.0966 -0.0428 -0.1126
26224W        W42358  10.505   8.635   3.592 -0.1856 -0.0078 -0.0811
26225W        W42359  17.304   4.694   2.930  0.0271 -0.1403 -0.0830
26226W        W42360  13.391   8.255   0.383  0.2544 -0.3102 -0.0364
26227W        W42361   7.945  16.101   5.114 -0.0745 -0.0419 -0.0818
26228W        W42362   9.570   7.182   0.520 -0.0159 -0.1301  0.2068
26229W        W42363   5.185   2.860   2.940 -0.1936  0.0866  0.0185
26230W        W42364  10.681   1.503   4.561 -0.0071 -0.0993  0.1431
26231W        W42365   4.074   7.674  12.996  0.2843  0.1113  0.0870
26232W        W42366   8.565   4.208  16.002  0.3988 -0.0070 -0.0378
26233W        W42367   0.368   3.393   3.634 -0.0020  0.1658 -0.1150
26234W        W42368   6.060   7.545   1.519 -0.1884  0.1564  0.0578
26235W        W42369   5.645  13.398  13.608  0.0704  0.0375 -0.0696
26236W        W42370   9.684  17.230  14.388 -0.1171  0.0277 -0.0553
26237W        W42371   1.895   6.832  12.535  0.0043  0.0285  0.3038
26238W        W42372   9.717  16.634  14.979 -0.1693 -0.0891  0.3515
26239W        W42373  12.683   7.603   3.026  0.1795 -0.0967 -0.2564
26240W        W42374   2.467   2.021   3.851  0.0773 -0.0837  0.0714
26241W        W42375   9.286  10.066   1.907  0.0236  0.1576  0.1977
26242W        W42376   4.422   4.028  15.238 -0.1001 -0.0361 -0.0217
26243W        W42377   4.786   7.412   4.026 -0.0213  0.2942 -0.3130
26244W        W42378  15.105   6.148  15.021 -0.2218  0.0423 -0.2178
26245W        W42379   1.278   9.194   1.736  0.1448 -0.2632 -0.1757
26246W        W42380  14.950  16.791   4.522 -0.0179  0.3226  0.1495
26247W        W42381   8.008  12.639   2.027  0.0662  0.1756 -0.0201
26248W        W42382  18.048   3.310   4.080  0.1389 -0.0040 -0.1174
26249W        W42383   5.124   7.454   1.734 -0.1579 -0.0069  0.2008
26250W        W42384   4.181  17.458  15.480  0.2446  0.5219 -0.1618
26251W        W42385  10.668   3.837  12.291  0.0778  0.1295 -0.2104
26252W        W42386   0.204   5.704   5.493  0.0414  0.0171 -0.0358
26253W        W42387  13.363  12.644   5.317 -0.1744  0.2262  0.1759
26254W        W42388  15.705  17.732   0.214  0.2806 -0.1973 -0.0337
26255W        W42389   7.715  16.406   3.724 -0.0194 -0.1090 -0.0649
26256W        W42390  10.803  15.514  12.121 -0.2387 -0.2710  0.1265
26257W        W42391   1.311  12.068   5.051 -0.0400  0.0056  0.0220
26258W        W42392   0.208   4.142  12.944  0.0264 -0.1915 -0.3048
26259W        W42393  15.747   5.175   3.659 -0.0725  0.6116 -0.2126
26260W        W42394  17.333   8.057   2.902 -0.1759  0.3345 -0.1993
26261W        W42395   1.510  11.867  13.289  0.2315 -0.1541  0.1837
26262W        W42396  13.835   7.213  15.374 -0.0762  0.0697  0.0688
26263W        W42397  16.969   9.553   2.988 -0.1669  0.2058  0.2276
26264W        W42398   8.432  12.327   5.293  0.1505 -0.2313 -0.1189
26265W        W42399  17.177   2.798   4.517 -0.2353 -0.0158 -0.1180
26266W        W42400   9.399  17.672  12.196  0.2485  0.1365  0.3212
26267W        W42401   7.409  13.593   0.985 -0.0215 -0.0593 -0.1843
26268W        W42402  11.619  12.421   5.448 -0.1079  0.3480 -0.1873
26269W        W42403   3.955  10.644   5.724 -0.0536  0.1899 -0.0266
26270W        W42404  13.827   9.961  11.388 -0.1206  0.1089  0.0287
26271W        W42405   0.559   8.341  14.449  0.0121 -0.2301 -0.0370
26272W        W42406   9.187   4.310  11.768  0.0363 -0.0590 -0.1171
26273W        W42407   1.377   9.867  14.274 -0.2151  0.1111  0.0154
26274W        W42408   5.099   2.432   2.057 -0.0518 -0.0883 -0.0341
26275W        W42409  14.671   4.307  13.674  0.0661 -0.0231 -0.2018
26276W        W42410   1.131   4.457  13.434  0.1930  0.1550 -0.0500
26277W        W42411  15.106   3.303  14.151 -0.3413 -0.0023 -0.2971
26278W        W42412  17.613  11.135   5.806 -0.0853 -0.0506  0.0920
26279W        W42413   9.486  14.261   2.716 -0.0280 -0.0648 -0.0315
26280W        W42414   7.662  10.138  11.234  0.2331  0.0993  0.0593
26281W        W42415   4.289  12.984  12.350  0.2179  0.2223  0.3549
26282W        W42416   4.195   3.121  13.698  0.0319  0.0530  0.2018
26283W        W42417   7.209   9.215   0.137 -0.4123 -0.0658 -0.2409
26284W        W42418  14.607  11.407  15.541 -0.1098 -0.0641  0.1811
26285W        W42419  15.375  16.814  11.926  0.0434  0.0046 -0.0349
26286W        W42420  15.544  13.336  13.823 -0.2160  0.0930 -0.0987
26287W        W42421  14.794  10.696   3.675 -0.0816  0.2219 -0.0194
26288W        W42422   4.671  11.162  16.035 -0.1896  0.0402  0.0768
26289W        W42423  10.355  15.794   1.067 -0.0728 -0.0563  0.1012
26290W        W42424  10.088  13.880   3.968  0.1155 -0.1527  0.1181
26291W        W42425  12.843  12.478   2.916 -0.2382 -0.0743 -0.0899
26292W        W42426   6.771   8.433  12.845 -0.2649  0.0568 -0.0156
26293W        W42427  15.324   8.536  14.735 -0.0207  0.1710 -0.0640
26294W        W42428   3.782   4.371   0.171  0.0463  0.0366 -0.0444
26295W        W42429   7.956  14.382  15.677 -0.0177  0.2056 -0.0570
26296W        W42430  16.666   2.002   2.936  0.0223  0.1777  0.1246
26297W        W42431  14.419  16.061  12.448 -0.3389 -0.0997  0.0308
26298W        W42432  17.114  15.648  12.420  0.1412 -0.0285 -0.1833
26299W        W42433  11.996  11.203  14.972  0.0459  0.0876  0.2869
26300W        W42434   6.515  13.374   4.670 -0.0271  0.0940 -0.0822
26301W        W42435   4.416   5.194  15.279 -0.3206 -0.0482 -0.1726
26302W        W42436   2.617  13.717   1.664  0.1101  0.0502  0.0569
26303W        W42437  14.783  17.370   1.598 -0.0912  0.2647  0.0526
26304W        W42438   6.126  12.266  14.474 -0.0215  0.2096 -0.2918
26305W        W42439   5.682  13.124   5.150  0.2557  0.0393  0.0415
26306W        W42440   7.723   9.725   5.716 -0.0403 -0.1777 -0.1998
26307W        W42441   6.930   8.599  11.773 -0.2789 -0.0694  0.0331
26308W        W42442  17.280   5.520  13.099  0.1709 -0.1641 -0.0545
26309W        W42443   8.180   0.942   0.079 -0.0929 -0.0669 -0.1581
26310W        W42444  14.827   1.980   4.301 -0.0249 -0.1112  0.0646
26311W        W42445   2.057  10.495   2.876  0.1235  0.0108  0.0077
26312W        W42446   7.375   5.341   2.447 -0.0272  0.0809 -0.0200
26313W        W42447   8.127  11.102  13.301 -0.1125  0.0350  0.0682
26314W        W42448   7.590  10.803   2.691  0.1719  0.0852 -0.3318
26315W        W42449   2.133   7.125  12.120  0.0071 -0.1072 -0.0239
26316W        W42450   4.714  13.266  11.786  0.2044 -0.2346 -0.1187
26317W        W42451  14.613   0.806  14.794 -0.1754  0.1919 -0.1095
26318W        W42452  16.824   7.588  15.307  0.0698 -0.0323  0.0131
26319W        W42453  16.859  16.308  14.871  0.0828  0.0553 -0.1830
26320W        W42454  14.153  13.537  15.996 -0.1006  0.0168 -0.0278
26321W        W42455  14.975   5.613  15.045 -0.0754  0.0754 -0.1933
26322W        W42456  15.808   9.348  13.800 -0.0382 -0.3908 -0.1590
26323W        W42457  16.418  13.819   3.659 -0.1072  0.2520 -0.0279
26324W        W42458   7.399   5.617  13.158  0.2330  0.0894 -0.1146
26325W        W42459   9.412   7.823   4.141 -0.2321 -0.1856 -0.1964
26326W        W42460   7.559  12.063  14.071 -0.0278  0.0638 -0.1059
26327W        W42461  17.245  13.429  14.046  0.1134 -0.0554 -0.0195
26328W        W42462  11.496  11.598  11.120  0.2207  0.1260  0.2127
26329W        W42463  15.717  10.645   3.108 -0.1174  0.1463  0.0523
26330W        W42464  13.385   4.871  15.213  0.0213  0.1663  0.0128
26331W        W42465  12.933   7.285  14.582 -0.2233 -0.0550  0.2085
26332W        W42466  10.660   1.599  13.665 -0.0453  0.2207  0.1554
26333W        W42467  16.835   9.902  15.791 -0.1189  0.0658  0.1043
26334W        W42468   5.606   1.635   4.838  0.3318 -0.0661  0.0702
26335W        W42469  11.436   0.123  15.740  0.1281  0.0588 -0.2930
26336W        W42470   6.026  11.869  11.269 -0.3665  0.0320 -0.1532
26337W        W42471   0.922  11.286  14.213 -0.2044 -0.1938  0.1975
26338W        W42472   7.392   7.687  15.069 -0.4410  0.1999  0.0231
26339W        W42473  13.731  15.363   3.623  0.0658 -0.0823  0.1195
26340W        W42474  13.406   8.860   1.498 -0.1303 -0.0926  0.0417
26341W        W42475  17.308  15.291  16.146  0.3244 -0.1410  0.3309
26342W        W42476   5.769  14.071  13.290 -0.3422  0.1481 -0.0083
26343W        W42477   3.333   6.683   3.435  0.0276  0.0403  0.2454
26344W        W42478  12.772  16.159  12.447 -0.0048 -0.3849 -0.0154
26345W        W42479   0.424   1.534   4.454 -0.2288 -0.1004  0.1994
26346W        W42480  12.597  17.286  14.668 -0.0413 -0.0941 -0.1150
26347W        W42481  14.587   0.767   3.409  0.0964 -0.1771  0.1544
26348W        W42482   0.134   0.958   2.887  0.2083 -0.2211 -0.0847
26349W        W42483   5.373   6.269  16.255  0.1681  0.1030  0.2309
26350W        W42484   7.074   9.521   2.104  0.0001 -0.1890 -0.0768
26351W        W42485  12.092  10.494   6.102  0.0244 -0.1205 -0.0839
26352W        W42486   7.296  14.700   5.784  0.0415  0.1644 -0.0986
26353W        W42487   1.008   7.281  11.118  0.2569 -0.0604 -0.5601
26354W        W42488   0.310   5.156   3.386 -0.1460  0.2709  0.1318
26355W        W42489   3.661  16.557   5.045  0.1168 -0.0652 -0.1656
26356W        W42490  11.422   4.284   3.412 -0.0708 -0.0180 -0.1133
26357W        W42491  14.975   9.341  10.360 -0.0394 -0.2545  0.0962
26358W        W42492   9.289  14.511   4.300  0.1125  0.2899 -0.1791
26359W        W42493   6.937  17.737   1.671  0.0523  0.0496 -0.0317
26360W        W42494  13.995   0.671   0.788 -0.0441 -0.2989 -0.0264
26361W        W42495   6.323  10.170  14.724 -0.2599  0.0896 -0.0903
26362W        W42496   1.909  12.890   3.774  0.0508  0.2737 -0.1539
26363W        W42497   1.858  12.604   0.318 -0.1591 -0.3842  0.2191
26364W        W42498   8.013   1.280   2.329  0.2946 -0.1707  0.0039
26365W        W42499  13.744  10.667   1.757 -0.2051  0.2144 -0.1187
26366W        W42500  14.571  15.140  15.763 -0.0921 -0.0710  0.0456
26367W        W42501  10.326  13.201   2.966  0.0500 -0.0147  0.1974
26368W        W42502   7.643  14.352   2.280  0.1796  0.2225  0.0047
26369W        W42503  11.864   9.632  11.849 -0.1474 -0.0944 -0.2951
26370W        W42504   2.923  15.821   4.206  0.0472  0.0760  0.1447
26371W        W42505  11.677  16.446  11.638 -0.2672  0.0200  0.2526
26372W        W42506   9.064   6.377  14.508  0.0075  0.0540  0.1938
26373W        W42507   1.738   0.702   0.266 -0.0508 -0.1345  0.1832
26374W        W42508   9.551   4.607  13.684 -0.0648 -0.1532 -0.3165
26375W        W42509  17.585   6.619  15.037 -0.0375  0.0394  0.0966
26376W        W42510   5.766   8.393   4.650  0.0978 -0.2295  0.1301
26377W        W42511  16.244   8.189   5.424  0.1807  0.0725  0.1028
26378W        W42512   4.614  12.895   4.141 -0.6193 -0.0330 -0.1182
26379W        W42513   2.973  10.407   3.937  0.1426  0.0363 -0.1145
26380W        W42514   9.914  16.504   1.683  0.0712 -0.1491  0.1737
26381W        W42515  16.705   0.855   5.018 -0.0817  0.3090 -0.4071
26382W        W42516  15.884   5.187  16.091 -0.2250  0.1803  0.0581
26383W        W42517  14.383   3.806   4.954  0.1548  0.1457 -0.2424
26384W        W42518   1.088   3.631   0.844  0.0390  0.0536 -0.0508
26385W        W42519   8.509   3.667   2.035  0.2195  0.0379  0.1310
26386W        W42520   3.943  12.412   0.889 -0.2616  0.1219  0.1180
26387W        W42521  10.870  17.593   5.297  0.1881 -0.2575  0.1988
26388W        W42522   0.952  14.663   4.211 -0.0034  0.0556  0.0817
26389W        W42523   7.741  17.619  12.390  0.1655 -0.0836 -0.0623
26390W        W42524   4.185  15.770   4.087 -0.4436  0.0071  0.1674
26391W        W42525  11.399  11.645  14.995  0.4511  0.2089 -0.0189
26392W        W42526  11.719  13.768   3.144 -0.1706 -0.0166 -0.0123
26393W        W42527   4.297  14.951   3.213  0.0502 -0.3232  0.1604
26394W        W42528  16.501  10.087   4.781 -0.4929 -0.1623 -0.0756
26395W        W42529   2.800   7.720   3.603  0.1528  0.2816  0.1335
26396W        W42530   0.599   4.919   3.009  0.2874 -0.0027  0.0025
26397W        W42531   5.333   5.873   0.575  0.2389  0.2311 -0.2928
26398W        W42532   5.070   4.351  13.419 -0.2125  0.0543 -0.0318
26399W        W42533   9.403  16.430   0.113 -0.0157  0.0442  0.1240
26400W        W42534  11.403  14.602  14.582  0.2328 -0.0298  0.2438
26401W        W42535  15.490  13.486   2.104  0.0323 -0.2067  0.0050
26402W        W42536   9.882  12.577  14.125 -0.2059 -0.1330  0.0747
26403W        W42537  17.710   7.064   0.704 -0.3858 -0.1714  0.2232
26404W        W42538   6.828  11.860   2.105 -0.2623  0.1554 -0.1165
26405W        W42539  17.852  16.103   1.850  0.0237 -0.2119  0.2166
26406W        W42540  11.569   9.443  14.254 -0.3014  0.2237  0.1591
26407W        W42541   8.183  11.021   1.461  0.0715  0.1327 -0.2472
26408W        W42542  11.524   7.987   4.138  0.2809 -0.0089  0.0567
26409W        W42543   0.307   8.520   4.458 -0.3532  0.2013  0.1585
26410W        W42544   3.916  12.226  15.792  0.2718 -0.0367 -0.4953
26411W        W42545  11.807  11.216   0.725 -0.2905  0.1581  0.0903
26412W        W42546   0.057   4.552  13.116  0.2677 -0.1437 -0.1632
26413W        W42547  14.038  14.019   1.730  0.0176  0.0969 -0.1299
26414W        W42548  15.883  17.879   3.232  0.1383 -0.0879  0.1881
26415W        W42549   0.401  14.728  14.149  0.2717 -0.0402  0.2526
26416W        W42550  16.488   9.247   4.216  0.1272 -0.2124  0.0158
26417W        W42551  15.874  15.795  16.151 -0.1834 -0.1682 -0.1072
26418W        W42552   9.275  16.169   0.534 -0.1598 -0.2154  0.1881
26419W        W42553  15.382  10.163   2.080 -0.0013 -0.3305 -0.1488
26420W        W42554  16.343   0.388   1.586  0.2383  0.1766  0.2277
26421W        W42555  10.386  15.691   6.158 -0.0753  0.0599  0.4835
26422W        W42556   7.344  10.573  14.493  0.0461  0.1763  0.2062
26423W        W42557   2.738   8.228  14.757  0.1499 -0.1482 -0.0682
26424W        W42558  11.623  17.509   0.473 -0.2612  0.0258 -0.1768
26425W        W42559   5.212   2.813   5.109  0.0653 -0.0384  0.1153
26426W        W42560  14.389  14.675  11.597 -0.2951 -0.1642  0.1455
26427W        W42561   6.105   2.407   4.159  0.1478 -0.1893  0.0179
26428W        W42562   2.927  11.296   3.749 -0.2106 -0.3411 -0.0191
26429W        W42563  10.307   5.132  15.049  0.1418 -0.0181  0.1524
26430W        W42564   1.985  13.444   1.549 -0.0050  0.0436  0.0572
26431W        W42565  12.582   3.832  11.877  0.1150  0.1331 -0.2184
26432W        W42566  15.169   5.507   0.082  0.2672 -0.0110  0.0716
26433W        W42567   0.762   4.108   1.242  0.0752  0.4161  0.2849
26434W        W42568  15.601   5.862  13.247  0.2835 -0.2450 -0.0021
26435W        W42569   9.660   1.755   5.215 -0.1874  0.0306  0.3942
26436W        W42570  15.772   4.682  15.987 -0.0777 -0.1883  0.0030
26437W        W42571   3.286   7.035  15.380 -0.0133  0.0728  0.0777
26438W        W42572   4.286   1.222  13.738 -0.1521 -0.3612  0.3497
26439W        W42573   7.032  11.980   3.888  0.0711 -0.0485  0.1931
26440W        W42574   2.767  15.408  11.115  0.0200  0.3195  0.2044
26441W        W42575   6.150  12.262  13.867 -0.0990  0.0240  0.1292
26442W        W42576  10.416   9.369  11.338 -0.0545 -0.0090 -0.3585
26443W        W42577  17.625   3.628   6.033 -0.0059  0.1942  0.3021
26444W        W42578  16.438   4.304  11.552  0.2583 -0.2331  0.2270
26445W        W42579  14.992   6.751  12.170 -0.1456 -0.2530  0.3258
26446W        W42580   4.766  13.909  14.977  0.1148  0.0392 -0.0198
26447W        W42581  10.968   4.844   0.928  0.0301  0.1514 -0.2249
26448W        W42582   6.626   1.512  14.409 -0.1299  0.1540  0.0663
26449W        W42583  15.928   3.403  14.705  0.2460  0.1917  0.2115
26450W        W42584   5.035   6.263   5.721 -0.2007  0.0491  0.0616
26451W        W42585  15.832  18.072   2.302  0.0329  0.0796  0.2438
26452W        W42586  10.871   7.832   2.196  0.1320 -0.1394  0.1615
26453W        W42587  14.007  16.869   1.823  0.1773 -0.0312 -0.1467
26454W        W42588  11.653  14.279   2.079 -0.0970 -0.0396  0.0053
26455W        W42589   0.419  17.489  11.866 -0.2021  0.1457 -0.0325
26456W        W42590   5.966  12.785  14.687 -0.0473  0.2401  0.2089
26457W        W42591   4.537   7.940  14.910  0.0638  0.1472  0.1803
26458W        W42592  11.918  16.309  15.641  0.5053 -0.1192  0.2487
26459W        W42593  17.980  10.786   0.576 -0.0050 -0.2160  0.1190
26460W        W42594  16.712  13.001  16.272  0.1113  0.0003 -0.1971
26461W        W42595   2.333  15.561  13.255 -0.2118 -0.0387  0.2323
26462W        W42596   9.965  16.537   3.476  0.0995  0.0188 -0.3486
26463W        W42597  14.385   2.726  14.260  0.0713 -0.0137  0.0839
26464W        W42598  15.527   2.937  15.517 -0.1185  0.0019 -0.0941
26465W        W42599   8.372  12.862   1.140  0.0116 -0.0078  0.2319
26466W        W42600   7.068  11.806   4.339  0.1254  0.0719  0.0077
26467W        W42601   6.025  16.867   2.118 -0.3486  0.2849 -0.1110
26468W        W42602  13.289   4.672  11.071 -0.0310  0.0198  0.3157
26469W        W42603   1.785   7.110  15.299 -0.0241 -0.0312  0.0072
26470W        W42604  15.929   8.470   5.141 -0.0943 -0.1816 -0.2193
26471W        W42605  11.158  16.533   2.873 -0.3386 -0.1855 -0.2368
26472W        W42606   0.544  13.865  13.399 -0.1024 -0.0101  0.1030
26473W        W42607   5.218  11.891   4.435 -0.0845  0.0037 -0.0296
26474W        W42608   4.862   4.362   3.626  0.1283  0.0215 -0.2634
26475W        W42609  16.517  11.923  12.728 -0.2857 -0.0106  0.1205
26476W        W42610  17.561   5.999   0.672 -0.3220  0.0847  0.0691
26477W        W42611  10.292  13.690   2.677  0.0932 -0.3563 -0.2017
26478W        W42612  16.408   0.730  13.863  0.1007 -0.0020 -0.1902
26479W        W42613   1.420  17.740   3.882 -0.1108 -0.0532 -0.3128
26480W        W42614  12.954   5.258   1.620 -0.1274  0.0378 -0.3828
26481W        W42615   4.259   6.474   0.867 -0.0946 -0.2042  0.0206
26482W        W42616  14.221   8.834  11.273  0.0157 -0.1307 -0.1829
26483W        W42617   8.783   8.681  12.170  0.1097  0.0099  0.1769
26484W        W42618   9.409  16.930   4.103  0.0645  0.1115  0.1006
26485W        W42619   6.707   1.389  12.585  0.2466  0.1031  0.0085
26486W        W42620  13.498   6.148  12.828 -0.1889  0.4664 -0.4201
26487W        W42621  13.411   9.076   6.069 -0.0757  0.3151  0.1849
26488W        W42622  17.423   0.708   5.836  0.1054 -0.0773 -0.1378
26489W        W42623   0.793  15.398   1.634  0.3259 -0.3886 -0.0502
26490W        W42624  16.441   4.371   0.757  0.1587 -0.1756 -0.0393
26491W        W42625  12.740   7.808   0.938 -0.0873 -0.2268  0.3557
26492W        W42626  11.263   2.197   3.415  0.1773 -0.1070 -0.0540
26493W        W42627   1.323   3.463  12.876  0.3140  0.0415  0.1288
26494W        W42628  15.302   8.026   1.831  0.0136 -0.1612  0.1058
26495W        W42629   6.642  15.290  10.299  0.0672  0.0507 -0.0591
26496W        W42630   3.637   4.169   4.809 -0.0998  0.1012 -0.1322
26497W        W42631  13.582   8.760   2.976 -0.2115 -0.0031  0.3244
26498W        W42632   1.127  14.535  14.254 -0.2603  0.0312 -0.0669
26499W        W42633   2.997   6.630  15.374  0.2680 -0.0582  0.2449
26500W        W42634  14.312   9.210   3.701  0.0708 -0.1293  0.1200
26501W        W42635  14.732  14.779   3.567 -0.1446  0.0895 -0.0307
26502W        W42636  17.992   3.214  14.909 -0.1888  0.0900 -0.1831
26503W        W42637   6.285  11.904   1.433  0.0398 -0.1288 -0.0069
26504W        W42638  12.571   1.588  16.143 -0.1983 -0.1557  0.0104
26505W        W42639  16.118   8.163  10.202  0.0178 -0.2181  0.0120
26506W        W42640   9.988   9.836  11.536 -0.1291  0.0053 -0.0245
26507W        W42641   9.254   7.221  13.267  0.0569  0.2076  0.1327
26508W        W42642  12.920   7.944   0.467 -0.5108 -0.1252 -0.0446
26509W        W42643   0.119  12.197  13.693  0.2277  0.0970 -0.2083
26510W        W42644   9.182   2.024   0.021 -0.3174  0.2797 -0.1184
26511W        W42645  13.010   6.598   4.130  0.0681 -0.0167  0.0493
26512W        W42646   8.760  11.305  10.487 -0.2194 -0.2494  0.1275
26513W        W42647   1.036   1.356  10.809  0.2393  0.0368  0.0677
26514W        W42648  14.442  16.908  13.053 -0.0254 -0.3633 -0.0519
26515W        W42649   4.876  17.631   2.924  0.5799  0.0841  0.2688
26516W        W42650   0.184  15.808   2.904 -0.2021  0.0910  0.1260
26517W        W42651   9.302   5.598   3.565  0.0468 -0.1373  0.0650
26518W        W42652  12.093   4.034  11.922 -0.1028  0.0511  0.2969
26519W        W42653  17.847   8.227  10.741 -0.0117  0.0262 -0.0835
26520W        W42654   4.510  12.880  15.163 -0.0088 -0.1065  0.0133
26521W        W42655   6.628  17.402  14.736  0.0043 -0.2025  0.3296
26522W        W42656  15.872   8.513  12.786  0.0214  0.0996  0.2024
26523W        W42657  11.040   4.998   4.849 -0.1517  0.1374 -0.0168
26524W        W42658  10.141  15.058  15.091  0.0067  0.0882 -0.0207
26525W        W42659   6.883   4.830   5.031 -0.1612 -0.1629 -0.1449
26526W        W42660   0.171  12.754  12.291  0.1044 -0.0420  0.0154
26527W        W42661   0.297  16.214   4.703 -0.1537  0.0988 -0.0579
26528W        W42662   5.283   5.358  10.919 -0.1434 -0.0173  0.1484
26529W        W42663   5.073  13.361   3.178  0.0547  0.1984 -0.1682
26530W        W42664   3.003  13.904  15.911  0.0852 -0.0485 -0.0520
26531W        W42665  12.928   8.412   3.743 -0.0605 -0.1230 -0.0471
26532W        W42666   6.221   8.572   1.050  0.1058 -0.0529 -0.1065
26533W        W42667   1.312   4.728   2.050 -0.1897 -0.0325 -0.0082
26534W        W42668  14.710  16.432  11.257 -0.0709 -0.3631 -0.2955
26535W        W42669  12.272  14.753  12.017  0.2712  0.1969  0.0702
26536W        W42670  13.969  16.146  12.986  0.1495 -0.3446  0.0591
26537W        W42671  12.857  10.487  12.309  0.1347  0.1389 -0.2918
26538W        W42672  15.373   4.928  14.450  0.1275  0.1222 -0.0275
26539W        W42673  14.991  10.970   1.642  0.1370  0.2647 -0.0473
26540W        W42674  14.311   3.501   5.785  0.0579 -0.0580 -0.0796
26541W        W42675   5.735  17.437  15.240 -0.2346  0.2099 -0.0375
26542W        W42676   1.190   1.725   3.010  0.1255 -0.3445 -0.0367
26543W        W42677   6.845   5.042   0.609 -0.0937  0.1149 -0.1441
26544W        W42678  10.137  11.349   0.893  0.0428  0.1659  0.1009
26545W        W42679   8.870  10.338  12.009  0.1165 -0.3704  0.0205
26546W        W42680  11.084  16.487  11.325  0.0195  0.1909  0.3012
26547W        W42681  12.647   4.996  12.092 -0.2598 -0.2550 -0.1365
26548W        W42682   3.589   1.719  12.258 -0.0223  0.1588 -0.0267
26549W        W42683   3.156  14.083   0.352  0.1229  0.2688  0.3085
26550W        W42684   4.822   3.003  14.428 -0.1057  0.1390 -0.2104
26551W        W42685  10.016  17.276   4.802 -0.0225 -0.0535  0.0468
26552W        W42686   2.934   3.043  13.557 -0.0797 -0.0833 -0.0820
26553W        W42687   6.991  10.462   2.050  0.0454 -0.1249 -0.3833
26554W        W42688  15.988  14.535  13.283  0.2046  0.0501 -0.0524
26555W        W42689  16.068  10.695  15.715  0.0042 -0.2366  0.0328
26556W        W42690  11.710  13.415  12.184 -0.4161 -0.2924  0.1038
26557W        W42691  15.058   5.488   0.715  0.0582 -0.0378 -0.1919
26558W        W42692  10.504   2.809  12.152 -0.2518  0.0534 -0.1575
26559W        W42693  16.141   6.528   2.387 -0.0473  0.5811  0.0884
26560W        W42694   3.331   1.513   3.673 -0.2351  0.0409 -0.1616
26561W        W42695   8.866   0.509  16.166  0.2502  0.0111 -0.1270
26562W        W42696  14.836   1.916  12.105  0.2213  0.0644 -0.0859
26563W        W42697   1.087   6.261   1.097  0.0513  0.1553  0.0161
26564W        W42698  15.209   5.556   2.516  0.2348 -0.0175  0.6520
26565W        W42699   3.126  14.347  11.768 -0.0353  0.1079  0.2142
26566W        W42700   2.008   8.939  15.979 -0.0976  0.0111 -0.0544
26567W        W42701  15.090   4.173  13.421  0.0410  0.0036 -0.1809
26568W        W42702   4.834   0.177  11.963 -0.0819 -0.0598  0.2537
26569W        W42703   1.997  16.795   1.988  0.1227  0.0441  0.1159
26570W        W42704  14.087  15.858   3.294  0.2260  0.1344  0.0698
26571W        W42705  15.129   3.937  16.312 -0.2435  0.1368 -0.1775
26572W        W42706  11.958   9.414   1.752  0.0341 -0.2026 -0.0602
26573W        W42707   8.429  12.509   3.813  0.2471  0.0650 -0.1160
26574W        W42708   2.178   4.512  15.221  0.0293  0.0555  0.3334
26575W        W42709  13.501  17.459   4.979 -0.3349  0.1269 -0.1677
26576W        W42710   9.526  15.672   4.236  0.0263  0.2198 -0.4087
26577W        W42711   0.560  13.959   4.746 -0.0274 -0.1086 -0.1584
26578W        W42712  16.413   1.839   1.545  0.0139 -0.0885 -0.1062
26579W        W42713   2.196  16.132  11.325 -0.3047 -0.0465  0.0369
26580W        W42714  16.306   3.831  14.843  0.3320 -0.0079 -0.0994
26581W        W42715  15.286   0.687   2.474 -0.2125  0.1781 -0.0365
26582W        W42716  17.550   7.941  14.655  0.0019 -0.0705  0.0376
26583W        W42717  11.636   8.752   4.512  0.0944  0.3568  0.0868
26584W        W42718   4.187  18.023  13.090 -0.1560  0.1753  0.0256
26585W        W42719  10.761  12.956   3.006 -0.1697  0.2564 -0.0606
26586W        W42720   3.063   4.159  11.442  0.1629  0.0350 -0.2608
26587W        W42721  11.673  12.900  11.274 -0.2357 -0.3202 -0.2290
26588W        W42722   1.718   7.159   5.690 -0.0965 -0.0451  0.2355
26589W        W42723  11.012  16.720   5.151  0.2347  0.0529  0.0250
26590W        W42724   9.643  10.060   3.575 -0.1746  0.1147  0.1660
26591W        W42725   0.994   4.221  12.712  0.2670  0.0223 -0.2540
26592W        W42726   1.214   6.363   5.075 -0.2495 -0.1465 -0.0585
26593W        W42727   6.030  13.419   3.703 -0.3898  0.1130  0.0505
26594W        W42728  12.220  12.243  11.492 -0.1592 -0.0243 -0.0801
26595W        W42729   0.824  12.046  11.995  0.1036  0.2273 -0.0920
26596W        W42730  16.952   8.662  13.903  0.0573 -0.0214  0.4463
26597W        W42731   2.501  17.690   2.894  0.1771 -0.0111 -0.1446
26598W        W42732   3.542   8.870  13.863 -0.1237 -0.0734 -0.1421
26599W        W42733   6.554   6.227  12.756  0.2341  0.4495  0.0618
26600W        W42734   5.502   5.965   4.047  0.0166 -0.2968  0.1428
26601W        W42735  14.399   6.188   0.309 -0.2460 -0.1302 -0.0268
26602W        W42736  16.380  15.238  12.404  0.2648  0.2731 -0.2854
26603W        W42737  16.661   6.821  12.856 -0.0825 -0.0481 -0.0457
26604W        W42738  14.802  11.553  14.734  0.1696  0.2085 -0.2192
26605W        W42739  16.107   5.205  14.221  0.2333  0.2272 -0.1597
26606W        W42740   9.881  15.289  15.463 -0.1497 -0.1316 -0.0220
26607W        W42741   9.867   9.326   1.555 -0.0557 -0.1686  0.1157
26608W        W42742   3.570   1.661  15.991 -0.1277  0.0302  0.2994
26609W        W42743  13.827  11.195   4.202 -0.3948  0.1272  0.1456
26610W        W42744   8.671  12.199   3.494 -0.1380 -0.2936  0.1177
26611W        W42745   1.596  13.725  16.359 -0.1693 -0.0488 -0.4146
26612W        W42746  11.151  14.684   0.174  0.2288 -0.0697  0.1555
26613W        W42747   0.656  11.857   2.960  0.1144 -0.1632 -0.1030
26614W        W42748   1.213  11.337  15.554 -0.3524  0.1775 -0.0214
26615W        W42749   3.593   0.692   4.884  0.0830 -0.0531 -0.5115
26616W        W42750  11.152  13.203   2.797  0.0295  0.0612  0.2638
26617W        W42751   8.230   9.651  14.110  0.0755  0.0489  0.0765
26618W        W42752  13.930   8.155  10.915 -0.3845  0.2976  0.3001
26619W        W42753  15.676  10.578  14.818  0.0586  0.1985 -0.1304
26620W        W42754  11.200   7.813   5.799  0.2594  0.2559  0.0019
26621W        W42755   9.251   5.175   1.689  0.1615 -0.0939  0.1911
26622W        W42756  11.138  16.124  13.460  0.3561 -0.1939  0.0653
26623W        W42757  16.591   7.378  14.082  0.1510 -0.0441  0.0406
26624W        W42758  14.189  11.123   2.975 -0.3337 -0.2610 -0.2957
26625W        W42759   2.311   0.455  11.488 -0.0656 -0.1432 -0.2994
26626W        W42760   8.927   0.950   2.451 -0.1627  0.0897  0.0390
26627W        W42761  15.661  12.543  13.940  0.3590 -0.2311 -0.1259
26628W        W42762  17.234  16.118  13.223 -0.0716 -0.0571  0.1813
26629W        W42763  16.897   0.378   3.975  0.1014 -0.1394  0.0237
26630W        W42764   0.470   6.848   3.252  0.1229 -0.1169  0.0014
26631W        W42765  18.048  11.381   4.591 -0.1744  0.3132  0.1334
26632W        W42766   2.573   5.397  15.365  0.1314  0.2242 -0.0501
26633W        W42767  15.715  12.029   2.624 -0.2011  0.0885  0.0936
26634W        W42768  14.374  12.290   5.671  0.2178 -0.0129  0.1967
26635W        W42769   0.671   3.559  12.162 -0.0474 -0.0718 -0.0838
26636W        W42770   3.131  16.242   0.126  0.0192  0.2280 -0.0358
26637W        W42771   4.355  13.509   4.916 -0.1391 -0.1675 -0.3191
26638W        W42772   7.586   8.246   5.312  0.2825 -0.3633 -0.0619
26639W        W42773  17.662  16.761   4.049  0.4723  0.1902  0.2126
26640W        W42774   2.319   8.558  11.298 -0.1815  0.0806  0.1692
26641W        W42775  13.821   7.157  11.770  0.1463  0.1260 -0.0469
26642W        W42776   4.800  15.514  14.364 -0.4255  0.4236 -0.0707
26643W        W42777  13.688   7.396   2.686  0.0194 -0.1971 -0.1931
26644W        W42778  15.217  11.525   0.340 -0.0735 -0.0196  0.0896
26645W        W42779   1.864  13.469   2.359  0.1380  0.0797 -0.1091
26646W        W42780  15.941  12.913  12.077  0.0566  0.2913  0.1542
26647W        W42781  12.202  12.723   2.378 -0.1252  0.1601  0.0971
26648W        W42782  14.961   4.314  15.121  0.0829 -0.0887 -0.3286
26649W        W42783  16.518   2.469   0.939  0.1056  0.0806  0.1457
26650W        W42784  17.580   2.026  12.635 -0.0199 -0.0112  0.1026
26651W        W42785  14.742  11.245  13.770  0.0424  0.1233 -0.2345
26652W        W42786   9.111  13.576   0.582 -0.2576 -0.3014  0.0784
26653W        W42787  14.360  14.750   3.134 -0.2906 -0.0521 -0.0434
26654W        W42788  11.420  17.181   1.353 -0.2502 -0.0533 -0.1722
26655W        W42789   8.442   8.987   0.817 -0.2150  0.2701 -0.0115
26656W        W42790   6.077  10.803  12.145 -0.0038  0.0304 -0.1470
26657W        W42791   4.643   3.537   3.066 -0.3323 -0.0286  0.1481
26658W        W42792  15.655   0.314  13.822  0.0204 -0.1910  0.1261
26659W        W42793   3.689   9.189   0.153  0.2723 -0.2015 -0.0838
26660W        W42794   2.155  11.774   3.848 -0.0209 -0.0279  0.2003
26661W        W42795  18.019   2.217   3.992 -0.0300  0.1521 -0.2258
26662W        W42796  12.130  12.331  13.413 -0.1176 -0.0640 -0.0056
26663W        W42797   0.840  16.911  12.171  0.1609  0.1084 -0.0190
26664W        W42798  15.051   0.141   3.242  0.0314 -0.0431  0.1509
26665W        W42799  11.160   9.448  15.367  0.2529 -0.2460 -0.0251
26666W        W42800   9.032  14.589   5.298 -0.0666  0.1492 -0.2589
26667W        W42801   1.278   2.712   4.156  0.0548  0.3391  0.0891
26668W        W42802  13.541  16.186   0.238 -0.0380 -0.2401 -0.1027
26669W        W42803  13.182  11.734   2.541 -0.1837 -0.0239 -0.1056
26670W        W42804   0.800  14.662   2.310  0.2194 -0.1405 -0.2061
26671W        W42805  10.727   7.312  15.505 -0.0449  0.0906 -0.0901
26672W        W42806  10.352  13.627  12.710 -0.0158 -0.0801  0.4319
26673W        W42807  12.095   6.905  15.083  0.0456  0.2879  0.4811
26674W        W42808  14.102   4.604   2.893  0.1012  0.1047  0.0508
26675W        W42809  16.435  13.485  11.508 -0.1640 -0.2520 -0.0122
26676W        W42810   3.911  17.371   3.914 -0.1303 -0.0140  0.0336
26677W        W42811  10.408   5.110  14.555  0.1447 -0.1491 -0.0236
26678W        W42812  14.565   0.833  14.203  0.0694 -0.0325 -0.2911
26679W        W42813   7.025   8.572  12.453  0.0593 -0.1347 -0.0509
26680W        W42814   7.639   0.867   1.628 -0.0139 -0.0751 -0.0996
26681W        W42815  11.212   6.203  12.388 -0.2060  0.1124  0.2685
26682W        W42816   3.428  11.485   2.267  0.1395  0.1509  0.0351
26683W        W42817   6.574   1.240   4.810 -0.0408  0.0387 -0.3204
26684W        W42818   4.989   8.878  12.734 -0.3577  0.1373  0.2659
26685W        W42819  17.954   9.530   1.781  0.1637 -0.1197 -0.0203
26686W        W42820  16.672  12.147  15.823  0.2457 -0.0762  0.2359
26687W        W42821  11.061   7.929   3.173  0.2104  0.1770  0.2054
26688W        W42822  10.860  14.098  14.828 -0.0010  0.2706 -0.2083
26689W        W42823   7.290   2.945  11.203  0.0583  0.0388  0.1908
26690W        W42824   4.236  11.280  11.974 -0.1351  0.1355  0.1788
26691W        W42825  15.855   5.138  11.938  0.3688 -0.0126  0.1777
26692W        W42826  10.711   7.759   1.218  0.0528 -0.0671  0.1141
26693W        W42827  11.258  17.532  14.273  0.1512 -0.0900 -0.0128
26694W        W42828  12.043   9.533  15.630  0.0117  0.1614 -0.2660
26695W        W42829   5.645   4.166  12.107  0.1218  0.0538  0.1410
26696W        W42830   6.311   3.684   2.044  0.0973  0.0746  0.1186
26697W        W42831   5.529   2.154   3.536 -0.0535 -0.2411 -0.5127
26698W        W42832  14.383   2.080   0.977  0.0108  0.1642  0.1733
26699W        W42833  16.407  11.445   2.329 -0.0305  0.3176  0.1900
26700W        W42834   4.063   4.381  15.014  0.0014 -0.2069 -0.1236
26701W        W42835  16.201   3.900  15.830 -0.2105 -0.0963 -0.0670
26702W        W42836   0.978   7.106   1.410 -0.0980 -0.0944 -0.0901
26703W        W42837   5.049   8.356   2.115 -0.0066 -0.0906  0.0503
26704W        W42838   0.526   6.671  11.792 -0.1666 -0.0267  0.0508
26705W        W42839  15.291  17.940  13.134 -0.2192  0.2594 -0.0702
26706W        W42840   1.331   6.512  15.964 -0.1500  0.0169 -0.1710
26707W        W42841  15.210  17.135   4.749  0.2261  0.0063  0.0607
26708W        W42842  18.048   8.845  15.257 -0.0889 -0.1061 -0.2698
26709W        W42843   8.086  13.248   0.342  0.0614 -0.0547  0.0994
26710W        W42844   5.186   2.988  14.778 -0.0172  0.1357  0.0526
26711W        W42845  15.618   4.010   0.141  0.1709 -0.1834  0.1780
26712W        W42846   1.220  12.082   3.841  0.0919  0.0415 -0.1581
26713W        W42847  10.157  11.459  11.222 -0.2380 -0.1618  0.0598
26714W        W42848   1.480  16.609  14.410  0.0742 -0.0950 -0.3367
26715W        W42849   4.749   7.347  11.685 -0.2483 -0.2458 -0.3247
26716W        W42850   2.839  16.024   3.637  0.0118 -0.1420 -0.0363
26717W        W42851  17.357   5.155  14.186 -0.0413  0.1328  0.0386
26718W        W42852   0.966   5.338  13.531  0.0239  0.1408 -0.2252
26719W        W42853  13.884   6.748  15.742 -0.0033 -0.0345  0.0903
26720W        W42854   5.532   5.452   4.057  0.2295  0.1653 -0.0482
26721W        W42855  11.107  10.587   2.420 -0.0999 -0.0028  0.1147
26722W        W42856   7.387  15.464   3.168 -0.0185 -0.0735  0.0753
26723W        W42857  10.254   4.321  15.602 -0.1273 -0.0961 -0.1386
26724W        W42858   7.307  17.033  12.609  0.1888 -0.0600 -0.2026
26725W        W42859   7.121  14.245  10.162 -0.0592  0.1406 -0.1243
26726W        W42860  13.334   0.978  15.506 -0.0659 -0.0436 -0.3275
26727W        W42861   0.617   2.750  12.505 -0.1470  0.2532  0.1743
26728W        W42862  13.888   7.796  13.544 -0.1260  0.0028  0.5027
26729W        W42863   7.400  10.989   4.962  0.1444  0.4434  0.1915
26730W        W42864   1.550   2.069  14.491  0.0981 -0.0551 -0.2807
26731W        W42865   5.182   6.246   3.075 -0.0859 -0.1766  0.0177
26732W        W42866  10.933  11.810   2.479  0.0610 -0.2355  0.1022
26733W        W42867  12.539  14.933  11.619 -0.1088  0.0662 -0.0949
26734W        W42868  17.974  11.517  12.943  0.2379 -0.1964  0.3050
26735W        W42869   5.948   0.463   1.456  0.0583 -0.0959  0.2051
26736W        W42870  17.999   2.713  15.940 -0.2418  0.0943 -0.0825
26737W        W42871  10.281  10.128   5.760  0.0712 -0.2124  0.0286
26738W        W42872  12.986  17.141   3.614  0.1323  0.0391 -0.0031
26739W        W42873  14.707  10.026   1.517 -0.0272 -0.2066  0.2636
26740W        W42874  10.723  13.364   1.282 -0.0957 -0.0564  0.3633
26741W        W42875  14.543   0.276  11.517  0.0207  0.3810 -0.2897
26742W        W42876   7.636   9.171  12.850 -0.2980 -0.3387  0.0674
26743W        W42877   5.248  16.580  12.195  0.1060  0.1287  0.1290
26744W        W42878   8.826  17.130   5.203 -0.1127 -0.0808  0.3297
26745W        W42879   9.210   5.303  16.351 -0.1207  0.1050  0.1617
26746W        W42880  16.330   7.254  15.883  0.1395  0.2322  0.1643
26747W        W42881  13.052   2.526   0.719 -0.0363  0.0224  0.0102
26748W        W42882  14.104   2.199   4.628  0.0425 -0.0628  0.0750
26749W        W42883   5.608  10.753  13.443  0.0954 -0.1091 -0.0070
26750W        W42884  10.249  14.112   2.406  0.2233  0.0138  0.5046
26751W        W42885   4.975   1.195   2.395 -0.0327  0.0398 -0.0917
26752W        W42886   0.580   3.706   2.647  0.3103 -0.1737 -0.0778
26753W        W42887  14.980   7.416  16.288 -0.2931  0.3228 -0.0049
26754W        W42888   4.736  15.924   4.077 -0.1053 -0.1456  0.0615
26755W        W42889  10.269   5.809  15.679  0.1295  0.0926  0.0256
26756W        W42890  17.751   7.048  14.400  0.0614 -0.1240 -0.0122
26757W        W42891  14.460  10.118   2.641 -0.0790  0.1334 -0.1005
26758W        W42892   9.947  10.989  12.636  0.1513 -0.0639 -0.0338
26759W        W42893  16.017   7.558   4.717  0.0817 -0.0875 -0.0160
26760W        W42894  15.836   2.011   4.714  0.0489 -0.0612 -0.0156
26761W        W42895   5.507  10.305  14.188  0.1162  0.1159  0.1943
26762W        W42896   5.946   7.041  12.632 -0.0290 -0.1948 -0.0580
26763W        W42897   9.092   1.467   4.819 -0.1210  0.0432 -0.0254
26764W        W42898   9.110  10.671  14.246 -0.0299  0.1147 -0.2430
26765W        W42899  16.374   2.121   3.450  0.0190 -0.1608  0.0688
26766W        W42900   2.334   1.316   3.008 -0.2141 -0.1591  0.0457
26767W        W42901   9.521   6.129  11.050  0.0728 -0.0870 -0.2751
26768W        W42902  15.332   1.142   0.565  0.1904  0.2377 -0.0237
26769W        W42903  17.096   6.552   3.983 -0.0113  0.0706  0.1376
26770W        W42904   8.054   9.096  15.421 -0.0954  0.1338  0.1604
26771W        W42905  15.058   1.699   1.482 -0.1445 -0.2148 -0.0068
26772W        W42906  13.991  14.401   4.736 -0.2568  0.0582  0.4258
26773W        W42907   4.409   8.524   4.475  0.3386  0.1722 -0.2825
26774W        W42908   6.907  15.406  15.900  0.3395  0.1042 -0.2241
26775W        W42909  14.656  16.338  13.536 -0.1107  0.0120 -0.1499
26776W        W42910  15.010   6.213   1.107 -0.2849  0.1067  0.1759
26777W        W42911  11.305  10.402  12.908  0.1235 -0.1435 -0.2742
26778W        W42912  12.753  13.159   0.700 -0.0336 -0.1502 -0.1910
26779W        W42913   9.406   0.685   3.734 -0.1465  0.0453 -0.1860
26780W        W42914  13.895   0.557  14.697  0.0038 -0.1327 -0.2535
26781W        W42915  12.540  10.173   0.968  0.0173  0.2219  0.2865
26782W        W42916   4.526  15.765  16.066 -0.2209  0.0353 -0.1984
26783W        W42917   1.291   9.038  16.328  0.0301  0.4043 -0.2096
26784W        W42918  17.541  12.860   4.646 -0.1691 -0.3571  0.0872
26785W        W42919   0.349  11.839   2.555 -0.1846 -0.0893 -0.1931
26786W        W42920   1.387  12.631  11.584  0.0473  0.0963  0.0850
26787W        W42921   3.910   3.778   2.531  0.0996 -0.0192  0.1210
26788W        W42922  12.282  15.920   2.799  0.0606 -0.1429 -0.0901
26789W        W42923   4.613  11.183   5.783  0.1442  0.2858  0.1260
26790W        W42924   4.642  17.515  16.159  0.0564 -0.4097  0.2135
26791W        W42925  13.997   2.518   1.611 -0.2532 -0.1524  0.1087
26792W        W42926   0.274  13.219  15.239  0.1486  0.1600 -0.0790
26793W        W42927   2.579   1.934   1.858 -0.0686  0.0283  0.2321
26794W        W42928   7.979   4.420   1.809  0.1891  0.1024 -0.1949
26795W        W42929  13.041   9.291  15.553 -0.0869 -0.0070  0.4012
26796W        W42930  14.231  17.012  12.662  0.5301  0.3806  0.1645
26797W        W42931   0.989   8.130  11.284 -0.0556 -0.0867  0.0822
26798W        W42932   3.602   1.831  14.218 -0.1098 -0.1550  0.1940
26799W        W42933   8.925   3.513   5.236  0.1429 -0.1075  0.2608
26800W        W42934   0.933   6.886  15.819 -0.0874 -0.2335 -0.0411
26801W        W42935  14.899  16.365  14.006  0.4368  0.0426  0.1837
26802W        W42936   9.712  10.117  12.542 -0.1261  0.1896 -0.2369
26803W        W42937   5.539   9.064   3.156  0.1599 -0.1526 -0.1898
26804W        W42938  14.096   6.960  13.891  0.1451  0.1139 -0.1271
26805W        W42939  14.517   1.782   3.630 -0.3325  0.2417  0.3547
26806W        W42940   0.634   8.127   1.821 -0.1401  0.0021 -0.0067
26807W        W42941  15.102   3.346  12.815 -0.2525 -0.0069 -0.1915
26808W        W42942  11.472   5.981  11.930  0.1073 -0.0035  0.1405
26809W        W42943   1.119  10.931   1.560 -0.1738 -0.1885 -0.0605
26810W        W42944   9.124  12.632   3.619 -0.1654  0.1779  0.1984
26811W        W42945   2.300  11.287   3.705 -0.0902 -0.2209 -0.0266
26812W        W42946   2.588   0.480  16.372  0.0965  0.2268 -0.3159
26813W        W42947   7.259  17.496  12.427  0.2012  0.1793 -0.1488
26814W        W42948  16.949   9.538  12.664 -0.1497 -0.3826 -0.0450
26815W        W42949  14.429   1.902  15.907 -0.1361  0.0789  0.2251
26816W        W42950  11.382   8.362   4.836 -0.3256  0.0961  0.0216
26817W        W42951   6.405  14.493  11.945 -0.0384 -0.2218  0.1460
26818W        W42952   6.599   1.823   3.111  0.1572  0.0163  0.0156
26819W        W42953   7.810  10.379   4.287  0.0976  0.0935 -0.0560
26820W        W42954   9.196  15.200  12.732 -0.0072  0.0493  0.1159
26821W        W42955  15.018   0.198   2.767  0.0912 -0.3284  0.0635
26822W        W42956  11.058  18.084  15.430  0.1870 -0.0241 -0.0701
26823W        W42957   2.670   4.724  13.584 -0.4813  0.0188 -0.1257
26824W        W42958   9.900  17.537  14.010 -0.3329 -0.0418 -0.1518
26825W        W42959   5.726   5.583  11.965  0.1900 -0.1629  0.1235
26826W        W42960   6.637  13.633  13.441  0.0824  0.2023 -0.2525
26827W        W42961  11.334   1.131  11.733 -0.0200 -0.0545 -0.1556
26828W        W42962   5.853   6.011   5.290  0.1156 -0.0158 -0.2023
26829W        W42963   8.466  17.579  13.418  0.1464 -0.0343  0.2804
26830W        W42964   4.404   9.480   5.716 -0.1726  0.0623 -0.1225
26831W        W42965  14.358   3.299  13.585  0.0274 -0.0323 -0.2427
26832W        W42966   4.909  12.720   3.749  0.2379  0.2178  0.0478
26833W        W42967   5.613   4.426  10.892  0.1547  0.0422  0.1678
26834W        W42968   2.361   5.091  13.723 -0.0672  0.0636 -0.1323
26835W        W42969  15.421  16.564   2.516  0.0145 -0.2016 -0.2240
26836W        W42970   2.551   5.436   1.466  0.0438 -0.2274 -0.3152
26837W        W42971   2.727  16.687  12.099  0.1392  0.1390  0.0194
26838W        W42972  15.522   8.991   2.991  0.1030  0.3537 -0.0548
26839W        W42973  17.753   4.157  15.825 -0.1236 -0.0116 -0.2997
26840W        W42974   2.842   4.077   0.461 -0.0432  0.2615  0.2884
26841W        W42975  12.376  17.700   1.243  0.1671  0.1435  0.2382
26842W        W42976   9.570   2.803  11.366  0.2135 -0.3823  0.2641
26843W        W42977   1.329   4.875   4.653 -0.0203 -0.2110  0.1833
26844W        W42978  13.045   8.016   5.427 -0.0397  0.1051  0.0668
26845W        W42979  12.046   3.428  15.699  0.1149 -0.2355  0.0031
26846W        W42980   5.854   5.267   3.762 -0.3555  0.1800  0.0993
26847W        W42981   6.690   2.341  11.946  0.0831 -0.2277  0.1169
26848W        W42982   7.729   8.188  11.481 -0.2361  0.1383  0.1133
26849W        W42983  17.773   9.900   5.393  0.2491  0.0366  0.2076
26850W        W42984   2.103  12.315   3.709  0.0025  0.4326  0.0623
26851W        W42985  13.321   1.789   4.474 -0.1637  0.1746 -0.1684
26852W        W42986   6.632   7.908  14.036 -0.0788  0.0835  0.0015
26853W        W42987  10.686  11.775   1.729  0.1531 -0.0831  0.1247
26854W        W42988  15.998   2.427   5.031  0.0259 -0.1161  0.1836
26855W        W42989  17.569  16.918   1.455 -0.3085  0.0354  0.0297
26856W        W42990  18.004  11.507  11.329  0.0082 -0.2177  0.3248
26857W        W42991   6.858  13.742   5.302  0.0473 -0.0956  0.1626
26858W        W42992  15.954  15.969   3.047  0.0506  0.0143 -0.0954
26859W        W42993   9.257   8.395   3.298 -0.3617  0.0782 -0.1374
26860W        W42994  13.253  11.476   4.280  0.3399  0.1021 -0.0680
26861W        W42995  17.507  10.208  15.023  0.0486 -0.0361  0.1276
26862W        W42996   5.425   8.798  14.163 -0.0445 -0.1964 -0.0826
26863W        W42997   5.409  12.920   4.672  0.0733  0.2137 -0.3094
26864W        W42998   4.097  16.717  11.534  0.1266 -0.1538  0.0148
26865W        W42999  17.476  10.893  13.794 -0.0181 -0.1635 -0.0653
26866W        W43000   2.535  17.687  16.061  0.0705 -0.1191 -0.1904
26867W        W43001   7.761   6.824   2.910 -0.2054 -0.0825 -0.1924
26868W        W43002  11.173   3.108   2.159 -0.0405 -0.1230  0.4133
26869W        W43003   1.960   7.902  16.189  0.0291 -0.1254  0.0190
26870W        W43004  17.904   0.169   3.132  0.1049  0.0269 -0.0985
26871W        W43005  16.130   2.307  12.738 -0.0754  0.4304  0.1303
26872W        W43006  15.390  15.204   3.809 -0.2221  0.1722 -0.1027
26873W        W43007   0.252   9.968   3.616 -0.2597 -0.1395 -0.2906
26874W        W43008  12.387   9.160   3.515  0.0920 -0.0840 -0.0148
26875W        W43009   3.584   2.141  13.123  0.1290 -0.0079 -0.0781
26876W        W43010  10.528  12.405   3.756 -0.1575 -0.0195  0.0132
26877W        W43011   3.646   8.040   3.559  0.0992 -0.1999 -0.3275
26878W        W43012   4.586   0.961   2.698 -0.0368 -0.2874 -0.0525
26879W        W43013   0.441   7.885   1.371  0.3176 -0.3116  0.4313
26880W        W43014   6.325  13.124   0.151 -0.2128  0.1730  0.0197
26881W        W43015  15.009  17.378  12.279 -0.0398 -0.2017 -0.2209
26882W        W43016   3.942  16.943   5.920 -0.2293 -0.0972 -0.0852
26883W        W43017   5.907   7.971  15.261 -0.0589 -0.1997 -0.1077
26884W        W43018  12.144  17.879  16.089 -0.0306 -0.0720  0.3446
26885W        W43019   6.578  14.030  14.001 -0.0906  0.0970  0.2353
26886W        W43020   8.766   5.236  12.497 -0.1307 -0.2270  0.1140
26887W        W43021  17.633  15.034  11.814 -0.3604  0.0012 -0.0920
26888W        W43022   3.473   8.408   4.375  0.0951 -0.1655 -0.2702
26889W        W43023  14.864   5.042   3.805  0.0679 -0.0458 -0.0220
26890W        W43024   9.192   2.248  10.263  0.2161  0.2111  0.1253
26891W        W43025  15.371   5.884   1.000  0.2431  0.0168  0.1211
26892W        W43026  12.190   0.857   4.140  0.0893 -0.0472  0.1678
26893W        W43027   0.380   0.538   4.480  0.1325 -0.0443  0.3485
26894W        W43028   8.929  14.141  15.520  0.1114 -0.0897 -0.0759
26895W        W43029   6.354   4.730   5.152 -0.1277  0.0090  0.1571
26896W        W43030   1.001   5.115  12.721 -0.1381 -0.0839  0.0405
26897W        W43031  14.413  11.806  13.439  0.0827 -0.0828 -0.2277
26898W        W43032   0.364  15.273  12.941  0.1289 -0.1276  0.0435
26899W        W43033   7.748   7.670   4.499 -0.2968 -0.1791  0.4385
26900W        W43034   4.168   5.470  13.494 -0.2944 -0.2222  0.1269
26901W        W43035   9.922  11.197   3.802  0.1076  0.1856  0.1774
26902W        W43036   9.490  15.829  15.295 -0.0129 -0.0923 -0.0060
26903W        W43037   4.046  17.254  11.566  0.0254  0.1126  0.1069
26904W        W43038   0.933   8.829  15.328  0.0306 -0.0299  0.1103
26905W        W43039  12.169   3.118  11.607 -0.2309 -0.1069 -0.0737
26906W        W43040   5.084  14.816   2.795  0.1461  0.4834 -0.0608
26907W        W43041  11.031  16.035   0.477 -0.1927 -0.1297  0.1057
26908W        W43042  15.599  11.992  12.985  0.1751  0.0701  0.3344
26909W        W43043   0.143   8.908  12.798  0.2577 -0.0041 -0.1978
26910W        W43044  11.851  13.875  14.544 -0.1083 -0.1410  0.0981
26911W        W43045  14.267   2.073   3.271 -0.1677  0.2608 -0.0079
26912W        W43046  13.715   1.002  14.441  0.0152  0.3119 -0.0603
26913W        W43047   5.591   2.036  11.502 -0.0613  0.0169 -0.0640
26914W        W43048  10.070  12.954   1.496  0.1616 -0.0163 -0.0797
26915W        W43049  10.366   6.472  12.362 -0.1974 -0.2201 -0.0934
26916W        W43050  16.032   8.001   4.944 -0.2301  0.2751  0.2010
26917W        W43051  12.517  10.411   4.852 -0.1449 -0.0503  0.0098
26918W        W43052  15.695  15.357   2.498  0.1200 -0.0269 -0.1051
26919W        W43053   1.018  17.732   1.417 -0.2068  0.2322  0.1992
26920W        W43054   8.494  11.784   2.083  0.0218 -0.0167  0.2540
26921W        W43055   5.201   4.717  15.407 -0.1276  0.2136  0.0867
26922W        W43056  14.489  14.419   0.300  0.1103  0.1371  0.1041
26923W        W43057   0.366   0.978  12.589 -0.1142  0.1627 -0.0082
26924W        W43058  11.323  14.224   5.153 -0.3681 -0.1066  0.0933
26925W        W43059   0.277  14.512   5.583  0.2403 -0.3242  0.2586
26926W        W43060   5.584   9.441  14.544 -0.0080 -0.1305  0.1357
26927W        W43061  14.033   4.526   3.694 -0.1043  0.0905  0.0234
26928W        W43062  10.284  13.151  13.946  0.0728 -0.0493  0.0086
26929W        W43063   0.085   1.512  15.804  0.0980  0.0761  0.0778
26930W        W43064  11.485   0.191   3.350  0.0822  0.1323 -0.1651
26931W        W43065   4.636  16.865   4.772 -0.1909 -0.1495  0.2294
26932W        W43066  11.230  14.316  11.011  0.2043  0.0548 -0.1591
26933W        W43067  15.998  17.297   0.881  0.1978  0.0842 -0.3183
26934W        W43068  10.850   5.774  12.640 -0.1311  0.0277 -0.2410
26935W        W43069   8.501  12.962   0.623 -0.1308  0.4028  0.0750
26936W        W43070   4.428   1.374  12.885 -0.1171 -0.2034 -0.0595
26937W        W43071  17.045   2.365   0.878 -0.2568 -0.0017 -0.0992
26938W        W43072   4.163   7.600   4.799  0.0136  0.2478 -0.0491
26939W        W43073  12.319   7.014  11.876  0.1058 -0.0622  0.2570
26940W        W43074   5.467   0.572  13.004 -0.1558 -0.1455  0.0434
26941W        W43075   3.228  12.352  16.305 -0.0451  0.2191 -0.2529
26942W        W43076   3.473  10.634   2.727 -0.1532 -0.0278  0.0396
26943W        W43077   8.027  11.580  13.003 -0.0176 -0.0104  0.1956
26944W        W43078   1.045   4.806   2.806  0.2853 -0.0677  0.1344
26945W        W43079   4.987  12.669   4.732 -0.2262 -0.1001 -0.0603
26946W        W43080   3.327   7.792   4.460 -0.2760  0.1925  0.0245
26947W        W43081   3.769  17.144   1.406 -0.0666  0.0129  0.0950
26948W        W43082  13.961   9.254  11.382  0.0368 -0.2006  0.0469
26949W        W43083  15.542   1.715  14.319 -0.0795  0.1737  0.1572
26950W        W43084   3.802   8.228   6.212 -0.1260 -0.0585 -0.0899
26951W        W43085  10.385  12.164   0.495 -0.1530 -0.2988 -0.0541
26952W        W43086   7.771   5.302   1.476 -0.0656  0.0702  0.4180
26953W        W43087   0.943   1.100  16.291 -0.1014 -0.2590  0.0311
26954W        W43088   1.263  14.545   2.583 -0.2037  0.2820  0.0345
26955W        W43089  17.532   0.780   0.336  0.1708 -0.2205  0.1006
26956W        W43090   2.520  16.645   3.253 -0.0097 -0.0033  0.0612
26957W        W43091   6.487   0.486   5.379  0.0904  0.0690 -0.0247
26958W        W43092   3.243   8.991  13.486  0.1152 -0.0776  0.0815
26959W        W43093  17.797   0.393  15.602 -0.2941 -0.1994 -0.0513
26960W        W43094   6.543  13.880  11.676 -0.1598 -0.0215  0.1526
26961W        W43095  11.618  11.408  16.177 -0.2799 -0.2872 -0.3024
26962W        W43096   0.893  10.851   4.074  0.0562 -0.2435 -0.1567
26963W        W43097   2.626   3.976  13.487 -0.0031 -0.1464  0.0337
26964W        W43098   5.844  10.695  14.054 -0.0711 -0.1581  0.0865
26965W        W43099   4.089   1.737  16.255  0.4722 -0.2666 -0.1695
26966W        W43100  11.524   9.032   2.073 -0.0148 -0.0758  0.0292
26967W        W43101   8.026   7.005  15.471  0.1652  0.1921 -0.0889
26968W        W43102   4.055   6.243  15.526  0.1875 -0.0139  0.2781
26969W        W43103  16.639   7.586   1.239  0.0860  0.3529  0.3185
26970W        W43104  17.776  14.860  12.527  0.4154 -0.0847  0.0704
26971W        W43105   6.782  10.943   1.330 -0.0818 -0.2586 -0.0422
26972W        W43106  11.120  14.100   1.136  0.0277 -0.1028 -0.0297
26973W        W43107  12.337   0.040   0.465  0.0654 -0.1188 -0.1133
26974W        W43108  14.458   4.636  13.367  0.0473 -0.1526 -0.0754
26975W        W43109   3.403   0.119   5.977 -0.0671  0.1748  0.2786
26976W        W43110  17.916   0.902   1.568  0.2303 -0.0010  0.0632
26977W        W43111   6.334   4.659  12.306 -0.2190 -0.0372 -0.2446
26978W        W43112   9.261   9.997  12.752 -0.0470  0.1059  0.2045
26979W        W43113  17.354   4.081  11.909  0.4751  0.0800 -0.0213
26980W        W43114   8.129   9.854   1.437  0.1606 -0.1994  0.2631
26981W        W43115   9.705   3.362   4.197 -0.2154  0.2132 -0.0807
26982W        W43116   2.941  10.879  13.638 -0.0739  0.0936 -0.4227
26983W        W43117  16.683   8.685  11.397 -0.2287 -0.1033 -0.3412
26984W        W43118   7.547   4.368  14.446  0.0220 -0.3883 -0.1257
26985W        W43119  11.731   5.116   1.598  0.0852  0.2149  0.0388
26986W        W43120   1.508   9.807  16.036 -0.0744  0.0781 -0.3161
26987W        W43121   1.404  11.596   5.104  0.1388  0.0091  0.0969
26988W        W43122  17.263   8.290  15.202  0.0480 -0.1429 -0.2640
26989W        W43123  17.708   4.470  11.872 -0.1621  0.0180 -0.0093
26990W        W43124   3.848  13.215   6.102  0.4195 -0.0245 -0.0068
26991W        W43125  11.727  15.410   1.410  0.0657  0.0628  0.1430
26992W        W43126  15.423  15.681  13.331 -0.1690  0.0294 -0.1069
26993W        W43127   2.210   7.032   5.740  0.2857 -0.2566  0.1883
26994W        W43128   4.254  17.543   2.184 -0.0656 -0.0880  0.0466
26995W        W43129  12.608  13.490  16.351 -0.2145 -0.1188 -0.2217
26996W        W43130   8.211   6.780  13.031 -0.2408 -0.0185  0.0937
26997W        W43131   5.688   9.010   5.109 -0.1010 -0.0336 -0.0349
26998W        W43132  17.996  10.929   3.576  0.0839  0.0950 -0.0652
26999W        W43133  13.808  15.937  12.525 -0.2495 -0.1414  0.2142
27000W        W43134   7.327   4.536  12.018 -0.0093  0.1397 -0.2961
27001W        W43135  15.468   3.917   4.752  0.0842  0.0742 -0.0770
27002W        W43136  17.922  15.038  14.852 -0.1295 -0.3829  0.2724
27003W        W43137  10.672  14.742   6.103  0.1674  0.0935  0.0872
27004W        W43138  12.563   2.399  10.969  0.0817  0.0953  0.2149
27005W        W43139   2.900   3.325  14.561 -0.1924 -0.2774  0.0395
27006W        W43140  17.096   0.506  16.287 -0.0986  0.1239  0.1189
27007W        W43141  11.260  11.577  13.962 -0.1072  0.0869 -0.0347
27008W        W43142   0.287  15.311   1.709  0.0695  0.3829 -0.0834
27009W        W43143  13.187   3.557  15.822  0.0105 -0.1681  0.0424
27010W        W43144   3.292   9.585  11.937 -0.0486  0.2310 -0.2424
27011W        W43145   2.283  16.048   5.726  0.0396 -0.5010  0.0395
27012W        W43146  12.051  12.544  12.103 -0.4633 -0.2273 -0.1575
27013W        W43147  17.130  16.843  11.974  0.0854 -0.0235 -0.2822
27014W        W43148  16.098  14.216  15.070  0.1570 -0.0565 -0.0061
27015W        W43149   8.977   1.023  16.139 -0.0470  0.0308  0.1032
27016W        W43150  10.974  14.142  15.804 -0.0129  0.2574  0.0334
27017W        W43151   1.951  14.911   0.520 -0.3561 -0.1983 -0.0117
27018W        W43152  15.100  16.169   4.666  0.2053 -0.0529  0.0069
27019W        W43153   1.040   2.232  11.113  0.3018  0.0243 -0.0001
27020W        W43154   7.266  16.892   1.036  0.0182  0.2234  0.2929
27021W        W43155   7.736   2.360  13.830  0.0622 -0.0134  0.1299
27022W        W43156   1.300  10.676   3.811 -0.0367  0.1994 -0.2153
27023W        W43157   3.600   1.471   0.950  0.1809  0.0163 -0.0721
27024W        W43158  15.932   2.498   1.783  0.0080  0.0058  0.0491
27025W        W43159   7.088   9.386   5.125 -0.2291 -0.3148  0.2131
27026W        W43160   9.078  14.910  13.266 -0.3733 -0.2141 -0.0928
27027W        W43161   3.667  10.719  12.720 -0.0026  0.0342 -0.0221
27028W        W43162  10.216   4.557  12.530 -0.2696  0.0156  0.1312
27029W        W43163  14.626   6.901  13.872  0.1382 -0.0211 -0.1062
27030W        W43164  11.739  15.387  16.075 -0.2095  0.0259 -0.0335
27031W        W43165   2.478  14.233   4.975  0.1683  0.0325 -0.0744
27032W        W43166   9.559  13.028   1.475 -0.0967 -0.3668  0.0472
27033W        W43167  15.459  13.416   1.580  0.0815 -0.0917 -0.0097
27034W        W43168  17.623  15.813   2.186 -0.3398 -0.1654  0.3481
27035W        W43169  16.369  15.794  15.631 -0.1835  0.3704 -0.7486
27036W        W43170  17.177  17.309  16.284  0.1994  0.0560  0.0179
27037W        W43171  16.438   3.456  11.198  0.0819  0.0676 -0.0079
27038W        W43172  16.102  12.280  15.231  0.1016 -0.0803 -0.5329
27039W        W43173   5.967   2.463  12.445  0.1604 -0.2588 -0.1169
27040W        W43174  14.598   2.249   3.918  0.0735 -0.0219 -0.0820
27041W        W43175   9.837  10.671  14.805  0.2684 -0.1837 -0.0236
27042W        W43176  15.463  17.490  15.657  0.0387 -0.0675 -0.0166
27043W        W43177  12.988   8.928   4.795 -0.2098  0.2274 -0.1415
27044W        W43178   3.213  13.059  12.192 -0.3561  0.0188 -0.2692
27045W        W43179  14.333   4.750  12.072 -0.0340 -0.0290 -0.1127
27046W        W43180  13.071   2.917  12.873  0.0204 -0.0881 -0.1134
27047W        W43181  16.546   7.295   0.651  0.1686 -0.0366  0.0398
27048W        W43182  13.112   5.588  14.727 -0.0494 -0.0565  0.2984
27049W        W43183   2.944   5.654  15.566 -0.2121  0.0905  0.0903
27050W        W43184  15.754   1.155  13.051  0.2210 -0.2644 -0.0543
27051W        W43185   2.424   5.741  11.921  0.2955 -0.1059 -0.0427
27052W        W43186   1.869  10.751   2.058  0.2302  0.2275 -0.7607
27053W        W43187   1.705   2.374   0.051 -0.2162 -0.1256 -0.0755
27054W        W43188   2.366   3.523   3.178 -0.2623  0.1555 -0.1375
27055W        W43189   8.579   3.156  13.423  0.0917 -0.0974  0.2983
27056W        W43190   3.630   2.943   2.718 -0.2982 -0.0073 -0.1875
27057W        W43191   2.551  15.696   2.484  0.0785 -0.0510  0.1185
27058W        W43192   7.434  10.028   4.276 -0.1094 -0.2422  0.0666
27059W        W43193   2.880   6.610   2.316 -0.0136 -0.0466 -0.0095
27060W        W43194   4.100  12.622  14.267  0.0890 -0.1548  0.2623
27061W        W43195   4.127   3.548   2.975  0.0418  0.3217  0.0757
27062W        W43196   3.305  13.052  11.200  0.1291 -0.1596 -0.1337
27063W        W43197  13.915   3.176  13.502  0.1645 -0.1613 -0.2359
27064W        W43198  15.674  13.336  12.319  0.1536 -0.0030 -0.0473
27065W        W43199   4.114   2.111   3.931  0.4899  0.2206  0.0487
27066W        W43200  13.023  12.286  10.624  0.0213 -0.0846  0.2736
27067W        W43201   7.838   4.756   5.010 -0.0850 -0.0695 -0.2016
27068W        W43202   2.002  15.228   0.930 -0.0340  0.0531 -0.1566
27069W        W43203  14.867  14.782  12.437 -0.0470 -0.1760 -0.0266
27070W        W43204   0.057   6.732   5.375  0.0154 -0.0190 -0.0298
27071W        W43205   5.511   3.171  13.518  0.0732  0.0823 -0.2142
27072W        W43206   4.633  12.467  13.807  0.0111 -0.1626  0.0650
27073W        W43207   0.938  15.450   5.319  0.1364 -0.1722 -0.0040
27074W        W43208   7.107  14.302   3.539 -0.2657 -0.4555  0.1219
27075W        W43209   7.072   8.688   2.193 -0.0166  0.0522 -0.2652
27076W        W43210   4.184   7.077   2.634  0.1377 -0.0422 -0.3779
27077W        W43211  16.227  14.592   1.921 -0.1744 -0.1096  0.3044
27078W        W43212  12.801   9.684  12.941  0.1326 -0.0739  0.1260
27079W        W43213  18.089  15.215   3.555  0.0324 -0.1046 -0.1283
27080W        W43214   4.656   8.456   5.483 -0.1119  0.0888 -0.0102
27081W        W43215  17.552   9.184   1.722 -0.0504  0.1840  0.3603
27082W        W43216  16.987   6.632  16.041  0.1534 -0.0611  0.1302
27083W        W43217  10.893  17.566   2.742  0.2676  0.0266 -0.0903
27084W        W43218  13.494   0.435  16.172 -0.1740  0.0088  0.2691
27085W        W43219  12.621  15.326   3.730 -0.0578  0.0132 -0.0247
27086W        W43220   0.746  16.200   0.814  0.0828  0.1249  0.2611
27087W        W43221   2.418   6.563   2.160 -0.0837 -0.0197  0.0277
27088W        W43222  14.621  13.550  15.794  0.1668 -0.0248  0.0059
27089W        W43223   7.309  13.302  14.411 -0.1851  0.0954  0.1291
27090W        W43224  13.522   0.088  14.323  0.1562 -0.2093  0.3100
27091W        W43225  14.601  10.501  15.995 -0.0990 -0.2546  0.0775
27092W        W43226   8.196  17.347  13.861  0.1482  0.1536 -0.2626
27093W        W43227   9.942   7.491  11.196 -0.0019 -0.0961  0.0755
27094W        W43228   2.727   4.652   0.875  0.2866 -0.0291 -0.0783
27095W        W43229   7.672  13.526  14.730  0.2261 -0.3083 -0.2439
27096W        W43230  13.724   3.424   3.446 -0.0873  0.2044 -0.1413
27097W        W43231   9.674   4.642  12.342 -0.2120 -0.1247  0.1933
27098W        W43232   3.496   6.527   0.685 -0.2113 -0.2198 -0.0292
27099W        W43233   9.088  13.563  12.111  0.0260 -0.0101 -0.1240
27100W        W43234  11.076   6.725   1.162 -0.3067 -0.3926 -0.1171
27101W        W43235  18.052  10.887  13.500 -0.2081 -0.0740 -0.0672
27102W        W43236  10.115   5.296  16.289 -0.1385 -0.1440 -0.1208
27103W        W43237   3.686  10.175   1.293 -0.2508  0.0210  0.1675
27104W        W43238   8.827   7.379  13.118  0.0154  0.0686 -0.0773
27105W        W43239   5.062  12.891  10.799  0.1284 -0.1915 -0.0440
27106W        W43240  14.428   2.390   1.456  0.2037 -0.3179  0.0165
27107W        W43241   1.498   9.937   0.450 -0.2630  0.1024 -0.2369
27108W        W43242  11.810  11.513   2.740 -0.1242 -0.2037  0.1352
27109W        W43243  13.088   3.789   5.422  0.1893  0.0654 -0.1529
27110W        W43244   6.012   0.100   5.579  0.0909  0.0165  0.4287
27111W        W43245  14.271  12.727  15.511 -0.2966  0.0749  0.2538
27112W        W43246  10.363   8.130   3.510  0.0500 -0.1234  0.0325
27113W        W43247   6.247   9.040   0.987  0.2652  0.1321 -0.0297
27114W        W43248   2.723   8.955  13.668 -0.0161  0.1387  0.1037
27115W        W43249   0.570   9.061   5.564 -0.1798 -0.1197 -0.1249
27116W        W43250   5.011  11.414   3.511 -0.1592 -0.1318  0.1778
27117W        W43251  10.899   0.481  11.238 -0.5071  0.1664 -0.0201
27118W        W43252  12.719   5.728   4.190  0.3073  0.2940 -0.0214
27119W        W43253  15.051   5.524   1.238  0.1240  0.0026 -0.0836
27120W        W43254  13.339  10.705   3.348 -0.0117 -0.3242  0.0686
27121W        W43255   8.018  12.683   0.834 -0.1544 -0.1144  0.4785
27122W        W43256  17.265   2.770  14.727  0.3166  0.2424 -0.0285
27123W        W43257  15.407   3.578   1.902 -0.1454 -0.2021 -0.0987
27124W        W43258   4.577   1.602   4.945  0.1275 -0.2972  0.0144
27125W        W43259   1.408   3.313   0.636 -0.0403  0.2355  0.0549
27126W        W43260   8.026  12.912  12.576 -0.1510 -0.0587 -0.1411
27127W        W43261  15.209   3.804   0.489 -0.2933 -0.0405 -0.2442
27128W        W43262   2.557  12.492  11.387 -0.2406  0.3303  0.3740
27129W        W43263   1.351   3.961   3.689 -0.2710 -0.0133  0.0900
27130W        W43264   9.712   8.940  11.576 -0.3255  0.4033  0.0098
27131W        W43265   5.340   5.429  14.576  0.0068  0.1169 -0.1253
27132W        W43266   7.879  11.386  12.161 -0.1166 -0.3654  0.2145
27133W        W43267  10.556   8.076   0.580  0.0268  0.0423  0.1197
27134W        W43268   0.242  13.387   3.470 -0.2671 -0.1603 -0.2878
27135W        W43269  13.037  14.047   0.659  0.0719  0.0563  0.1278
27136W        W43270   3.818  17.254   2.254 -0.0608 -0.0855 -0.0171
27137W        W43271   1.884  15.507  13.669 -0.4250  0.3737 -0.0224
27138W        W43272  15.970  13.473   2.213  0.0565  0.0080  0.1694
27139W        W43273  15.770   5.967   2.331  0.2307  0.1910 -0.0752
27140W        W43274   7.159  10.070   2.503 -0.0197 -0.1517 -0.0812
27141W        W43275  17.794  15.412   0.509 -0.1503 -0.2026  0.5305
27142W        W43276  15.913  17.468   5.857  0.3377  0.0155 -0.1930
27143W        W43277   8.784  16.109   0.799 -0.4613  0.1960 -0.0204
27144W        W43278  15.977   9.175   2.720  0.2301  0.1740 -0.2219
27145W        W43279   2.232   0.826  12.886 -0.1405 -0.0143 -0.2482
27146W        W43280   1.675   4.192  16.347 -0.1081 -0.0248 -0.0760
27147W        W43281  17.964   9.078  16.119  0.3392 -0.0630  0.2192
27148W        W43282  14.092  17.638  12.625 -0.2421 -0.0233 -0.1891
27149W        W43283  11.284   8.655   5.241 -0.0541  0.0879  0.1192
27150W        W43284  16.200  12.835   0.132 -0.0903 -0.0607  0.1823
27151W        W43285   8.730   8.661  10.627 -0.0703 -0.2659 -0.3693
27152W        W43286   3.908  10.629   2.384 -0.0499  0.2946  0.2337
27153W        W43287   5.787  15.867  11.651  0.1105  0.1440 -0.0483
27154W        W43288   7.062   7.051   0.287 -0.2773  0.1882 -0.0550
27155W        W43289   2.015  11.025   1.243  0.0423 -0.0995 -0.0435
27156W        W43290  17.294  16.199  12.238 -0.3422 -0.3645  0.1955
27157W        W43291   4.648  15.852  12.064  0.0865  0.0129  0.0390
27158W        W43292  16.626   7.148   3.383  0.1248 -0.3158 -0.0283
27159W        W43293   7.826   3.475   3.302 -0.0409  0.1626  0.0713
27160W        W43294  16.702  11.107  13.340  0.1999 -0.2856  0.1229
27161W        W43295   7.041  13.133  12.112  0.1237 -0.1553  0.2746
27162W        W43296  13.892   4.099  15.835  0.0143 -0.0972 -0.1270
27163W        W43297   3.003   2.441  14.180 -0.0158  0.2931 -0.1838
27164W        W43298   3.376  13.310   0.122  0.2417 -0.2574  0.1151
27165W        W43299   4.408   1.698  10.987 -0.4153 -0.1756 -0.1050
27166W        W43300   3.587   4.508   3.651 -0.0070 -0.0361 -0.0621
27167W        W43301   2.891  12.702   5.486 -0.3767 -0.0087 -0.1460
27168W        W43302  11.825   4.493  16.187 -0.2488  0.0215 -0.1453
27169W        W43303   7.975  16.939  10.789 -0.0941 -0.0227  0.1778
27170W        W43304  10.562  16.312   4.809  0.0982  0.0100 -0.1947
27171W        W43305  12.275   6.151   2.555 -0.0287  0.3331  0.2080
27172W        W43306   3.881   1.362  14.817 -0.0157 -0.2878 -0.2465
27173W        W43307   5.671  13.378   3.023  0.1368 -0.0031  0.2022
27174W        W43308   4.855   8.952  14.131  0.2413 -0.0942 -0.0437
27175W        W43309  12.204   6.438   2.965  0.2302 -0.0036  0.0008
27176W        W43310  16.316  14.103   0.658 -0.2292  0.0935  0.4896
27177W        W43311   8.350  14.335   1.996  0.1820  0.2014 -0.1723
27178W        W43312  10.232  10.197  15.410  0.0516 -0.0291 -0.2729
27179W        W43313  12.280  16.546  11.709  0.0104 -0.0541 -0.0117
27180W        W43314  13.786   3.451   0.003  0.1671 -0.2079  0.0123
27181W        W43315  11.602   9.848   0.074 -0.2410  0.1662 -0.2588
27182W        W43316  18.006  16.639   3.714 -0.0483 -0.3358 -0.0890
27183W        W43317  13.787   2.167   3.977 -0.2017  0.0033 -0.0662
27184W        W43318  10.278   1.513   1.160 -0.1063 -0.0737 -0.1684
27185W        W43319   4.463   1.248  15.696 -0.1319  0.1766  0.2738
27186W        W43320  15.700   3.201   2.904  0.0779 -0.0182  0.0927
27187W        W43321   3.203  14.302  12.315 -0.0158  0.1322 -0.0257
27188W        W43322   7.198   4.964   2.976  0.0725 -0.1301  0.3035
27189W        W43323   3.483   6.730  14.265  0.1707 -0.5017 -0.0538
27190W        W43324   0.904   5.884   0.685 -0.0056 -0.0270  0.1632
27191W        W43325  14.186  13.530  14.308 -0.1303 -0.1967  0.0493
27192W        W43326   3.539  11.912   1.433 -0.2531 -0.0050 -0.0601
27193W        W43327   4.303   6.617   4.954 -0.1960 -0.2593  0.1246
27194W        W43328   1.343  10.964   2.090 -0.1787  0.0227 -0.1844
27195W        W43329   5.175  10.423   2.347  0.2036  0.1581 -0.0825
27196W        W43330   8.254   8.486   0.775 -0.1332  0.1936 -0.0801
27197W        W43331   9.198   8.738   1.868  0.0764 -0.2134 -0.0032
27198W        W43332  11.834   8.472   2.626 -0.1925 -0.0282 -0.0012
27199W        W43333  17.786  17.412   1.224  0.2328  0.2954 -0.1504
27200W        W43334  12.343  17.739  14.290  0.2598  0.1014  0.0264
27201W        W43335  15.251   1.144  14.487  0.2647 -0.0752  0.0648
27202W        W43336  16.090  14.037  13.367  0.0518  0.0119 -0.3023
27203W        W43337   3.464  13.593  15.742 -0.0173  0.0391  0.0080
27204W        W43338  17.806   4.454  11.405 -0.0649 -0.0936  0.1706
27205W        W43339  10.224   1.732   1.739 -0.0572 -0.3271 -0.1651
27206W        W43340  14.654  11.668  12.995 -0.0345 -0.2967  0.1559
27207W        W43341  10.834   4.541   4.972  0.3092 -0.0303  0.0542
27208W        W43342  10.415   8.132   0.015 -0.0884  0.0077 -0.0638
27209W        W43343  11.723   9.761   4.526  0.1703 -0.0803 -0.1201
27210W        W43344   3.908   8.328   5.235 -0.0645  0.0497 -0.3041
27211W        W43345   9.833  14.227   0.889  0.1380  0.1054 -0.0216
27212W        W43346  15.759   7.284  13.164 -0.1446  0.1414 -0.2239
27213W        W43347  14.000  14.598  14.048  0.2252 -0.1387  0.0913
27214W        W43348  10.395  16.709   2.392  0.1573  0.1048  0.1494
27215W        W43349   8.616  13.688   5.182  0.0742  0.1297  0.0815
27216W        W43350   0.183   9.054  14.766  0.0787  0.3649 -0.0057
27217W        W43351   3.870   5.912   3.354 -0.0965  0.1454 -0.0165
27218W        W43352  17.854  12.046   1.133 -0.3669  0.1109  0.3158
27219W        W43353   2.249   2.354   4.250  0.0373  0.1984 -0.0070
27220W        W43354   5.046  17.969   2.454  0.0999 -0.1498  0.1203
27221W        W43355  10.914   3.213   3.606 -0.1550 -0.0279  0.0438
27222W        W43356   2.586   7.051  14.707 -0.1470 -0.3645  0.3233
27223W        W43357   5.533   9.552  15.772 -0.0618  0.0237  0.2168
27224W        W43358  10.084  11.057   1.582  0.2461 -0.2920  0.2930
27225W        W43359   7.769   1.885   2.125 -0.0906 -0.0533 -0.1124
27226W        W43360   1.078   3.324  15.791 -0.2799 -0.1117 -0.0406
27227W        W43361   9.424   3.131  14.018 -0.0122  0.0868 -0.0213
27228W        W43362  15.979  14.035  15.529  0.2662  0.1671 -0.1448
27229W        W43363  17.350  12.487   0.045 -0.0217 -0.1259  0.0045
27230W        W43364   3.828  16.214   5.393 -0.1426 -0.1919 -0.2860
27231W        W43365   2.900  11.536   2.544  0.0247 -0.0230  0.0973
27232W        W43366   3.958   8.054  13.881  0.2174  0.3937 -0.0546
27233W        W43367  14.812  15.348  13.062 -0.0622  0.0244 -0.1024
27234W        W43368   7.453  10.381   2.985  0.1115  0.1838  0.0214
27235W        W43369  17.952  17.535   3.751  0.0322 -0.1074 -0.2316
27236W        W43370  14.068   4.726   4.749 -0.0946  0.0571  0.0361
27237W        W43371  10.883   7.205  16.005  0.2459 -0.2468  0.1381
27238W        W43372   0.075  13.650  13.643  0.0785  0.0019  0.0908
27239W        W43373  13.472  12.896   4.729 -0.1686 -0.0186 -0.0747
27240W        W43374   0.916   5.618  11.389 -0.0463  0.2516  0.3559
27241W        W43375   3.053  13.977   2.371 -0.1698  0.0773  0.0278
27242W        W43376   1.041   5.257   1.539  0.0076 -0.0013 -0.1113
27243W        W43377  11.366   0.176   1.703  0.2304 -0.2385 -0.3047
27244W        W43378  14.347   3.806  11.882 -0.2476  0.0676  0.2340
27245W        W43379  16.410   3.655   4.802  0.1663 -0.0449 -0.3516
27246W        W43380   2.755   6.340   5.293 -0.1017 -0.2519  0.1111
27247W        W43381   8.393   0.747  16.033  0.1569 -0.0273  0.2194
27248W        W43382  16.777   8.183  11.589 -0.0832  0.0169 -0.0776
27249W        W43383  12.135   5.867   5.663 -0.0994  0.0225 -0.1707
27250W        W43384   5.720   1.040   6.501  0.0498 -0.2265  0.1961
27251W        W43385  10.170   1.908  11.934  0.0589 -0.1554 -0.0489
27252W        W43386  12.574   1.525   1.472 -0.1467 -0.2666  0.2742
27253W        W43387   7.420  10.398   1.185 -0.0233  0.2793  0.4511
27254W        W43388  11.456   5.236   4.062  0.0611  0.0290 -0.3209
27255W        W43389  15.561   2.671  11.327 -0.0417 -0.0270 -0.4324
27256W        W43390  15.048   1.780   2.309 -0.0353  0.2797 -0.0405
27257W        W43391   6.889  14.067  12.585 -0.1131 -0.0108  0.0053
27258W        W43392  14.435   8.343   4.826  0.1079 -0.0464  0.1030
27259W        W43393   3.750   5.358  11.268  0.1787  0.2539 -0.0314
27260W        W43394  14.753   9.338   0.790 -0.0383 -0.1078 -0.0352
27261W        W43395  14.574  13.885   1.705  0.3307 -0.0171 -0.0162
27262W        W43396   0.987   9.922   0.248 -0.3594  0.3288 -0.1560
27263W        W43397  11.431  15.178   3.026  0.1209  0.1332 -0.1629
27264W        W43398  15.602   1.469  11.736 -0.2173  0.2357 -0.1457
27265W        W43399  10.919   1.825   0.597 -0.0545 -0.1024  0.1604
27266W        W43400   7.236  14.828   0.668  0.2779 -0.0897  0.0402
27267W        W43401  17.165  16.538   0.583  0.1466 -0.1667 -0.1114
27268W        W43402   7.448  15.449  12.484 -0.0169  0.2920 -0.1437
27269W        W43403   4.511   4.541   6.332 -0.3475 -0.1506  0.0975
27270W        W43404   2.110  15.810   0.680 -0.0142  0.3598 -0.2248
27271W        W43405   7.546  14.536  13.178  0.0529  0.0611 -0.3255
27272W        W43406  10.817   8.156  13.289 -0.0688  0.1551 -0.3254
27273W        W43407  10.095   9.645   5.818 -0.1594  0.1523  0.1794
27274W        W43408  15.239   1.141  13.426 -0.1537  0.0442  0.0117
27275W        W43409  16.059   4.194  14.284  0.1974  0.2200  0.3040
27276W        W43410  15.000   6.611  11.368  0.0318  0.0118 -0.1071
27277W        W43411   8.311   9.170   2.939  0.0182  0.0331  0.0171
27278W        W43412  12.198  18.052   0.958 -0.2159  0.0543  0.0318
27279W        W43413   7.371  15.114  14.190 -0.1501 -0.0124 -0.0686
27280W        W43414  13.695  10.322   3.247  0.3802 -0.1543  0.4435
27281W        W43415   8.724   3.565  12.443 -0.1921 -0.2927 -0.0825
27282W        W43416   8.662   5.654  14.922  0.1051  0.3173  0.0693
27283W        W43417  16.077   3.976   4.705  0.0401 -0.2101 -0.0274
27284W        W43418   6.094   4.247  12.097 -0.1880 -0.3644  0.0686
27285W        W43419   8.316   6.473   2.868 -0.1426 -0.4240 -0.1117
27286W        W43420  15.785   9.436  12.088  0.0526 -0.1572  0.0540
27287W        W43421  10.719   1.084  15.744  0.2563  0.0407  0.1730
27288W        W43422   6.744  13.473   3.489  0.0709  0.2133 -0.2240
27289W        W43423   1.522   6.501  11.226  0.0035 -0.1056 -0.0270
27290W        W43424   0.682   1.622  13.166 -0.4608  0.2451 -0.0621
27291W        W43425   9.854   2.375   4.476 -0.0810  0.1454 -0.0002
27292W        W43426  16.569   7.710  14.869 -0.2826  0.0322  0.2777
27293W        W43427  14.521   3.918   3.430 -0.1893  0.0123  0.2365
27294W        W43428  17.719   6.798   5.231  0.1945 -0.1025  0.0412
27295W        W43429  14.075   9.456  13.184  0.2918 -0.2306  0.2791
27296W        W43430   6.612  12.966   1.119  0.1240  0.0979 -0.1765
27297W        W43431   6.721  11.619   1.295 -0.1750 -0.1078 -0.2193
27298W        W43432  10.175   1.898  10.834 -0.0805  0.0833  0.1702
27299W        W43433   7.553   8.047   2.490  0.2891  0.0118  0.0120
27300W        W43434   2.364  16.094  13.570  0.1702  0.0355 -0.0263
27301W        W43435   3.650   4.766   4.812 -0.2366 -0.3466 -0.1560
27302W        W43436  17.628   6.561   0.958  0.0367  0.0126  0.2074
27303W        W43437   0.213   6.653  13.219  0.1863  0.0271 -0.1857
27304W        W43438   2.904  13.342   0.825  0.1552  0.0165  0.1048
27305W        W43439   1.305   9.387  10.922  0.1455  0.0389  0.0162
27306W        W43440  13.198  17.676  11.872  0.0244 -0.0117  0.1387
27307W        W43441   6.100  10.377  16.236  0.1888  0.1515 -0.2781
27308W        W43442   8.092  16.837   4.177  0.0337  0.1324  0.3536
27309W        W43443  13.971  16.826   3.591 -0.0022  0.2189 -0.2586
27310W        W43444  15.860  17.081  11.731  0.2199  0.2555  0.0406
27311W        W43445  11.885   0.218  14.814 -0.0074 -0.3175 -0.0533
27312W        W43446   7.314  16.080   5.828 -0.1098 -0.1056 -0.0837
27313W        W43447  13.667  12.843  11.842  0.0184 -0.0802  0.0054
27314W        W43448  13.144  14.434  12.272  0.2029 -0.0784 -0.0381
27315W        W43449   2.612   3.845   4.236  0.0571  0.0386 -0.1406
27316W        W43450   9.407  10.392   3.925 -0.2423  0.0533  0.3080
27317W        W43451   0.613   3.283  12.604 -0.0049  0.0860 -0.0550
27318W        W43452   5.067  10.622   3.302  0.2036 -0.0568  0.1014
27319W        W43453  15.827   0.003   0.503  0.0273  0.2120  0.0851
27320W        W43454   5.781  13.148  14.177  0.1630 -0.1156  0.1874
27321W        W43455   8.493   9.382  11.727  0.1268 -0.1182 -0.2092
27322W        W43456   2.754   5.421  12.192  0.1934 -0.0969 -0.1792
27323W        W43457   8.465   8.191   1.635  0.1628  0.1086 -0.0092
27324W        W43458   0.126   2.327   5.382  0.1034 -0.0918 -0.0173
27325W        W43459  10.273  17.824  14.069  0.2002  0.4994  0.3958
27326W        W43460  17.116   8.683   2.279  0.1110 -0.0235 -0.0142
27327W        W43461   3.492   9.606  10.770  0.2579  0.0146 -0.0004
27328W        W43462  15.032  11.176  12.407 -0.2225 -0.4801  0.0045
27329W        W43463   6.190   9.535   0.948  0.0668 -0.1674  0.3330
27330W        W43464   6.232  15.938  15.967 -0.0001 -0.2160 -0.0324
27331W        W43465  15.066  14.492  15.820  0.2098 -0.0961  0.3319
27332W        W43466  11.906  11.740  14.837 -0.0258  0.1713 -0.0824
27333W        W43467  13.646  14.494   2.588 -0.1747 -0.2110 -0.0304
27334W        W43468  17.675  13.454  11.099 -0.3429 -0.4111 -0.1346
27335W        W43469   2.258   0.445  12.523  0.1771 -0.2013  0.2151
27336W        W43470   6.951   3.069   2.998 -0.2552 -0.0776 -0.0507
27337W        W43471  11.390   7.081   1.369  0.0380  0.0873 -0.0163
27338W        W43472  10.153  16.418  15.446  0.1657  0.1195  0.4609
27339W        W43473   4.225   6.257   2.844  0.3299  0.1667  0.2418
27340W        W43474   5.152   2.990   1.996  0.2406  0.0803 -0.0634
27341W        W43475   3.665   8.775   4.042  0.0024  0.1824  0.2000
27342W        W43476   2.695  17.986  13.061  0.1067  0.0674 -0.1278
27343W        W43477   7.351  13.579  11.443  0.0202  0.1591  0.0639
27344W        W43478   5.408  12.437   0.196 -0.1443 -0.1862  0.2273
27345W        W43479  11.478   6.312  13.690  0.0824  0.0784 -0.0381
27346W        W43480   2.156   1.231  15.524 -0.0249 -0.0332 -0.1404
27347W        W43481  10.531   9.591   0.131  0.1444  0.0956 -0.0642
27348W        W43482  10.175  12.040  15.439  0.3087  0.1375 -0.2023
27349W        W43483  16.024  10.251   1.335 -0.4328  0.0556  0.0860
27350W        W43484   8.948   1.846  11.709  0.1512 -0.3211  0.0847
27351W        W43485  14.326  14.827   5.503  0.2812 -0.0158 -0.0839
27352W        W43486  15.782   5.962   1.316 -0.1169  0.0135 -0.0268
27353W        W43487   5.977  10.860   3.956  0.1102  0.0946 -0.1936
27354W        W43488   8.980   0.135  14.964 -0.3488 -0.5262  0.1727
27355W        W43489   6.073   9.063  13.297 -0.3967  0.1188 -0.2383
27356W        W43490  10.399   6.845   3.986 -0.1645  0.3950 -0.0335
27357W        W43491   3.511   6.845   5.467  0.2046 -0.0832  0.0748
27358W        W43492  11.592   2.026  13.809  0.1184 -0.3189  0.4231
27359W        W43493   4.315   7.516   5.391 -0.0714 -0.0516 -0.0322
27360W        W43494   4.804   5.386   6.227 -0.0532 -0.1203  0.0702
27361W        W43495   1.361   3.775  16.004  0.3151  0.1605 -0.1752
27362W        W43496  10.834  14.997  12.147  0.1650 -0.0631 -0.0354
27363W        W43497  13.095   0.482   0.524  0.0309 -0.0844 -0.1809
27364W        W43498  14.755  11.028   4.585 -0.1414 -0.2673 -0.2511
27365W        W43499   0.452   9.023  11.213  0.2829  0.0674 -0.1419
27366W        W43500  13.354   9.637   2.463  0.1537 -0.0206  0.0426
27367W        W43501   5.878   8.523  13.914 -0.3090  0.2482  0.0787
27368W        W43502   8.381   1.707   2.938 -0.0644 -0.1665  0.1748
27369W        W43503  10.319   6.102  14.068  0.1289 -0.3232  0.0123
27370W        W43504   0.520   5.576   4.717 -0.3397 -0.4802 -0.1129
27371W        W43505  16.566   6.840   2.439  0.0643 -0.0563  0.0057
27372W        W43506   6.317   0.073  13.635  0.0249 -0.3476  0.1727
27373W        W43507  16.713   3.544  15.057 -0.0631  0.1117  0.3787
27374W        W43508   3.923   1.117   1.453 -0.1842  0.0905  0.1626
27375W        W43509   9.781   5.759  15.573 -0.1449 -0.0001 -0.0044
27376W        W43510   0.737  13.979   0.434 -0.1828 -0.1927  0.1303
27377W        W43511   4.564   7.282   1.576 -0.1568  0.2849 -0.0912
27378W        W43512  14.211  12.114  16.072 -0.3325  0.2541 -0.3477
27379W        W43513   0.480   9.374  13.971 -0.3118 -0.2714 -0.1315
27380W        W43514   2.106  17.304   0.785 -0.0962  0.1237 -0.1875
27381W        W43515   1.068   9.991   2.185 -0.0112  0.1029  0.3858
27382W        W43516   6.569  12.890   5.343 -0.0607  0.0495 -0.0785
27383W        W43517  10.678   7.758   1.686 -0.1431  0.0147  0.2540
27384W        W43518  13.632   7.604   3.548  0.2411  0.1619  0.2396
27385W        W43519  12.554  13.745   3.327 -0.0194  0.0417  0.3427
27386W        W43520   5.796   6.888  13.173  0.0631 -0.0839 -0.0415
27387W        W43521  11.710   7.360   1.962  0.0876  0.0357 -0.0937
27388W        W43522   9.530   8.411  14.888  0.0213  0.1620 -0.0865
27389W        W43523   3.519   7.763   2.046  0.2392  0.0809  0.0314
27390W        W43524  14.196   4.177  14.270  0.2449 -0.1158  0.5111
27391W        W43525   6.178  14.227   1.236  0.0851  0.0412 -0.2044
27392W        W43526  14.153  11.938  15.213 -0.0046 -0.0158 -0.2437
27393W        W43527  12.523   2.464  16.369  0.1392 -0.1157  0.0860
27394W        W43528   8.083   5.831   5.087  0.0500  0.0032  0.3214
27395W        W43529  17.197   4.950   3.327 -0.2966  0.2136  0.0564
27396W        W43530  13.764  16.480  16.227 -0.0591 -0.0966 -0.1544
27397W        W43531   2.933   2.320   1.968 -0.1095  0.1011  0.0480
27398W        W43532  11.888   9.469   0.510  0.0378  0.0999  0.0069
27399W        W43533   9.222  13.329  14.186  0.1709 -0.0131 -0.1733
27400W        W43534  11.376   3.830  13.699 -0.0962 -0.2382  0.0398
27401W        W43535   9.351   4.559  14.173  0.0655 -0.4436  0.1216
27402W        W43536  15.213   1.995   6.008  0.0845 -0.0775  0.1172
27403W        W43537  14.975   4.219  15.641 -0.1951 -0.2721  0.0709
27404W        W43538   1.145   9.715   3.827  0.0843 -0.0708 -0.1676
27405W        W43539  12.243   9.743  12.162 -0.0315  0.0722 -0.2022
27406W        W43540   8.030   9.371  11.902  0.0517  0.0800 -0.5827
27407W        W43541   4.981   3.971   1.763  0.3482 -0.2928  0.0953
27408W        W43542  16.897  18.014   2.755 -0.0029 -0.1146  0.1685
27409W        W43543   4.960  14.746   4.468 -0.2493 -0.1766 -0.4768
27410W        W43544   1.147  13.799  14.570  0.1222 -0.1629  0.3929
27411W        W43545  13.575  10.928  11.311  0.1115  0.0552  0.1028
27412W        W43546  13.785  14.745  16.345  0.0473 -0.0713 -0.0346
27413W        W43547   1.987  13.507  11.724  0.1125 -0.0957 -0.1335
27414W        W43548  13.559   6.949   2.796  0.1820 -0.1209  0.1979
27415W        W43549   2.547   0.841  14.209 -0.0446  0.0154 -0.1980
27416W        W43550  14.470  15.423   6.171  0.0470  0.1737  0.0260
27417W        W43551  14.925  17.264   2.343  0.0882 -0.0648 -0.1448
27418W        W43552  12.612  15.071   0.649 -0.0260  0.2019  0.0264
27419W        W43553   0.629   5.504   3.600 -0.0648 -0.0137 -0.2043
27420W        W43554   6.497   2.715   1.869 -0.1403  0.0642  0.4375
27421W        W43555   7.991   4.922   2.604  0.3536  0.1342 -0.0742
27422W        W43556   9.462   1.617   3.961  0.0721  0.2631  0.2240
27423W        W43557   8.004   3.132   2.941 -0.0183 -0.0891  0.1059
27424W        W43558  11.370  13.435  11.371  0.0296  0.0699  0.2747
27425W        W43559  12.171  16.884   0.599 -0.0202 -0.0593  0.2069
27426W        W43560   0.548  12.772   2.326  0.3688 -0.0049 -0.0092
27427W        W43561   0.853   8.619  10.592  0.0136 -0.2931 -0.3429
27428W        W43562  16.588   3.320  12.734  0.1083  0.0769  0.0103
27429W        W43563   5.857   4.153  15.601 -0.2877  0.2867  0.4430
27430W        W43564   2.301  16.752   5.702 -0.0660 -0.0531 -0.1565
27431W        W43565   5.909   6.116   4.349  0.2012 -0.1169 -0.0782
27432W        W43566  17.490  17.332   3.107 -0.1934 -0.0692  0.0424
27433W        W43567  13.341  16.293   1.957  0.2373  0.0630 -0.0404
27434W        W43568   1.433   8.755   2.219 -0.2492 -0.3242 -0.1152
27435W        W43569   5.523  12.123  15.373 -0.1373  0.2011 -0.2533
27436W        W43570  17.011   0.421   4.442  0.3544 -0.0257 -0.1448
27437W        W43571  12.489   0.797   2.730  0.1116  0.0175 -0.3689
27438W        W43572  17.392   9.466  12.981  0.1987  0.1768  0.0510
27439W        W43573   8.158   5.134  12.541  0.2135  0.0828 -0.0155
27440W        W43574  15.022  12.888  12.865 -0.0268 -0.0592  0.0613
27441W        W43575  15.689   4.123   2.560 -0.0162 -0.0023 -0.0742
27442W        W43576   6.977  14.660  11.469  0.1083  0.3604  0.0678
27443W        W43577   1.949   5.597  12.935 -0.0841 -0.1501  0.1893
27444W        W43578   3.713  14.154  15.062 -0.2529 -0.0704  0.0712
27445W        W43579   0.827  15.015   3.782 -0.0233 -0.2935 -0.0594
27446W        W43580   8.548   8.252  12.432  0.0722  0.1115 -0.0780
27447W        W43581  17.775   1.046  14.892  0.1819  0.3104  0.1177
27448W        W43582   6.500   0.265   3.085  0.0571  0.1357  0.1981
27449W        W43583   1.191   1.678   5.727  0.1037 -0.0202 -0.0516
27450W        W43584  13.172   0.603  12.904  0.0174 -0.4411  0.0399
27451W        W43585  17.319   0.322  15.453  0.1867  0.0045  0.0813
27452W        W43586   3.669   2.277  12.566  0.2143  0.2069 -0.1337
27453W        W43587   4.732   6.656   3.701 -0.2068  0.2030  0.0715
27454W        W43588   8.394   9.842   5.067  0.0186  0.1049 -0.0872
27455W        W43589   0.090  16.097   5.174 -0.2506 -0.0531  0.1897
27456W        W43590  17.072   3.854  14.632  0.1727 -0.1086  0.1888
27457W        W43591  13.492  11.903  10.565 -0.3712 -0.0679  0.1330
27458W        W43592   8.702  12.523  15.186  0.2599 -0.1616 -0.0346
27459W        W43593  16.911  12.561  11.264  0.0822  0.2235  0.2925
27460W        W43594   5.630  12.164   0.849 -0.2899  0.0010  0.0559
27461W        W43595   1.699   7.493   4.387  0.1255  0.0592  0.3202
27462W        W43596  15.661   8.472  11.641  0.2214 -0.0984  0.0479
27463W        W43597   2.888   7.166   2.021 -0.0442  0.0273 -0.2890
27464W        W43598   8.779  15.667  12.702  0.0405  0.2331  0.1116
27465W        W43599   6.238   4.990   2.927 -0.3232 -0.0217  0.1394
27466W        W43600   2.831  12.124  15.323  0.0046 -0.1453  0.0473
27467W        W43601   0.255   1.697  14.424 -0.2341  0.2050 -0.0643
27468W        W43602   8.442   4.871   0.349 -0.0508 -0.3006  0.4963
27469W        W43603  10.299  18.046   2.747  0.2603  0.1779 -0.0167
27470W        W43604   9.461  16.965   3.620 -0.2043 -0.2628  0.1026
27471W        W43605   4.640   5.528  15.650 -0.0262 -0.1739  0.3795
27472W        W43606  12.586   6.830   4.188 -0.2398 -0.1966  0.4511
27473W        W43607   5.304   1.099   4.898  0.1914  0.3547  0.1297
27474W        W43608   3.994  16.972  15.874 -0.0898 -0.3383  0.0807
27475W        W43609   4.718   9.510  13.077  0.1476  0.0426  0.1037
27476W        W43610  14.281  14.648   3.719 -0.0392 -0.0252  0.2358
27477W        W43611   4.042   6.105  11.958  0.3255 -0.0827  0.3669
27478W        W43612   3.121  13.660  13.626 -0.0173 -0.2849 -0.2016
27479W        W43613   4.342  15.773   5.485  0.2729 -0.1493  0.0617
27480W        W43614  17.744   2.598  16.380  0.0018 -0.1096 -0.2010
27481W        W43615   3.123  15.944   6.148  0.2670 -0.0737 -0.1737
27482W        W43616  17.396  11.139   2.700 -0.0924 -0.0334  0.1281
27483W        W43617   9.632   1.644   2.466  0.4206 -0.0478 -0.2002
27484W        W43618  10.317  14.483  12.865  0.0730 -0.4118  0.0207
27485W        W43619  15.963   0.530   1.319 -0.1543  0.0553  0.1468
27486W        W43620   7.689  16.779   4.494  0.1973  0.3244  0.1892
27487W        W43621   2.902  17.045   3.033 -0.0996  0.0178  0.0844
27488W        W43622   7.965   2.064  12.011 -0.1743 -0.1968 -0.1963
27489W        W43623   8.194  15.347  15.256 -0.2355 -0.1512  0.0439
27490W        W43624   7.905  15.506   1.610  0.2043 -0.0773 -0.0249
27491W        W43625   2.825  17.301  13.975  0.2171  0.1706  0.2014
27492W        W43626   1.149   9.379   2.975 -0.0427 -0.0371  0.0127
27493W        W43627   0.043   9.940  12.305 -0.1550  0.1851  0.3403
27494W        W43628   1.412  16.217  12.550 -0.0423 -0.0407  0.3048
27495W        W43629   3.969   4.133  15.444  0.0273  0.1134  0.0876
27496W        W43630   8.871   7.821  12.818  0.0789 -0.1143 -0.1958
27497W        W43631   8.423  17.196  15.170 -0.0074  0.1062 -0.1030
27498W        W43632   0.901  17.683   1.863 -0.0966 -0.5600 -0.1920
27499W        W43633   6.702   5.840   5.057  0.0311  0.2768  0.0811
27500W        W43634   0.210   8.995   4.624 -0.2980  0.1402 -0.0400
27501W        W43635   2.024  15.184   2.735 -0.3594 -0.0231 -0.1637
27502W        W43636  15.730  16.784   5.104  0.6419  0.0720  0.1197
27503W        W43637   0.851  10.853   9.834  0.1225  0.1469 -0.1726
27504W        W43638  10.046  12.152  12.059  0.1197 -0.0799  0.3392
27505W        W43639  17.526  16.576   1.861 -0.2408  0.1486 -0.3561
27506W        W43640   5.058  16.052  11.277  0.1066 -0.1403 -0.1856
27507W        W43641   2.057  10.753  10.842 -0.1606  0.0693 -0.2219
27508W        W43642  14.617   6.415  14.651 -0.0373  0.1769  0.1066
27509W        W43643   4.626   2.418  13.294  0.2678 -0.1073 -0.0447
27510W        W43644  17.264   4.402  11.466 -0.1956 -0.5842  0.1749
27511W        W43645   5.263  10.594  11.644 -0.2079  0.0011 -0.1105
27512W        W43646  13.316  17.032   5.356 -0.2694 -0.0111 -0.1307
27513W        W43647   0.104   1.291  12.161 -0.0657 -0.2309 -0.1063
27514W        W43648  12.398   5.320  16.173  0.1923 -0.1984 -0.1143
27515W        W43649  16.709   5.169   4.855  0.3200  0.0335 -0.0607
27516W        W43650   6.792   0.141   1.675  0.0139 -0.1403 -0.0166
27517W        W43651  16.600   6.327  11.505 -0.0928  0.1789  0.0637
27518W        W43652   4.730  10.894   3.554 -0.1103 -0.0067 -0.2473
27519W        W43653  17.581  11.455   4.348  0.0078  0.0591 -0.3016
27520W        W43654   9.439   8.143  11.829  0.1486 -0.0136 -0.2732
27521W        W43655   6.739   5.508   4.279  0.2379  0.0011 -0.0686
27522W        W43656  11.120  17.497   0.429 -0.1540 -0.1259 -0.4096
27523W        W43657   9.347   1.711  11.938  0.0208 -0.1363  0.0748
27524W        W43658   7.414  10.389   1.753  0.2116  0.2494 -0.0211
27525W        W43659  16.268  17.481  16.409 -0.0348  0.0721 -0.2717
27526W        W43660   2.712  12.407  14.592 -0.0787 -0.0599  0.1415
27527W        W43661   0.260   9.703  15.485 -0.0228 -0.2638 -0.1285
27528W        W43662   9.908   7.680  15.647 -0.0549 -0.1458  0.0926
27529W        W43663  15.108   3.977   4.342  0.0015 -0.2723 -0.0729
27530W        W43664   0.243   1.982   2.516 -0.3274  0.0253  0.0430
27531W        W43665  17.739   3.899  13.734 -0.2303 -0.1186  0.1355
27532W        W43666   2.156   5.793   4.685  0.2309  0.0496 -0.1248
27533W        W43667   9.903  13.056   1.035 -0.1457 -0.1891 -0.0608
27534W        W43668  16.852  15.198  12.558 -0.0585 -0.4240  0.0102
27535W        W43669   6.607   7.630  15.288 -0.0489 -0.0716  0.0725
27536W        W43670   5.383   0.601   0.764 -0.0038  0.1056 -0.2166
27537W        W43671   5.595  15.197  14.491  0.1125  0.0238  0.1018
27538W        W43672   2.762   6.321  13.879 -0.3302  0.1551 -0.1372
27539W        W43673   1.478   0.550   5.554  0.1879 -0.1061 -0.0112
27540W        W43674  12.317  14.529   6.091  0.1792  0.0376 -0.0429
27541W        W43675   5.696   7.424  13.722 -0.0738 -0.2116 -0.2599
27542W        W43676   1.831   2.897  12.377 -0.0115  0.1000 -0.2127
27543W        W43677  15.178   7.807   2.263  0.0369 -0.1782 -0.2185
27544W        W43678  11.244   5.327   1.557  0.0528  0.0084  0.2858
27545W        W43679  17.215   3.673   5.125  0.2199  0.2570  0.0316
27546W        W43680  11.577   5.334  15.193 -0.2799 -0.0552  0.3025
27547W        W43681  12.793   5.696  12.003  0.1541 -0.0751  0.0061
27548W        W43682   5.093  15.300  14.687 -0.0468  0.1254 -0.2483
27549W        W43683   6.073   4.565   1.078  0.2966  0.2587  0.0163
27550W        W43684   8.615  12.453   3.011 -0.1058  0.4636  0.1699
27551W        W43685  14.187   5.866  13.335 -0.0776  0.0697 -0.1283
27552W        W43686   4.048   0.263   0.618 -0.0901  0.0927 -0.1540
27553W        W43687   0.364  13.224   4.296  0.0800 -0.0427 -0.0136
27554W        W43688  16.228   9.494   5.966  0.1361  0.0843 -0.3346
27555W        W43689  10.858  17.960   1.854 -0.0477  0.2656 -0.0709
27556W        W43690  17.900   1.324   0.651 -0.1505  0.0654 -0.1773
27557W        W43691   1.535   6.434   1.899  0.0186  0.0857  0.2120
27558W        W43692   8.815   1.432  15.016 -0.1805  0.0935  0.3234
27559W        W43693   2.030   3.095  12.928 -0.0959 -0.1134  0.1156
27560W        W43694  17.786   0.373  12.438  0.2423  0.2582  0.2319
27561W        W43695   1.335  10.458   5.100  0.0596  0.0597 -0.0980
27562W        W43696   1.354  10.304  15.639 -0.0588 -0.0089  0.0535
27563W        W43697  16.773   6.251   2.706 -0.1236  0.1556 -0.1506
27564W        W43698   4.797   1.295  16.137  0.0512  0.2131  0.0142
27565W        W43699  11.141  12.791  12.101 -0.0219  0.1433  0.2081
27566W        W43700   7.027  10.786   5.956 -0.1488 -0.2671 -0.0121
27567W        W43701   8.586  13.655   3.356  0.0931  0.0064  0.0929
27568W        W43702   1.222  17.857   3.204  0.0659  0.2254 -0.1096
27569W        W43703   3.018   2.407  16.122  0.1081 -0.0809  0.0635
27570W        W43704  12.819  15.506   0.482  0.0982  0.1106 -0.1948
27571W        W43705  15.379   7.770  13.761  0.2173  0.0182  0.1448
27572W        W43706   8.170   0.256  10.484 -0.0557  0.1416 -0.0121
27573W        W43707   8.473  14.804  11.707 -0.0549 -0.1568  0.2194
27574W        W43708  13.827   1.870   4.364  0.1297 -0.3354 -0.1902
27575W        W43709  17.714  11.387  15.505 -0.0385  0.2664 -0.1417
27576W        W43710  10.587   4.007  16.283  0.0896  0.2547  0.0556
27577W        W43711   7.350   4.946   1.520 -0.1155  0.0551  0.2430
27578W        W43712  17.829  11.926  15.262 -0.2551  0.0617  0.1760
27579W        W43713  15.709   7.267  14.414 -0.0287  0.0069 -0.1341
27580W        W43714  15.700  13.520  15.553 -0.2124 -0.3005 -0.2139
27581W        W43715   8.797  10.959   4.927 -0.1277 -0.1083  0.1035
27582W        W43716  10.777   2.089  14.713  0.0931  0.2917  0.3496
27583W        W43717  11.836   6.992   1.597 -0.0526  0.1179 -0.0049
27584W        W43718   1.823  11.357   0.845  0.3099 -0.0452 -0.2046
27585W        W43719   9.025  15.213   4.876  0.2744 -0.1155  0.1531
27586W        W43720   7.301   9.480  13.123  0.0311  0.1576 -0.0308
27587W        W43721  10.692   0.299  15.280 -0.0792  0.0089 -0.1964
27588W        W43722  12.088   9.874  13.366 -0.0234 -0.1388 -0.2632
27589W        W43723   6.066  14.277   0.768 -0.2766 -0.0085  0.1725
27590W        W43724   2.828   5.150  12.602 -0.2376 -0.0403 -0.3444
27591W        W43725   9.255  10.208  15.581  0.0435  0.1456 -0.1376
27592W        W43726   2.420   8.379  12.551  0.0990  0.1242  0.0518
27593W        W43727  13.863   9.713   1.620  0.1335 -0.2507 -0.1385
27594W        W43728  15.701  15.943   3.909  0.0173 -0.0877 -0.0145
27595W        W43729  17.081   2.052  15.292  0.3541  0.0285  0.0211
27596W        W43730   5.488  10.272   4.581  0.1394  0.2292  0.2323
27597W        W43731  14.076   5.573  13.819 -0.1463 -0.0413 -0.0960
27598W        W43732  14.215   8.727   0.374  0.0539 -0.0374  0.3058
27599W        W43733   4.530   9.823  14.116 -0.0023 -0.1306  0.0051
27600W        W43734   6.611  14.083   0.839 -0.0526  0.2218  0.1297
27601W        W43735   6.381  13.622  14.242 -0.1077 -0.1057 -0.1979
27602W        W43736   7.844   8.207   4.496 -0.3481  0.0024  0.1637
27603W        W43737   4.338   4.152  11.640  0.3668 -0.0579 -0.1205
27604W        W43738  15.762   6.690  13.787 -0.1322  0.0319 -0.2019
27605W        W43739   0.596   3.026   1.867  0.1675 -0.2364 -0.0977
27606W        W43740  17.372  17.044  14.883  0.0388 -0.4643 -0.3453
27607W        W43741  16.496   2.909   3.450  0.3814 -0.0429  0.2325
27608W        W43742  17.464  16.330   0.249 -0.2568  0.4010  0.1301
27609W        W43743  13.674   5.686  14.622  0.1088  0.0237 -0.3227
27610W        W43744  15.545  14.076   2.692 -0.1261  0.0345  0.3092
27611W        W43745   1.610  15.216   3.005  0.2563  0.1242  0.0416
27612W        W43746  17.916   1.402   1.804  0.1528 -0.1125  0.2625
27613W        W43747   1.977   0.100  11.565  0.0902 -0.2624 -0.2306
27614W        W43748  14.735  14.973   4.439  0.1380  0.0509  0.1995
27615W        W43749   5.363   4.202   2.506  0.0982  0.5317 -0.1313
27616W        W43750   1.423   5.900   2.783  0.1157 -0.0801 -0.0144
27617W        W43751   8.824  11.050  14.099  0.1993 -0.0272  0.0550
27618W        W43752  12.516   2.235   1.949 -0.1117  0.1417  0.0745
27619W        W43753   8.914   7.764  12.294  0.0533  0.0739  0.0845
27620W        W43754  14.855  13.760  13.763  0.1968 -0.0841 -0.4605
27621W        W43755   6.027  12.144  10.367  0.3968 -0.0472  0.0378
27622W        W43756  16.623   1.063   2.102 -0.1410 -0.0818 -0.0545
27623W        W43757  11.680  17.056  15.631  0.1121 -0.1277  0.0699
27624W        W43758  10.447   3.754  10.387 -0.2409  0.0640 -0.0923
27625W        W43759   6.775   3.039   1.467 -0.1274  0.0195 -0.0120
27626W        W43760  13.105  12.710   0.450 -0.0608 -0.1215  0.1852
27627W        W43761   5.386  10.474   0.980  0.0721  0.0324  0.1878
27628W        W43762   2.013  14.422   3.831 -0.2660  0.1442  0.1270
27629W        W43763   9.865  12.067  13.620  0.0157  0.1710  0.2180
27630W        W43764   8.904  17.216  14.894  0.0919  0.0988  0.0524
27631W        W43765   6.972   0.960   4.880 -0.1863 -0.3761  0.1672
27632W        W43766   2.505   4.224  13.896  0.0646  0.0349  0.1741
27633W        W43767  16.266   4.636   0.147  0.1048  0.2367  0.3867
27634W        W43768   2.985   3.529  11.918  0.1963  0.2615 -0.2197
27635W        W43769   1.129   7.364  14.441 -0.1390 -0.0638 -0.2007
27636W        W43770  16.312   8.281   0.877 -0.1786 -0.0278 -0.1019
27637W        W43771   4.417   9.318  15.422 -0.2013 -0.0047  0.1132
27638W        W43772   9.669   3.653  10.978  0.0426  0.1989  0.1996
27639W        W43773  13.937  15.291  15.525  0.0850  0.1901  0.0481
27640W        W43774   7.271  16.846   0.551 -0.2941 -0.0384  0.0274
27641W        W43775   0.628  12.862   2.860  0.0184  0.1835 -0.4317
27642W        W43776   2.971   2.038  12.983 -0.0163  0.1424 -0.2139
27643W        W43777   9.948  15.886  15.427 -0.0615  0.1819  0.2989
27644W        W43778   5.081  11.635   1.231 -0.3001  0.1333  0.3528
27645W        W43779   2.373   0.142   2.918 -0.0611  0.0298 -0.2426
27646W        W43780  16.090   4.966  14.680  0.0235 -0.1217 -0.1064
27647W        W43781  15.232   4.119   2.951 -0.1844  0.3375 -0.0999
27648W        W43782   2.307   4.292   5.497  0.0616  0.0811  0.2929
27649W        W43783   8.661   8.124  15.295 -0.1801 -0.0372 -0.0462
27650W        W43784  12.494   2.624   1.558 -0.2186  0.0164 -0.2390
27651W        W43785   1.590   7.427   5.300  0.1055  0.0453 -0.1195
27652W        W43786  17.145   3.045  12.667 -0.3774  0.0800  0.0075
27653W        W43787   3.157  13.508   2.699 -0.2286 -0.1859 -0.1626
27654W        W43788  15.710  10.877  10.260 -0.0690 -0.2462  0.0592
27655W        W43789   3.795  15.446   5.636  0.1023 -0.0025  0.4798
27656W        W43790   9.494  15.920   2.325  0.1303  0.1832 -0.2453
27657W        W43791  13.902   8.473  15.083  0.1624 -0.0970  0.2023
27658W        W43792  12.294  16.574   3.617 -0.1238  0.0254  0.1594
27659W        W43793  12.874   8.769  12.442  0.0736 -0.1305 -0.0762
27660W        W43794   9.977  14.896   3.130  0.0944  0.0709  0.1032
27661W        W43795   0.476  16.436  15.319  0.1540  0.3150 -0.0780
27662W        W43796  18.092   3.115   1.169 -0.4028 -0.0270 -0.0674
27663W        W43797   7.369  11.528  15.855 -0.1155  0.0171 -0.0474
27664W        W43798  13.701  11.435   2.865 -0.0958 -0.0727  0.2395
27665W        W43799   6.812  11.007  15.953 -0.0152 -0.1514  0.3108
27666W        W43800  11.753  15.949   4.223 -0.0829 -0.0220 -0.0259
27667W        W43801  12.783   9.756  11.805 -0.0356 -0.2628 -0.1048
27668W        W43802  14.377  15.275  15.320 -0.2215 -0.1750  0.1034
27669W        W43803  17.233  13.566  15.802  0.0403 -0.0779 -0.2133
27670W        W43804   5.683   4.740  15.643 -0.4713  0.1418  0.3046
27671W        W43805  10.618  16.755   5.462 -0.0699 -0.0793  0.0137
27672W        W43806   1.141  12.685   2.641 -0.0397  0.0757  0.3096
27673W        W43807  14.756   8.347  11.688 -0.1245  0.0654  0.2211
27674W        W43808  14.801   6.537  14.160 -0.1225  0.0072 -0.2321
27675W        W43809  14.955   1.614   3.828 -0.0998 -0.0004 -0.4605
27676W        W43810  13.165   9.536  11.967  0.0670  0.0202 -0.1411
27677W        W43811  16.864  12.739   5.875  0.2015 -0.1013 -0.0526
27678W        W43812  15.602   4.756   1.746 -0.1660 -0.1543  0.0361
27679W        W43813   5.168   1.549  12.279  0.3432 -0.0063  0.1133
27680W        W43814  11.625   5.191   1.114 -0.1277  0.0318  0.1809
27681W        W43815   5.484  14.181   1.545  0.0063  0.0019 -0.0863
27682W        W43816   1.689   5.757  11.295  0.2865 -0.3647  0.4048
27683W        W43817   4.486  15.745   2.239  0.0026 -0.2828 -0.0719
27684W        W43818   1.796   8.844   1.733  0.0008 -0.0674  0.3250
27685W        W43819   3.131   7.195   1.551 -0.2585 -0.0581 -0.1046
27686W        W43820  17.950  12.464   1.779  0.0450 -0.0596  0.0418
27687W        W43821   4.120  14.947   2.533 -0.3353 -0.1697  0.2721
27688W        W43822   4.886   1.289   5.272  0.1850 -0.0144  0.0352
27689W        W43823  16.803  12.161  14.337  0.0090  0.0586  0.0897
27690W        W43824  16.540  10.158   1.420  0.5207 -0.1004  0.1578
27691W        W43825  15.720  16.246   1.719 -0.2253 -0.1484 -0.0088
27692W        W43826   8.407  12.237   6.070  0.1822  0.3361 -0.0968
27693W        W43827  17.792   9.502  15.928  0.2471  0.3473  0.0692
27694W        W43828  15.152   8.620  15.209 -0.0166 -0.0632 -0.0638
27695W        W43829   0.759   9.398  11.187  0.1567 -0.1467 -0.1650
27696W        W43830  10.643   4.987   4.572  0.1990 -0.0193 -0.1188
27697W        W43831  16.079  11.008   1.149 -0.1187  0.3674 -0.1976
27698W        W43832  11.073  12.050   4.920 -0.2087 -0.1473 -0.1732
27699W        W43833  16.502   3.597  14.052 -0.1469 -0.1997  0.0758
27700W        W43834  11.028  10.143   1.758  0.0948  0.2633 -0.1352
27701W        W43835  18.056   7.637   5.447  0.0100 -0.0536 -0.2035
27702W        W43836   5.872  17.344  12.602  0.0616  0.0737 -0.2297
27703W        W43837  14.888   0.359  14.860  0.1766 -0.2990 -0.0162
27704W        W43838  16.660  15.405   2.440  0.0925 -0.0165  0.0917
27705W        W43839   3.700  10.786   1.901  0.1220 -0.0183 -0.0891
27706W        W43840   0.046   2.826   2.670 -0.2295 -0.1648  0.1900
27707W        W43841  14.065   9.163  10.913  0.0253  0.1279 -0.0567
27708W        W43842   5.256   8.512  14.681 -0.1541 -0.0206 -0.2736
27709W        W43843   1.109   1.343   3.405 -0.0593  0.1076  0.0017
27710W        W43844  14.497   9.364  12.570 -0.0406 -0.0502 -0.0330
27711W        W43845  17.125  15.403   0.199  0.1452 -0.3527 -0.1563
27712W        W43846  14.170   3.864  16.206 -0.2220 -0.1444  0.0584
27713W        W43847  18.011   1.790  14.967 -0.0838 -0.0947  0.1213
27714W        W43848  10.902   5.115   1.795  0.0163  0.1715 -0.1614
27715W        W43849   6.027   4.548   5.577  0.2520 -0.0416 -0.0917
27716W        W43850  12.081  11.582  12.869 -0.0332 -0.1808 -0.0663
27717W        W43851  15.923   2.122   3.861  0.0900 -0.3790 -0.2760
27718W        W43852  12.598   4.510   4.719  0.2118 -0.0531 -0.2605
27719W        W43853   8.751  17.349  14.442 -0.0779  0.3141 -0.4594
27720W        W43854  14.265   5.099   1.692  0.1006  0.2306 -0.0900
27721W        W43855   9.479   1.926  11.525 -0.3170  0.0026  0.1089
27722W        W43856  14.937  10.114   0.522  0.3440  0.1430  0.3140
27723W        W43857   5.558  17.033  12.187  0.0761  0.0119 -0.2890
27724W        W43858  13.141   9.095   1.832 -0.1461  0.0104  0.2356
27725W        W43859   9.926   4.150   3.778 -0.2994 -0.0691  0.0663
27726W        W43860   3.727   3.312  11.594  0.2510  0.0531  0.0187
27727W        W43861   6.839   6.338  15.427  0.2260 -0.1789 -0.2456
27728W        W43862   3.590   4.394   0.617  0.1659 -0.0799  0.1382
27729W        W43863   1.779   2.562  12.772 -0.1503 -0.0628 -0.2774
27730W        W43864  14.314   0.800  11.533  0.0562 -0.2633  0.0266
27731W        W43865  14.535   9.235  14.917 -0.0321 -0.0931 -0.0428
27732W        W43866  13.276  10.397  13.504  0.1223  0.0426 -0.1320
27733W        W43867   3.108   3.082   1.286  0.2994 -0.4018  0.1108
27734W        W43868   1.875   0.387   3.603 -0.1212 -0.1454 -0.0015
27735W        W43869   8.782   0.116  11.340  0.1278  0.1584 -0.0564
27736W        W43870   9.600   8.441   0.352  0.0917 -0.0679  0.0908
27737W        W43871   1.649   8.354   1.918  0.0445  0.0229 -0.1187
27738W        W43872   2.946   5.902   0.622 -0.1153  0.3215  0.2400
27739W        W43873   0.427   3.608   1.629  0.2822  0.1059 -0.2975
27740W        W43874  10.688  10.129   3.754 -0.4480 -0.1643  0.0960
27741W        W43875   5.429  12.429   1.464  0.0073 -0.1457  0.0997
27742W        W43876  13.404  11.248   5.035 -0.0343  0.2009  0.0399
27743W        W43877  16.357   8.706   5.286 -0.2402  0.1755  0.3043
27744W        W43878   4.514   9.816   2.824 -0.2433  0.2120  0.1442
27745W        W43879   8.193  16.037   4.581 -0.0660  0.0940  0.1381
27746W        W43880  12.660  12.874   5.444  0.2472 -0.1829  0.2052
27747W        W43881  17.255   9.151   0.406 -0.1016  0.0452  0.0411
27748W        W43882  11.364   7.492   0.993 -0.0401  0.0073 -0.2979
27749W        W43883   3.560  14.157   4.794  0.0354  0.0696  0.0717
27750W        W43884   2.710   4.945  13.058 -0.1773  0.3015  0.0621
27751W        W43885  11.314   3.307  13.580 -0.1782 -0.1876  0.0625
27752W        W43886   2.460  13.016   5.541 -0.2627  0.0455  0.1568
27753W        W43887  13.156   7.917  15.936 -0.2535 -0.1083  0.0728
27754W        W43888  14.659   0.142   2.113  0.1600  0.1260  0.1318
27755W        W43889  14.985  14.477  15.342  0.1297 -0.1402 -0.0298
27756W        W43890   0.040   6.609  16.369 -0.1839 -0.0320 -0.2136
27757W        W43891  18.020   2.538   0.876 -0.1979 -0.0936  0.1542
27758W        W43892   9.968   7.812   2.703 -0.1070  0.0923 -0.1370
27759W        W43893   7.033   0.475   4.787  0.2083  0.1273 -0.1156
27760W        W43894   1.551   8.992  11.223  0.0293  0.0322  0.0887
27761W        W43895  16.811   8.113  15.025  0.0446  0.3122  0.0244
27762W        W43896   9.426   4.198  14.522  0.3408  0.0815  0.2272
27763W        W43897  11.197  15.037   0.531 -0.2574  0.0207 -0.1405
27764W        W43898   5.652   5.199   2.193  0.0719  0.1601 -0.1606
27765W        W43899   6.754  18.093  12.153 -0.0693  0.0057  0.0270
27766W        W43900  15.515  13.675  13.193  0.2563  0.0566 -0.0513
27767W        W43901  10.194  14.750   5.281  0.0635  0.0515 -0.1118
27768W        W43902   0.181   8.521  14.082  0.1057  0.0460  0.1822
27769W        W43903  11.362  12.793  15.350 -0.0086  0.1500  0.1402
27770W        W43904  12.326   0.537  14.842  0.1656  0.1827  0.3514
27771W        W43905   0.131  11.695   3.050 -0.0743  0.0249  0.0767
27772W        W43906  13.495   7.250   3.131 -0.1771 -0.0805 -0.0208
27773W        W43907  11.344   1.789  12.778 -0.1321  0.0338  0.0097
27774W        W43908   5.915   9.814  11.669  0.3216 -0.1123 -0.1106
27775W        W43909  10.440  11.407   6.588  0.1592  0.0377  0.1744
27776W        W43910   3.008   0.266   2.094 -0.2222 -0.0453 -0.1267
27777W        W43911   6.263  15.776  13.428  0.4320  0.0149 -0.0143
27778W        W43912   6.607  13.517  14.738 -0.0277 -0.0480  0.0876
27779W        W43913  12.042  10.353  15.285  0.3134 -0.1595 -0.4662
27780W        W43914   9.745   1.096   0.342  0.2316  0.0058 -0.0943
27781W        W43915   6.354  14.640   4.788  0.0178  0.0268 -0.1691
27782W        W43916   1.482   3.577   3.027 -0.0949  0.1588 -0.0309
27783W        W43917  17.525   1.551  13.702  0.2889  0.1829 -0.1909
27784W        W43918   8.297   0.772   5.989  0.2442 -0.0070  0.1464
27785W        W43919   1.423   4.626   0.722  0.0257 -0.1842 -0.1511
27786W        W43920   2.763  13.013   2.268 -0.0958 -0.1569  0.0716
27787W        W43921   4.809   9.437   5.307  0.1503  0.1693 -0.0561
27788W        W43922  12.478   4.266  12.157  0.0338 -0.1909 -0.0507
27789W        W43923  10.000   5.809  12.751  0.0232  0.1265 -0.1481
27790W        W43924   5.382   7.236  13.413 -0.2495 -0.3222  0.0909
27791W        W43925   5.928  16.630   4.918  0.0802  0.4883  0.1539
27792W        W43926   8.510  15.601  13.292 -0.1567 -0.1634 -0.0802
27793W        W43927  16.038   1.682  13.971  0.2989  0.2505 -0.0053
27794W        W43928   3.348  14.625   0.502 -0.2324  0.3532  0.1681
27795W        W43929  17.098  13.486  13.200  0.0165 -0.2191 -0.0579
27796W        W43930   1.048   5.015  11.705  0.3460 -0.1617 -0.1177
27797W        W43931   5.001   9.579  15.774 -0.0771  0.1172 -0.0857
27798W        W43932   5.619   6.234  11.201  0.0374 -0.1765 -0.1380
27799W        W43933   3.645   5.630   4.757  0.1118 -0.0525  0.1408
27800W        W43934   5.250   8.206   1.348 -0.1475  0.3335  0.0458
27801W        W43935   3.890  14.570   3.200 -0.0248 -0.0288  0.0284
27802W        W43936   9.836   2.892   4.194 -0.3328  0.1681 -0.0063
27803W        W43937   7.550   2.372   0.539  0.1924 -0.2679  0.1891
27804W        W43938   6.428  11.721   0.729 -0.1400  0.3873  0.3086
27805W        W43939   9.336   3.803  14.920  0.1120 -0.0902 -0.3114
27806W        W43940  10.221   4.297  11.100  0.0075 -0.0487 -0.1661
27807W        W43941   2.883  17.521   2.511 -0.1016  0.0561 -0.2189
27808W        W43942   8.230  10.135  11.888  0.1993 -0.3014  0.0661
27809W        W43943   0.248  15.635  12.636 -0.1260  0.2606  0.3134
27810W        W43944  15.823  10.625   2.123 -0.2497  0.2813  0.0680
27811W        W43945  16.813  13.274   1.660  0.2029 -0.0436 -0.2584
27812W        W43946  14.780   9.664  15.059  0.2244  0.0104 -0.0949
27813W        W43947  17.453  10.373  12.035 -0.1233 -0.0506  0.0341
27814W        W43948   9.298   9.408   4.781 -0.2026 -0.0121 -0.1312
27815W        W43949  14.014   3.987   6.042  0.0637 -0.1337 -0.1420
27816W        W43950  13.898   4.489   2.406  0.0468  0.0493  0.4321
27817W        W43951   8.260   5.391  13.994 -0.1743  0.0566 -0.0041
27818W        W43952  14.833  17.909   3.521 -0.0008  0.3739 -0.2139
27819W        W43953  14.549  10.659  11.456 -0.2793  0.1602  0.3589
27820W        W43954   9.957  16.585  12.610 -0.2472 -0.3152  0.0801
27821W        W43955  12.670  15.267   5.246 -0.2795  0.1543  0.2567
27822W        W43956  16.472   2.835  14.018  0.2986 -0.1355 -0.0210
27823W        W43957  13.331  17.311   0.171 -0.0227  0.3279 -0.1402
27824W        W43958  13.777   1.823  12.756 -0.2074  0.1714 -0.1466
27825W        W43959   4.398   2.419  12.164  0.1016  0.2347  0.0682
27826W        W43960   8.630  10.686  12.328  0.0018  0.1983 -0.1471
27827W        W43961   3.105   1.045  15.862  0.3843  0.1748  0.2098
27828W        W43962  12.189   1.995   0.846 -0.0426 -0.0875 -0.1143
27829W        W43963  14.531   2.317   2.905 -0.1330 -0.0681  0.0109
27830W        W43964   5.824   5.687  11.461 -0.0331 -0.2528 -0.1172
27831W        W43965   6.402  10.958   2.557 -0.1571 -0.1181  0.0183
27832W        W43966  13.616   4.677   5.153  0.2386  0.3211 -0.0816
27833W        W43967   0.478   4.598   3.572 -0.0487  0.0529  0.0163
27834W        W43968   8.009   4.192  14.844 -0.0781  0.0357 -0.0259
27835W        W43969  17.051   4.263   0.524 -0.2575 -0.3201 -0.2348
27836W        W43970   1.335   1.494   0.839 -0.2227  0.4504  0.0940
27837W        W43971   3.506  13.729   0.370 -0.2097  0.0226  0.2182
27838W        W43972  18.059   0.309  11.840 -0.0298  0.0403 -0.0906
27839W        W43973   9.110  10.973  10.502  0.1851 -0.0671  0.1921
27840W        W43974   9.483   2.403   0.776 -0.2849  0.2526  0.0123
27841W        W43975  15.840  15.419  13.148  0.1292 -0.2966 -0.1177
27842W        W43976   6.565  15.123   3.462 -0.1181 -0.0215 -0.2579
27843W        W43977  14.549  11.335  12.641 -0.0547  0.0269  0.0637
27844W        W43978   8.191   4.459   3.367 -0.0587  0.0167  0.2352
27845W        W43979  13.266  12.169   0.656  0.3987  0.1800  0.0987
27846W        W43980   3.772  15.657  15.063  0.0395  0.0779 -0.0510
27847W        W43981   6.482  11.983  16.143  0.0810 -0.3377  0.0034
27848W        W43982   7.580   3.575  11.676  0.1221  0.3155 -0.2352
27849W        W43983   6.616   1.689  11.409 -0.0087 -0.0898  0.0033
27850W        W43984  13.590  14.223  14.877  0.2421 -0.1790  0.0480
27851W        W43985   7.248   6.542  11.411  0.0554 -0.0675 -0.0902
27852W        W43986   2.492   5.791  16.402 -0.2915 -0.3719 -0.1354
27853W        W43987  18.090  13.374  15.741  0.0091 -0.2314 -0.0539
27854W        W43988  15.804   6.261   0.060 -0.0256  0.0079  0.0099
27855W        W43989  14.934   6.241  12.183  0.0097  0.0685 -0.0738
27856W        W43990   6.014  11.419  13.327 -0.2640 -0.1918  0.2107
27857W        W43991   0.412   9.758  13.674  0.1037 -0.1040 -0.4679
27858W        W43992  11.916  12.194   0.214 -0.1291  0.1887 -0.3185
27859W        W43993   8.110  15.989  12.054  0.1333 -0.1424 -0.0734
27860W        W43994  14.981  15.176   1.489 -0.3621  0.1787  0.0742
27861W        W43995   2.629  17.144  11.798  0.0546 -0.1526  0.0805
27862W        W43996   3.390  13.733   4.506 -0.1254 -0.0309 -0.1479
27863W        W43997  10.391  17.225  13.228 -0.2092  0.0685  0.2273
27864W        W43998  16.407   2.831  12.906  0.3288  0.0399  0.2654
27865W        W43999  11.319   0.785  13.651  0.0902 -0.0415  0.0411
27866W        W44000  16.015   8.603  11.968  0.0009  0.0815 -0.1172
27867W        W44001   0.613  12.962  11.946 -0.0732  0.0614  0.0904
27868W        W44002  17.250   1.882   4.449  0.0059 -0.1094  0.0940
27869W        W44003   0.950   7.097  16.361 -0.0473  0.0876  0.1920
27870W        W44004   3.601  15.756  13.528 -0.0915  0.0089 -0.0524
27871W        W44005   5.184   9.830   2.019  0.2567  0.0063  0.2416
27872W        W44006   6.108  17.096   3.600  0.3570 -0.0483  0.2049
27873W        W44007   4.064   0.134  11.575 -0.2434 -0.1486  0.1906
27874W        W44008  14.242  16.541  13.913 -0.2036 -0.0183  0.0954
27875W        W44009   9.244   2.229  10.759  0.0378 -0.0036  0.1861
27876W        W44010   1.922  16.759  14.872  0.1814 -0.1773 -0.2201
27877W        W44011   2.608   5.083   2.743  0.0017 -0.0656  0.0844
27878W        W44012  16.180  17.660   5.458  0.2279  0.2518 -0.0977
27879W        W44013   2.800   5.451   0.222 -0.3608  0.1603  0.3839
27880W        W44014   2.684   2.560  10.587 -0.1328  0.1264 -0.3012
27881W        W44015   4.990   8.608   1.097 -0.1683 -0.0139 -0.1062
27882W        W44016   1.340  15.781   0.350  0.0662 -0.2894 -0.1801
27883W        W44017   0.912   6.688   0.396  0.2504  0.0708 -0.0756
27884W        W44018  14.809  14.031  11.956  0.0015 -0.0403 -0.0288
27885W        W44019  11.402  12.447  14.060  0.0880 -0.1524  0.0464
27886W        W44020   6.435   4.331  13.738  0.1487  0.2444  0.0837
27887W        W44021   9.742   8.445  13.250  0.2534  0.3122  0.2798
27888W        W44022   8.936  11.154   5.667 -0.3867  0.0628 -0.3059
27889W        W44023  11.812   7.886   1.846  0.0118 -0.0818  0.0369
27890W        W44024  14.333   3.950  13.852  0.2601  0.2104  0.0942
27891W        W44025   6.144   7.871   5.393 -0.1909  0.2672 -0.0197
27892W        W44026   2.601  14.923  12.911 -0.0538 -0.1359  0.0592
27893W        W44027  14.594   9.877  15.471  0.2303  0.1482  0.3225
27894W        W44028   7.629   6.077   4.966  0.0091 -0.0681  0.1667
27895W        W44029   8.180  10.075   5.879 -0.0830  0.0009  0.1225
27896W        W44030  16.335  13.684   3.045 -0.0487 -0.0360 -0.2919
27897W        W44031  16.409  13.084  11.080  0.0402  0.1086 -0.0055
27898W        W44032  14.761   2.827  13.392 -0.2159  0.0736 -0.4717
27899W        W44033  12.582  13.371   5.135 -0.1380 -0.0725  0.0480
27900W        W44034   6.320  11.000   4.295 -0.0813 -0.3257  0.0911
27901W        W44035  11.542  16.910   3.847  0.1399  0.1831 -0.1414
27902W        W44036   4.434  17.405   1.584 -0.0972  0.3547 -0.0664
27903W        W44037   7.577  10.867  14.050  0.0534  0.0198 -0.0729
27904W        W44038   3.628   4.192   2.239  0.0127  0.0383 -0.0798
27905W        W44039  11.542  11.280   4.136  0.1295  0.0867  0.0119
27906W        W44040  15.471   6.286  12.093 -0.0509 -0.1123 -0.1513
27907W        W44041   7.286  17.405   1.671  0.0382  0.2858  0.1370
27908W        W44042   7.695  15.831  15.797 -0.1491  0.2358 -0.1172
27909W        W44043  12.956   8.769   4.108  0.1894  0.0480 -0.2502
27910W        W44044   6.662   6.647   5.461  0.2015 -0.0305 -0.0331
27911W        W44045  10.666  15.395   1.766  0.0830 -0.1318  0.2010
27912W        W44046  10.932   0.611   0.104  0.0285  0.3758 -0.3578
27913W        W44047   4.939  12.958  14.866  0.0244 -0.1549  0.4503
27914W        W44048  11.838   8.042  14.335 -0.1218  0.1897  0.1697
27915W        W44049   8.978  10.249   5.662 -0.3601 -0.3710 -0.1047
27916W        W44050   7.378   2.513   3.577 -0.0874  0.1275  0.1084
27917W        W44051  12.668  11.770   3.657 -0.4120  0.1818 -0.2830
27918W        W44052   8.184   3.121   5.743  0.0936 -0.0080 -0.2989
27919W        W44053  14.707  10.957  14.239 -0.0713 -0.0285 -0.0625
27920W        W44054   1.352   1.543   2.177  0.1969 -0.0777  0.1806
27921W        W44055  11.218   4.861   1.379 -0.0528 -0.0694 -0.1054
27922W        W44056  15.743  18.075  12.856 -0.0023  0.0223 -0.0141
27923W        W44057   6.955   9.175   0.869 -0.0989  0.0943 -0.1457
27924W        W44058  17.137   8.819   1.802 -0.2660 -0.2122  0.0087
27925W        W44059  17.332   2.815  13.925  0.2591 -0.1750  0.0364
27926W        W44060  11.675   8.505  13.712 -0.2048 -0.0214 -0.0346
27927W        W44061  16.006  12.291  12.131  0.2948 -0.0979  0.0550
27928W        W44062   4.653   1.894   0.500  0.3027 -0.1373  0.2050
27929W        W44063   1.887   1.115   4.854  0.5362 -0.0528  0.0412
27930W        W44064   4.162  16.290  13.730 -0.1360  0.4164 -0.1854
27931W        W44065   6.255   5.414  15.899  0.2518 -0.1147 -0.1213
27932W        W44066  16.560   8.822  10.884 -0.1240 -0.0889  0.2100
27933W        W44067   7.712   4.590   5.455 -0.1616 -0.1942  0.0464
27934W        W44068   3.598  13.008   5.721 -0.1595 -0.3263  0.1450
27935W        W44069   1.543   4.209  11.159 -0.0751  0.0712  0.3115
27936W        W44070   9.823   0.129   2.660  0.1214 -0.2076  0.1387
27937W        W44071   2.410  17.928  13.623 -0.1249  0.4299  0.1601
27938W        W44072  12.564  15.174   6.237 -0.2223 -0.0036  0.1849
27939W        W44073   3.282   2.996  12.759 -0.2557 -0.0709  0.1049
27940W        W44074   9.725  15.208   3.640  0.1313  0.0068 -0.2439
27941W        W44075   0.757  16.926  11.642 -0.0581  0.1320 -0.1614
27942W        W44076  12.283   5.815   2.989  0.1842 -0.0625  0.0114
27943W        W44077  12.081   8.310  12.555  0.1549 -0.2742  0.1042
27944W        W44078   9.228  17.578   2.979  0.0337 -0.1080  0.4407
27945W        W44079   8.853   3.873  13.765  0.1044 -0.1180 -0.2766
27946W        W44080   9.028   5.776   2.939  0.1010  0.0532 -0.0945
27947W        W44081   8.530  14.729  12.243  0.1135 -0.1255  0.0275
27948W        W44082   8.058  11.848  14.844  0.2136  0.1167  0.1256
27949W        W44083   8.372   1.225  12.248 -0.0815 -0.1277 -0.2816
27950W        W44084  14.772  17.877  12.339  0.0646 -0.1866  0.0566
27951W        W44085  10.047  14.442   5.763  0.0106 -0.2122  0.0143
27952W        W44086  15.949   7.964   0.237 -0.1640  0.1460 -0.0458
27953W        W44087   7.728  14.319   4.344  0.1351  0.1044  0.0001
27954W        W44088  16.055  17.859   4.157 -0.1760 -0.2873 -0.2690
27955W        W44089   6.970  16.928   4.731 -0.2150 -0.0950  0.0586
27956W        W44090  16.515   3.484   2.886 -0.2470 -0.2090 -0.2904
27957W        W44091  12.649  10.552   3.096  0.0702  0.1027  0.2723
27958W        W44092   6.224  16.591  13.174  0.0344  0.0912  0.0343
27959W        W44093  12.433  16.344   5.743 -0.2201 -0.1778 -0.0095
27960W        W44094   6.848   8.575   1.717  0.0737  0.2720  0.0358
27961W        W44095   2.521   2.951   4.319 -0.0462 -0.4434 -0.0851
27962W        W44096  13.855   1.065  15.455  0.2159  0.0033  0.0819
27963W        W44097  13.302   6.273   1.132  0.2979  0.1830 -0.0821
27964W        W44098   7.973   3.548  12.962 -0.3428  0.2115  0.0827
27965W        W44099   8.061   7.540  13.554 -0.1648 -0.0659 -0.2706
27966W        W44100   9.008  14.065   3.103 -0.1082  0.0602 -0.2340
27967W        W44101  13.001   8.298  15.002  0.1676  0.0932  0.0100
27968W        W44102   0.634  13.563  15.081  0.1389 -0.1382 -0.1996
27969W        W44103  10.422   3.810  15.577 -0.0302 -0.0686  0.1903
27970W        W44104  15.968  14.316   2.854 -0.1513  0.0380 -0.3324
27971W        W44105   1.966   7.320  13.954  0.1435 -0.0041  0.1859
27972W        W44106   2.629   5.745   3.332 -0.0496  0.0263 -0.1525
27973W        W44107  17.124   7.068   0.703 -0.0426  0.1007 -0.0128
27974W        W44108  11.211   2.797  10.800  0.0531  0.2391  0.0472
27975W        W44109   9.795   1.011  16.232  0.2719  0.1930 -0.1460
27976W        W44110  10.614   3.094   0.045 -0.0456 -0.2510 -0.2887
27977W        W44111   3.102   3.739  12.342 -0.3655  0.1321  0.3174
27978W        W44112   7.139  15.839   3.794  0.3117  0.2484 -0.0990
27979W        W44113  15.400   5.423   1.539 -0.4133  0.1314  0.1401
27980W        W44114   4.348  10.994   4.297  0.1636 -0.0363  0.1730
27981W        W44115   4.894  16.287  15.471  0.2044 -0.1312 -0.2182
27982W        W44116   0.791   4.630  16.250  0.2996  0.1913  0.0492
27983W        W44117  17.667  11.816  11.601 -0.0623  0.0507  0.2038
27984W        W44118   4.760   1.527   2.790 -0.1673  0.0769 -0.0073
27985W        W44119  13.239  11.149  14.379 -0.0019  0.1346  0.1207
27986W        W44120  10.489   2.819   3.376  0.1744 -0.2641 -0.2568
27987W        W44121  13.248   7.757  13.337 -0.4640  0.3565  0.0544
27988W        W44122  14.354  12.145  14.226  0.1159 -0.0864 -0.1487
27989W        W44123  17.426   7.856  15.503  0.1751 -0.1282 -0.0511
27990W        W44124   3.881   6.865   3.009 -0.1065  0.2106  0.1794
27991W        W44125   4.621  17.379  12.161  0.1134 -0.0635 -0.3099
27992W        W44126  11.149   7.435   2.108  0.0641  0.0368  0.0458
27993W        W44127  12.575  13.883   1.888  0.3069  0.1713 -0.2821
27994W        W44128  14.553   2.381  15.623 -0.2897  0.0517 -0.1490
27995W        W44129   8.457  17.872   0.709  0.0764 -0.1206 -0.0168
27996W        W44130   9.871  17.048  12.506  0.1846  0.3304  0.2355
27997W        W44131  17.201   5.250   1.546 -0.4412  0.0778 -0.2117
27998W        W44132   5.930  15.326  13.618 -0.2091 -0.1806  0.3546
27999W        W44133   4.597  10.072  11.267 -0.2409  0.3342  0.0109
28000W        W44134  15.433  10.080   0.416  0.0708 -0.0459 -0.0789
28001W        W44135  11.923   9.444  12.465 -0.0871  0.0823 -0.0509
28002W        W44136   2.960   1.981   1.549 -0.2657  0.2382 -0.0944
28003W        W44137  16.157  11.216  11.663  0.0346  0.0510 -0.5593
28004W        W44138   5.598   9.645   0.955  0.0402 -0.0613  0.1345
28005W        W44139   9.813   7.231   0.918 -0.1070  0.0315 -0.0680
28006W        W44140   4.407   2.300  14.994  0.0892  0.0974 -0.1612
28007W        W44141  14.812   1.931  12.916 -0.0009 -0.1085  0.0671
28008W        W44142  17.713   1.100  14.309 -0.1954  0.1439  0.0797
28009W        W44143  17.459   5.064  10.938  0.1498  0.0587  0.1642
28010W        W44144  12.272  17.574  13.598  0.0551  0.2765 -0.0794
28011W        W44145   7.791   0.848  14.198 -0.0912  0.0339 -0.1509
28012W        W44146  16.398   0.881  12.211 -0.1950 -0.1031  0.3325
28013W        W44147  15.164  13.357  14.551  0.1470 -0.0324 -0.2190
28014W        W44148   0.694  17.937   2.223 -0.1986 -0.1083  0.0202
28015W        W44149  11.284   6.945   5.115  0.1467  0.2667 -0.0521
28016W        W44150  11.250   6.138   0.373 -0.0644 -0.0740  0.5482
28017W        W44151   6.852   7.134   3.724 -0.3750  0.1315  0.2785
28018W        W44152   6.569   5.382  11.278  0.1226 -0.2833  0.3050
28019W        W44153   7.666  14.998   0.827 -0.0060  0.1263 -0.0422
28020W        W44154  11.005   4.550   3.650 -0.0740 -0.1502 -0.3130
28021W        W44155   3.132   2.534  11.930 -0.0197  0.0978  0.3989
28022W        W44156  12.450   6.720  13.708  0.0453  0.2069  0.4536
28023W        W44157   8.830   7.583  15.181  0.3290  0.2116  0.0515
28024W        W44158  10.019   0.639  13.730 -0.0059  0.1403  0.0657
28025W        W44159   4.724  15.305   6.173 -0.2921  0.3888  0.1597
28026W        W44160   4.133   1.634  14.433 -0.1645 -0.0602 -0.1381
28027W        W44161  13.294   5.778  14.193 -0.0837  0.3207 -0.0651
28028W        W44162  12.482  12.953  14.787 -0.2492 -0.4251 -0.0445
28029W        W44163   8.104  12.534  13.466 -0.1411 -0.0595  0.2081
28030W        W44164   9.183   3.659  15.716  0.0322 -0.1495 -0.0719
28031W        W44165   8.478   2.267   1.169  0.2122 -0.1887 -0.0417
28032W        W44166   9.241   3.643  13.975 -0.0937  0.1322  0.1098
28033W        W44167  13.776   6.158  14.841  0.1061  0.4476  0.1871
28034W        W44168   7.670   0.463   3.385  0.0212  0.0882  0.4868
28035W        W44169   1.221   3.712   1.308  0.0868 -0.0545 -0.3563
28036W        W44170   4.033  16.403   1.369 -0.1533  0.0596  0.1907
28037W        W44171   4.062  11.524  14.780 -0.0129 -0.0257  0.0758
28038W        W44172   7.104   5.840   3.716 -0.3116 -0.1525  0.3774
28039W        W44173   2.844   5.409  12.988 -0.1049 -0.1540 -0.0431
28040W        W44174  15.718   0.872   0.921 -0.3285 -0.2418  0.1283
28041W        W44175  11.673  11.426   5.071  0.2472  0.0015 -0.3645
28042W        W44176   9.080   5.492   1.320  0.2278 -0.1963 -0.0931
28043W        W44177   2.722  12.219   4.525 -0.1271 -0.1095  0.0189
28044W        W44178   4.952  15.540   2.395  0.0901 -0.0466 -0.0915
28045W        W44179  15.790   0.759   4.417  0.2184 -0.0550 -0.0955
28046W        W44180   2.914  12.807  15.970 -0.0919  0.2673  0.0205
28047W        W44181   8.786  14.972   5.866 -0.0525 -0.0903 -0.1393
28048W        W44182   2.995   3.032  11.826  0.1573 -0.0116  0.2988
28049W        W44183  11.249  11.793   6.453 -0.1936  0.1957 -0.1617
28050W        W44184  17.279  10.565   0.812  0.0743  0.0648 -0.1274
28051W        W44185   6.493   5.531   0.235 -0.0041  0.1516  0.0249
28052W        W44186  12.050   2.290   4.920 -0.1343  0.1909 -0.0862
28053W        W44187  14.267   6.294   1.724  0.0053 -0.4017 -0.1131
28054W        W44188  16.522  12.771   1.507 -0.2127  0.2097  0.0316
28055W        W44189   0.696   5.749  13.481  0.2152 -0.1921  0.2083
28056W        W44190  10.679   1.477   5.061 -0.0176 -0.0892 -0.1051
28057W        W44191   8.969  17.132  12.759  0.2342 -0.2980 -0.0790
28058W        W44192  14.010   4.792   0.544 -0.0535  0.3988 -0.3266
28059W        W44193  14.193  15.151   6.488 -0.0173 -0.0390  0.2071
28060W        W44194   7.302   0.355  12.539  0.1631 -0.0632  0.2379
28061W        W44195   6.500   4.116   3.120 -0.2427  0.0413 -0.1805
28062W        W44196   8.964   4.976   2.629 -0.0224 -0.0904  0.0667
28063W        W44197  11.265   5.785   2.886 -0.0291  0.1260  0.2009
28064W        W44198   1.891   4.824  15.685 -0.0895 -0.1210 -0.1058
28065W        W44199   7.843   2.096   5.021 -0.2918  0.3949 -0.0250
28066W        W44200   2.258   4.317  13.462  0.2589  0.2167 -0.1428
28067W        W44201  12.779   7.181   5.399 -0.1145  0.1298  0.0150
28068W        W44202   3.995  11.226  11.266 -0.3093 -0.0524  0.0323
28069W        W44203   7.780   2.134   0.031 -0.2105  0.1980  0.4689
28070W        W44204   6.012  16.642  12.039 -0.2581 -0.3082  0.0748
28071W        W44205   2.959   6.397   0.666 -0.0580  0.0622 -0.3483
28072W        W44206   0.261   3.637   4.965  0.3652 -0.1585 -0.0947
28073W        W44207  10.728  17.711   5.793  0.0526  0.0944  0.3266
28074W        W44208  14.545   0.038  12.841 -0.0649  0.0502  0.1280
28075W        W44209  17.376   8.698   5.272 -0.1431  0.0636 -0.0420
28076W        W44210  17.258   1.286  12.307  0.0803 -0.1843 -0.0719
28077W        W44211   7.546  10.124   5.140  0.1854 -0.0622  0.0724
28078W        W44212  14.552   2.630  16.370  0.0811  0.1862 -0.0734
28079W        W44213  16.590   2.967   1.152  0.1236  0.1125  0.2908
28080W        W44214   3.576   2.683   1.918 -0.0973 -0.1754  0.1746
28081W        W44215  11.611  13.838   1.756 -0.0823 -0.2200 -0.2819
28082W        W44216  13.670  11.743  12.973 -0.3392  0.1289  0.0264
28083W        W44217  17.229   1.037   2.097  0.1355  0.1405  0.2105
28084W        W44218   2.265   4.499  15.681 -0.1400 -0.2778 -0.0242
28085W        W44219  12.045  13.939  11.622 -0.2899 -0.1106  0.0258
28086W        W44220   4.207   9.423  14.373  0.0085 -0.1030  0.2950
28087W        W44221   1.732   5.349   5.973  0.0730  0.0690  0.0775
28088W        W44222   8.833   7.758  11.679 -0.0737 -0.3488  0.1491
28089W        W44223   1.517   0.147   3.850 -0.0696  0.1064  0.0923
28090W        W44224   9.189   0.713  13.131 -0.2443  0.0674  0.0771
28091W        W44225   0.942   3.743  12.624 -0.2465 -0.0915  0.1809
28092W        W44226   5.552  10.649  15.125  0.1597  0.0650  0.0399
28093W        W44227  10.278   6.546  15.110  0.0193  0.1556  0.3221
28094W        W44228  15.456  15.595  12.154  0.1514  0.0511 -0.0886
28095W        W44229   1.387   8.998   0.447 -0.0217 -0.2093  0.0516
28096W        W44230   2.580  12.040   3.673 -0.0943  0.1669 -0.3458
28097W        W44231   9.520   6.724   0.860  0.0274 -0.1771 -0.0334
28098W        W44232   5.825   3.752   4.285  0.0629 -0.0711  0.0086
28099W        W44233   1.336  16.695   3.805 -0.0622 -0.2148  0.1614
28100W        W44234  15.431  13.279  16.403  0.1242 -0.0771 -0.1009
28101W        W44235   2.183   1.334  13.110 -0.0049 -0.0886  0.0002
28102W        W44236   6.665  17.926   2.211  0.2161  0.0969  0.1275
28103W        W44237  13.789  14.829   3.835  0.2221 -0.2359 -0.0400
28104W        W44238  10.605  15.386  12.548  0.1318  0.1548 -0.4986
28105W        W44239  17.429  17.374   2.177  0.2259 -0.1797  0.2034
28106W        W44240  14.216   6.188  11.696  0.2559  0.0423  0.1821
28107W        W44241  17.888   8.363   3.850  0.0350  0.0291  0.1305
28108W        W44242   3.930   6.663   4.081  0.0477 -0.0243 -0.1406
28109W        W44243   4.131  17.159  13.293  0.0495 -0.1237 -0.2208
28110W        W44244  15.547   7.226   2.575  0.2789  0.0955  0.0423
28111W        W44245   7.447  14.521  12.380  0.1831  0.0418 -0.1016
28112W        W44246   3.428   4.732   3.183 -0.1323  0.0612 -0.0498
28113W        W44247   5.065   7.475   2.405  0.0468  0.5613  0.0781
28114W        W44248   7.103   1.115   2.600 -0.2726 -0.2331 -0.0360
28115W        W44249   6.064  15.018  13.149 -0.2920 -0.0239 -0.1189
28116W        W44250  11.750  15.601   0.934  0.0461  0.1535 -0.1098
28117W        W44251   1.262   4.458   2.470 -0.2256  0.0181  0.2710
28118W        W44252  16.262   7.133   4.867  0.1561 -0.1327  0.2651
28119W        W44253  17.595  14.295   1.968 -0.0344  0.0456 -0.0121
28120W        W44254  15.046  12.204   1.326 -0.1297 -0.0623  0.0402
28121W        W44255   1.198  14.833  14.784  0.2330 -0.1332 -0.2461
28122W        W44256  12.937  17.689  13.546 -0.2394  0.1110 -0.1978
28123W        W44257   1.616   1.194   1.203 -0.0025  0.0574 -0.2398
28124W        W44258   2.248   4.861   3.294  0.1622 -0.0295  0.0601
28125W        W44259   4.435   5.478   4.222  0.3248 -0.1613 -0.0812
28126W        W44260  13.717  12.304   0.802 -0.1886  0.0659 -0.3276
28127W        W44261   7.492   0.383   0.266  0.1813  0.1765  0.0674
28128W        W44262   2.625   9.595   1.825  0.0238 -0.1705  0.1582
28129W        W44263   9.305  15.850   1.886 -0.1082 -0.1478 -0.2140
28130W        W44264   2.184  13.801   0.631  0.0624  0.2646 -0.0510
28131W        W44265   3.443  10.863  13.664  0.0996  0.0007  0.0223
28132W        W44266   7.911  17.611  14.657 -0.0444  0.1599 -0.1724
28133W        W44267   2.202  14.518  12.311  0.1093  0.3594  0.2567
28134W        W44268   2.162  12.187   0.124  0.2188  0.2426 -0.0032
28135W        W44269  11.628  14.507  13.796  0.2555 -0.1331  0.3083
28136W        W44270   2.869   5.497  11.617 -0.1702  0.0671 -0.1810
28137W        W44271   4.842  15.928   5.257 -0.2155 -0.3456  0.0149
28138W        W44272  12.666  16.418   1.962  0.1246 -0.2333  0.1203
28139W        W44273  11.854   1.939  12.254  0.0592  0.4442  0.0370
28140W        W44274   3.026  17.851   2.165 -0.1603  0.2160 -0.1233
28141W        W44275   3.130  17.357   2.118 -0.0898 -0.1213 -0.2357
28142W        W44276   8.468  10.579   5.012 -0.1930 -0.0921 -0.0287
28143W        W44277   6.900  13.710  14.317 -0.2167 -0.2445 -0.1133
28144W        W44278   7.137  13.751   3.437  0.4422 -0.1125 -0.0023
28145W        W44279   6.770  14.926   4.822  0.1088  0.3027  0.1245
28146W        W44280   0.242  12.879  15.610  0.2482  0.5072  0.2289
28147W        W44281  14.040   4.563   1.573 -0.0610  0.3598 -0.2539
28148W        W44282   3.294   3.609  14.296  0.2993  0.0045  0.1815
28149W        W44283  14.713  10.581   5.497  0.0327 -0.2306 -0.0195
28150W        W44284  11.855  15.398  11.434 -0.1638 -0.0885  0.1024
28151W        W44285   8.419  11.402  16.267  0.2322 -0.1973  0.2910
28152W        W44286   5.522  10.642  12.877  0.1078 -0.2131 -0.0909
28153W        W44287  16.447   5.829  15.400  0.1839 -0.0331 -0.1130
28154W        W44288   5.922   9.914  12.398  0.0045  0.0042 -0.2295
28155W        W44289   4.379   6.186  15.034  0.1626 -0.2046 -0.0916
28156W        W44290  10.958   8.149  14.702 -0.1028  0.1690 -0.0407
28157W        W44291  16.284  13.352   5.197 -0.1102 -0.1731  0.1622
28158W        W44292  15.519   3.095  15.001  0.0430  0.0656  0.1926
28159W        W44293   9.530  13.572  13.700 -0.0250  0.0094 -0.2465
28160W        W44294  14.209   6.067   1.159 -0.0867  0.1360  0.0813
28161W        W44295  14.117   9.196  14.626 -0.0746 -0.0668  0.2369
28162W        W44296   6.041   8.264  13.193  0.2792  0.0513 -0.0631
28163W        W44297  14.238   4.145  13.322  0.1334  0.0889 -0.1983
28164W        W44298  15.060   1.649  14.731 -0.3049  0.0759 -0.1225
28165W        W44299  13.290  15.923  13.533 -0.4099 -0.0395  0.0294
28166W        W44300   0.650   9.785  14.789  0.0133 -0.0373  0.3882
28167W        W44301  17.890   6.411  13.113  0.1374  0.1412 -0.0607
28168W        W44302   3.219   4.279  12.922 -0.1250 -0.1132  0.1124
28169W        W44303  17.908   8.284   1.345  0.3259  0.0291  0.1202
28170W        W44304  10.701   4.570  13.194 -0.1528  0.1921  0.0995
28171W        W44305   9.715  11.906   0.248  0.2145  0.0542 -0.1101
28172W        W44306   9.594   5.243   2.057  0.0031  0.1129 -0.0818
28173W        W44307   6.324  11.898  14.128  0.1535 -0.2547  0.0159
28174W        W44308  12.986  13.391  15.967  0.5036  0.2055  0.1514
28175W        W44309   0.092  11.502   2.176 -0.0090  0.5734 -0.0594
28176W        W44310   1.784  17.132  13.265 -0.0965  0.0384  0.0621
28177W        W44311  15.253  10.120   4.850  0.0708  0.0976 -0.0789
28178W        W44312   3.375  15.029   0.084  0.2641 -0.2213 -0.1041
28179W        W44313   8.708   9.345   4.406 -0.0329  0.0334  0.0440
28180W        W44314  10.560  17.932  14.485 -0.1838  0.1561  0.1857
28181W        W44315  12.606   9.409  14.708  0.3063  0.2335  0.0108
28182W        W44316  16.553   7.843  14.343  0.1681  0.0674  0.1171
28183W        W44317  10.295  17.171  12.197  0.0963  0.2914 -0.0948
28184W        W44318  10.414   5.234   2.078  0.0528  0.0788  0.1455
28185W        W44319   7.453   7.579   3.376  0.3470  0.1880 -0.0342
28186W        W44320   3.659   4.719   4.243  0.0780 -0.0622  0.0267
28187W        W44321   7.053  16.660  13.987  0.0776 -0.3304  0.0305
28188W        W44322   8.953   2.755  14.446  0.1998 -0.2605  0.0666
28189W        W44323   9.364  11.064   4.670 -0.2084  0.0722 -0.1907
28190W        W44324   2.381   0.225   4.905  0.0579 -0.0156 -0.2987
28191W        W44325  15.375  15.510  13.972  0.0403  0.0872  0.0365
28192W        W44326   9.863  10.960   1.031  0.0158 -0.0592 -0.0286
28193W        W44327   2.110   4.445   0.266  0.1410 -0.0144 -0.0222
28194W        W44328   3.533  14.894  13.441 -0.3107  0.2390 -0.2211
28195W        W44329  11.034  16.773  15.235  0.0350  0.1147 -0.1636
28196W        W44330   8.038  17.529   2.460 -0.2029 -0.0371 -0.1623
28197W        W44331   8.968  11.936   2.255 -0.1773  0.3797  0.1439
28198W        W44332   6.590   6.660  12.128  0.0364 -0.0669  0.1508
28199W        W44333  15.427   2.637   2.526  0.0016  0.1580 -0.0524
28200W        W44334   4.774  13.943   0.855  0.0650  0.1844 -0.2635
28201W        W44335  16.104   8.083  14.270 -0.0399  0.0717  0.1412
28202W        W44336  10.867  12.706   4.010 -0.0692 -0.4105  0.2632
28203W        W44337  11.546  10.924  12.348 -0.1675  0.0022  0.0370
28204W        W44338   2.310   9.252  13.432 -0.0762 -0.1887 -0.0748
28205W        W44339   5.946  13.444   1.089  0.1722 -0.1407  0.1816
28206W        W44340  11.585   3.606  12.034 -0.2395 -0.0053 -0.0666
28207W        W44341   1.555   8.743  16.067 -0.0465 -0.0056  0.0236
28208W        W44342  17.691   9.826   0.886  0.1181  0.0109  0.0808
28209W        W44343   2.884  18.026   2.755  0.0684  0.3157  0.3321
28210W        W44344  14.001   7.443  14.973 -0.1183  0.0841 -0.0599
28211W        W44345   6.895   2.479  13.317 -0.0339 -0.1021 -0.2124
28212W        W44346   5.340  15.453   3.841 -0.2344  0.6278  0.0368
28213W        W44347  13.324   8.781   2.451  0.1539  0.0032  0.3318
28214W        W44348   7.474   4.235  12.407 -0.0472 -0.1645 -0.4080
28215W        W44349   2.448  15.615  13.791  0.2740 -0.0962 -0.1654
28216W        W44350   9.396  11.599   4.547  0.1141  0.1342  0.0285
28217W        W44351   7.832   9.962  13.963  0.6455  0.1179  0.0914
28218W        W44352   3.443   9.314  15.509 -0.4330  0.3627 -0.0665
28219W        W44353  17.351   2.746  13.102 -0.1464  0.0651 -0.0198
28220W        W44354   4.948   4.735   2.256 -0.2064  0.0417  0.1287
28221W        W44355   8.928  14.484  16.331 -0.1807  0.0303  0.4674
28222W        W44356  14.503  14.901   2.672  0.0503 -0.3318  0.0676
28223W        W44357  16.359   2.593  16.372  0.1565  0.1470  0.2247
28224W        W44358   9.265  14.048  14.102  0.2896 -0.1051 -0.2308
28225W        W44359   5.821   0.355   0.961 -0.0231 -0.0500 -0.0516
28226W        W44360   8.139   6.647   3.708  0.0596 -0.1317  0.0692
28227W        W44361   1.437  17.923   1.158 -0.0014  0.2750 -0.4132
28228W        W44362   2.967   9.855   2.755  0.0952 -0.2784 -0.2592
28229W        W44363   0.131   5.373  11.625  0.2904  0.1446 -0.1160
28230W        W44364  17.176  11.119   4.101 -0.1709 -0.1105 -0.1097
28231W        W44365  11.713   7.821   0.801 -0.0658 -0.2660 -0.1909
28232W        W44366   6.951  14.172   0.105  0.2274  0.0781  0.1864
28233W        W44367  16.503   4.149  13.928 -0.0746 -0.1261  0.4038
28234W        W44368   8.690   4.447   1.313  0.1949 -0.1131  0.2204
28235W        W44369  12.995  13.932   3.414  0.0392  0.1382  0.0864
28236W        W44370  10.108  13.321  11.865 -0.1197  0.3265  0.2710
28237W        W44371  15.974  11.000  12.663  0.1187 -0.0928 -0.0436
28238W        W44372  14.678  10.955   5.069  0.0314 -0.0085 -0.1223
28239W        W44373   3.346  16.682  14.312  0.3171 -0.3284 -0.0023
28240W        W44374   2.192  16.627  12.400  0.0085  0.0580  0.1152
28241W        W44375  17.406   7.496   0.479  0.1178  0.1533  0.0858
28242W        W44376   9.531   9.646   4.477 -0.2689 -0.0436  0.0728
28243W        W44377   5.745  17.651   2.043  0.0532 -0.0982  0.0134
28244W        W44378   1.543  14.902   1.362 -0.2474 -0.3369 -0.1873
28245W        W44379  16.364   8.581   1.249  0.0658  0.0974  0.0042
28246W        W44380   1.710  16.448  13.883  0.2935  0.1630  0.3326
28247W        W44381   7.851  11.264   2.503 -0.3160  0.2742 -0.4781
28248W        W44382   8.835  16.614   5.175 -0.1899  0.1800 -0.0149
28249W        W44383  16.237  15.070  13.350  0.0293  0.0890 -0.2159
28250W        W44384   3.404  17.339   3.939  0.2758 -0.0907  0.1171
28251W        W44385  15.788   7.167   4.434  0.0885  0.2232  0.0397
28252W        W44386   1.149  15.958  12.964  0.2257  0.1079 -0.0657
28253W        W44387   4.654   8.097  12.273 -0.1366 -0.0981 -0.2286
28254W        W44388  15.741   8.406  16.128 -0.4267 -0.0647 -0.1218
28255W        W44389   4.609  11.226  11.133 -0.0386 -0.0181  0.1711
28256W        W44390   0.789   4.953   1.204 -0.1592  0.0022  0.1453
28257W        W44391   1.867   7.606  12.929 -0.1391 -0.0084 -0.1489
28258W        W44392   4.777  12.564  10.639 -0.0415  0.0042  0.0557
28259W        W44393  16.697   3.771  11.516  0.3058 -0.1825 -0.0703
28260W        W44394  16.828   7.903   1.607 -0.2232 -0.1183 -0.0648
28261W        W44395   4.991   1.877  16.189 -0.0360 -0.0062 -0.1806
28262W        W44396   2.672  11.037   2.577 -0.1054 -0.0295  0.0843
28263W        W44397   4.143   9.805  15.335 -0.1786  0.0656 -0.0941
28264W        W44398  15.508  14.212  15.852  0.2248 -0.1899  0.0411
28265W        W44399  13.591   1.942  10.213  0.0990 -0.0634 -0.0672
28266W        W44400   2.999   4.978   3.074 -0.2239 -0.0415 -0.3800
28267W        W44401   1.253  15.101   3.428 -0.0486 -0.1988 -0.2736
28268W        W44402   8.301  10.597  11.977  0.1939 -0.0924 -0.1990
28269W        W44403   1.231  11.214  11.729  0.0258  0.1096  0.2409
28270W        W44404  14.059  16.321   3.476  0.0172 -0.1904  0.0072
28271W        W44405  10.255  16.143  13.608 -0.1058  0.3032  0.2919
28272W        W44406   7.576   6.831   0.696  0.0553  0.2138 -0.1620
28273W        W44407  15.640   4.610  15.419  0.0804 -0.0002 -0.0687
28274W        W44408  11.620  14.756   0.483  0.0406 -0.2729  0.4174
28275W        W44409  12.161  11.688   1.631 -0.0692  0.4423 -0.2040
28276W        W44410  11.948   5.219   3.724 -0.2073 -0.0531  0.0265
28277W        W44411   4.781  12.935  12.237 -0.1001 -0.1376 -0.1209
28278W        W44412  17.390  16.664   1.070  0.1939  0.1177  0.0265
28279W        W44413   3.721   4.952  16.327  0.1555  0.0481  0.0747
28280W        W44414   7.213   0.100  14.528 -0.3017 -0.0506 -0.1413
28281W        W44415   4.464  16.849   3.066  0.1331 -0.1193  0.3724
28282W        W44416  11.566   2.550   4.798  0.2230  0.1186 -0.1563
28283W        W44417  16.007   5.672  14.003  0.1282 -0.2110 -0.2376
28284W        W44418  10.559  15.733   4.340  0.0123  0.0585 -0.4378
28285W        W44419   9.473  11.051   3.477  0.1935  0.1611 -0.0081
28286W        W44420  12.240  11.651  12.020 -0.0280 -0.0266  0.0844
28287W        W44421   4.559   4.321   0.733  0.0861  0.1939 -0.0568
28288W        W44422  11.052   3.660   1.302  0.2508  0.0399  0.0921
28289W        W44423  11.149   8.309  10.200  0.0376  0.2041 -0.1468
28290W        W44424   3.481   4.535  12.574 -0.1633 -0.0801  0.1551
28291W        W44425  10.065   2.350  10.953  0.1086 -0.0189  0.1893
28292W        W44426   1.659   1.843  13.600 -0.0174 -0.0287  0.0121
28293W        W44427  10.393  11.832  14.894 -0.1148  0.0071 -0.2412
28294W        W44428  12.012  11.159  16.266  0.0762  0.0513  0.1226
28295W        W44429   2.211   5.491   5.595  0.1404 -0.2322 -0.2135
28296W        W44430  10.173  16.063  14.959 -0.1452 -0.0026  0.1595
28297W        W44431   7.324   3.558   3.728  0.0362  0.2586 -0.1471
28298W        W44432  16.807   7.997   4.554  0.0145  0.2520 -0.1440
28299W        W44433  10.028   7.780   3.271 -0.0544  0.0684 -0.2249
28300W        W44434  14.887   8.381   4.514  0.2598 -0.2294 -0.1159
28301W        W44435   8.936   3.777  11.494 -0.1642 -0.0938  0.0435
28302W        W44436   4.947   1.820   5.440 -0.4624 -0.1057 -0.0554
28303W        W44437   4.417  13.254  11.376  0.2506 -0.3037 -0.4380
28304W        W44438   5.444  11.056   4.150 -0.5806  0.1886 -0.1956
28305W        W44439  18.075   6.414  15.914  0.2340  0.1185  0.1380
28306W        W44440  17.598  10.760  15.214 -0.2682  0.0756 -0.3222
28307W        W44441  14.186   8.848   4.977 -0.1601  0.0781 -0.3038
28308W        W44442  11.294   6.282  14.203  0.1109 -0.0233  0.2091
28309W        W44443   6.378  14.240   3.891  0.0074 -0.0013  0.3528
28310W        W44444  15.372  18.057  11.372  0.1425  0.1619  0.0767
28311W        W44445   1.763  10.266  16.053 -0.0114  0.0271 -0.0934
28312W        W44446  15.771  16.670   5.606 -0.0772 -0.0081 -0.2905
28313W        W44447  16.462   1.365  14.708 -0.1556 -0.0360 -0.4279
28314W        W44448  18.052  10.853  16.098 -0.0266  0.0601 -0.2468
28315W        W44449   1.161   1.843   5.289 -0.2119 -0.3441  0.3201
28316W        W44450   7.262   5.799   5.112 -0.0552  0.0424  0.0960
28317W        W44451   4.702   0.407  14.463  0.1362 -0.3484 -0.1894
28318W        W44452  14.778  12.474  12.923  0.1210 -0.0627 -0.4281
28319W        W44453  17.826   4.973   0.394 -0.2093  0.3167 -0.1814
28320W        W44454  10.821   0.172  14.015 -0.0338  0.1204  0.1292
28321W        W44455   2.953   8.124   3.806 -0.1569 -0.0304 -0.0176
28322W        W44456  11.838   4.705  12.520  0.3746 -0.0764  0.1657
28323W        W44457  17.251  14.856  16.365  0.1823 -0.0010  0.1376
28324W        W44458  13.034   0.011   3.630 -0.0739  0.0784  0.1058
28325W        W44459  13.831   2.128   2.163  0.1714 -0.0564  0.1617
28326W        W44460   8.369  18.075   0.260  0.2081  0.0644  0.1475
28327W        W44461   7.611   1.476  13.057 -0.0090 -0.2123  0.2248
28328W        W44462   9.982  12.963  13.234 -0.0476  0.1394 -0.1252
28329W        W44463  17.629  14.233   3.209  0.1200 -0.2264  0.0800
28330W        W44464   2.900  16.391  10.620  0.1170  0.4113 -0.0891
28331W        W44465   0.335  14.150   3.749  0.0674  0.1186 -0.0746
28332W        W44466   8.909   6.910   2.439 -0.2838 -0.1439 -0.2291
28333W        W44467   0.948   1.391   4.992  0.2379  0.1165  0.1863
28334W        W44468  16.146  12.213   0.685 -0.0713 -0.2313  0.0803
28335W        W44469   4.730   8.350  15.501 -0.0565 -0.2239  0.1110
28336W        W44470   5.051   2.303  15.022 -0.2699  0.1705  0.0409
28337W        W44471   5.306   5.120   3.165 -0.0622  0.0581  0.0282
28338W        W44472  15.272   7.179  15.164 -0.2769  0.1572  0.0764
28339W        W44473  10.965   3.613  14.655  0.0109  0.1600 -0.0629
28340W        W44474  17.931   6.798  13.485 -0.1322 -0.0735  0.1039
28341W        W44475  11.401  16.165   3.226 -0.1162  0.1222 -0.1637
28342W        W44476  15.370   4.826  13.939 -0.2678 -0.2385 -0.3187
28343W        W44477  18.085  11.496  15.042  0.2035 -0.1156 -0.0123
28344W        W44478   3.479   1.953   1.072  0.1165 -0.1273  0.0844
28345W        W44479   5.744   2.838   4.226 -0.3012 -0.2140  0.0047
28346W        W44480   9.869  15.683   0.222  0.1733  0.2276  0.1346
28347W        W44481  15.962   9.600   4.451 -0.1776 -0.0848  0.0770
28348W        W44482   9.539   1.169   6.230 -0.1451  0.1366 -0.4181
28349W        W44483   4.910  14.295   4.974  0.2636  0.0746 -0.4586
28350W        W44484   1.059   0.844  10.933  0.0775  0.3883 -0.1056
28351W        W44485   9.759  12.433  15.271 -0.0235 -0.0249  0.2293
28352W        W44486   6.370   8.357   5.558  0.1036 -0.2568  0.1017
28353W        W44487   0.585  16.430  14.789 -0.0099  0.1131 -0.0614
28354W        W44488  12.352   8.294  12.977  0.0956  0.0769  0.0946
28355W        W44489   2.050  14.133  15.049  0.0535 -0.1880 -0.0211
28356W        W44490   4.804  11.865   3.274 -0.0479 -0.2840  0.0359
28357W        W44491   7.997   7.243   2.742 -0.3089  0.3896  0.2142
28358W        W44492   5.075   6.984   2.521 -0.0884 -0.1850 -0.1360
28359W        W44493  11.628   4.037   2.087  0.2148  0.2574  0.0925
28360W        W44494   5.718  17.157  15.979  0.0446  0.0551  0.0752
28361W        W44495  12.573  15.165  12.164 -0.0187 -0.1255 -0.0068
28362W        W44496   1.798   2.271  14.867  0.0405 -0.2124 -0.0978
28363W        W44497  14.500  12.634   1.717 -0.0301  0.3864  0.0608
28364W        W44498   4.352  13.720   0.328  0.2023 -0.0614  0.1451
28365W        W44499   3.804   3.905   0.543  0.0246 -0.2526  0.1505
28366W        W44500   3.810   7.354   2.957 -0.2942  0.0330  0.0679
28367W        W44501  12.285  12.626  15.991 -0.1787 -0.1712 -0.2636
28368W        W44502  11.852   8.603   2.124 -0.3927 -0.0432  0.0009
28369W        W44503  10.367   7.406   4.921 -0.0249 -0.0173 -0.1841
28370W        W44504  17.526   6.489   2.370 -0.1306  0.0360 -0.1563
28371W        W44505   8.816   5.207   0.339  0.0193  0.0060 -0.1536
28372W        W44506  11.232   1.676   5.242  0.0299  0.2395 -0.0498
28373W        W44507   8.116   4.779  13.409  0.0969 -0.0832 -0.2329
28374W        W44508   2.239   5.664  11.044  0.3852 -0.0818  0.1028
28375W        W44509   9.881  10.624   0.551  0.1606  0.0794  0.1649
28376W        W44510  10.450   9.678   3.909  0.0158 -0.2046  0.1741
28377W        W44511   7.968  14.485  11.073 -0.1705  0.0968  0.2278
28378W        W44512   5.001  17.590  14.863  0.0119  0.2229 -0.0783
28379W        W44513   1.207  14.313   2.097  0.1439 -0.0351 -0.0300
28380W        W44514  16.774   4.514  14.155 -0.3232  0.2338  0.2488
28381W        W44515   6.065  11.389  12.220 -0.1175  0.0065 -0.0034
28382W        W44516   6.638   9.572   2.475  0.2842  0.3758  0.1812
28383W        W44517  12.184  10.627  16.271  0.4310  0.1054 -0.1435
28384W        W44518  15.373   0.623   0.560 -0.3600  0.1070  0.0433
28385W        W44519   8.615   3.103  15.734  0.2459  0.2737  0.0816
28386W        W44520   6.169  17.337   2.124 -0.1420  0.0745  0.1667
28387W        W44521  11.853  12.958   1.484 -0.0237  0.1967  0.3676
28388W        W44522  12.732   8.355  12.652  0.1630  0.4938 -0.2806
28389W        W44523  16.335  11.589   3.801 -0.0632 -0.3608  0.0448
28390W        W44524  11.510  11.200  14.857  0.0427 -0.0099 -0.3064
28391W        W44525  17.195   5.308   5.027 -0.1508 -0.0885  0.1671
28392W        W44526  16.390   5.968  13.871  0.0123 -0.2931  0.4442
28393W        W44527   8.361  14.871  12.857  0.2950 -0.0297  0.2910
28394W        W44528  12.039   7.637  14.091 -0.0421  0.1611  0.0300
28395W        W44529  18.022  10.166   4.644  0.4630 -0.0717 -0.1844
28396W        W44530  12.924   1.212  15.203 -0.0588 -0.3816  0.0792
28397W        W44531  14.606  16.607  10.793  0.2343  0.1304  0.0029
28398W        W44532  13.734   5.160   0.987  0.0951 -0.2254  0.1110
28399W        W44533   7.117   3.931  15.853 -0.0872  0.0692 -0.1746
28400W        W44534  15.565  17.587  12.978  0.1890  0.1916 -0.0341
28401W        W44535  15.039  15.332  16.028  0.2779 -0.1794 -0.1379
28402W        W44536  14.068  16.896  15.509  0.1036  0.1835  0.0006
28403W        W44537   7.068   1.168   5.604  0.1818 -0.1718  0.0904
28404W        W44538   2.142   0.253  13.494 -0.0718  0.2138  0.0696
28405W        W44539   8.076  10.235  16.325 -0.2727 -0.0065 -0.1483
28406W        W44540  10.485   4.447   5.329 -0.1250  0.0268 -0.2445
28407W        W44541   3.936   8.851  12.045 -0.0704  0.0032 -0.0736
28408W        W44542  16.986   9.044  16.394  0.0587  0.0716  0.1079
28409W        W44543  10.444  12.695  14.863 -0.3451 -0.4236  0.0809
28410W        W44544  13.866   6.912  11.352 -0.1380  0.2746  0.0153
28411W        W44545   9.424  14.055  15.531  0.0281 -0.1461 -0.0781
28412W        W44546   7.087   7.308   2.081 -0.1011  0.0845 -0.1355
28413W        W44547  11.748   3.562   3.854 -0.0981  0.4086  0.2894
28414W        W44548  15.832   1.633  11.314 -0.1331 -0.3121  0.1518
28415W        W44549   8.284  17.938   1.212 -0.0777 -0.1348 -0.0583
28416W        W44550  10.762   4.766   2.737  0.4863 -0.2366 -0.0402
28417W        W44551  12.050   9.912   2.505  0.2570  0.0395  0.0309
28418W        W44552   3.052   7.682  12.144 -0.2333  0.0889  0.1278
28419W        W44553  11.918  13.561   2.742 -0.1107  0.0665  0.2441
28420W        W44554  17.615   1.474  15.592 -0.4436  0.1254  0.1643
28421W        W44555  12.279  10.500  11.757 -0.0436 -0.1228  0.2173
28422W        W44556  15.133   6.356  11.746  0.0946  0.1736  0.0440
28423W        W44557   4.695  10.265  13.548 -0.3155  0.0240 -0.2921
28424W        W44558   2.268  17.061  15.231  0.3768  0.0181  0.3400
28425W        W44559  13.569   2.666  15.311 -0.2663  0.0419  0.0836
28426W        W44560   8.333   8.134   4.306 -0.1224 -0.3184  0.0013
28427W        W44561   4.712   3.966   3.341  0.1403 -0.1783 -0.1297
28428W        W44562   3.102   9.704  15.670  0.0863  0.2125 -0.0957
28429W        W44563  17.943   8.539   5.383  0.0906  0.1648 -0.2439
28430W        W44564   4.722   9.782  16.135 -0.0505  0.1531  0.2289
28431W        W44565  15.984   8.450   2.045  0.0124 -0.1483 -0.2687
28432W        W44566   2.256  15.382  11.837  0.1637  0.1530 -0.1022
28433W        W44567   2.485   0.954   1.734  0.2045 -0.2174  0.2628
28434W        W44568  11.253  17.295  15.518  0.0658  0.1662 -0.0495
28435W        W44569   4.663   1.087   4.135 -0.0008  0.1011  0.1341
28436W        W44570   1.632   5.619  10.812 -0.1940 -0.0282  0.0156
28437W        W44571   3.069   4.539   2.842  0.0382 -0.2387 -0.0877
28438W        W44572  14.262  11.959   3.538  0.1886 -0.1852  0.1089
28439W        W44573   2.051   1.186   1.485 -0.4328  0.2416  0.0445
28440W        W44574  15.961  12.699  14.296 -0.2450  0.0435  0.0354
28441W        W44575  10.452   1.280   3.143  0.1556 -0.0948  0.0162
28442W        W44576  17.322  17.516  15.846  0.3832  0.2567  0.1737
28443W        W44577  10.370   8.224   2.471 -0.0832 -0.1727 -0.0345
28444W        W44578  16.352  16.374   1.036  0.2460 -0.0440  0.0454
28445W        W44579  11.286  11.534   3.622  0.2539 -0.1146  0.4626
28446W        W44580  11.733   7.305   2.616  0.3863 -0.2514 -0.0996
28447W        W44581   0.483  17.033   0.128 -0.3267  0.4982  0.1174
28448W        W44582   0.424   8.832  14.420  0.0122  0.3759 -0.2168
28449W        W44583   7.688  13.056   1.893  0.0936 -0.3465 -0.0810
28450W        W44584  12.984   4.083  14.175 -0.0382 -0.2006 -0.2660
28451W        W44585   7.233   5.368   4.181  0.1516  0.0077 -0.1989
28452W        W44586  10.950   6.911   3.270 -0.1621 -0.3254  0.2832
28453W        W44587  13.424  13.695  11.543  0.0337  0.3291 -0.0334
28454W        W44588   8.573  15.192  14.026 -0.1368  0.2899  0.1045
28455W        W44589   9.250   4.338   2.032 -0.0069 -0.0156  0.0139
28456W        W44590   3.163   3.405   3.776  0.3731 -0.1313  0.0210
28457W        W44591   7.427  17.473  16.321  0.2902  0.0191  0.0106
28458W        W44592   7.641  10.282   2.513  0.2199 -0.0662  0.1143
28459W        W44593  15.899  17.157  13.753 -0.0345 -0.0756 -0.0982
28460W        W44594  10.841  15.452  15.356  0.1844  0.0435 -0.0175
28461W        W44595   1.755   8.578  14.290  0.1234  0.1020  0.1800
28462W        W44596   2.460   6.370  11.663 -0.0592  0.0260  0.1780
28463W        W44597  17.854   5.455  15.608  0.2551  0.0349  0.0543
28464W        W44598   3.310   6.385   5.505 -0.0116 -0.3474  0.1250
28465W        W44599   7.889  11.839   0.758  0.2446 -0.1422 -0.0069
28466W        W44600  10.695   6.004  13.062 -0.1414 -0.1061  0.0842
28467W        W44601  11.741   7.920   3.425 -0.0098  0.0785  0.0084
28468W        W44602  12.317  10.308  11.247 -0.1829 -0.0371 -0.2193
28469W        W44603  17.254   3.144  14.321 -0.1699 -0.0214  0.1137
28470W        W44604  17.289  12.760   1.091  0.1577 -0.0398 -0.0644
28471W        W44605  11.850   9.128  13.215  0.0299  0.2412 -0.1545
28472W        W44606   3.623   8.747   5.436  0.2156 -0.0667 -0.1722
28473W        W44607   8.259  16.050   1.065  0.1538  0.1974  0.0459
28474W        W44608   1.620   6.036   4.867  0.3310 -0.0813 -0.0620
28475W        W44609  16.098  11.743  14.242  0.0715 -0.0449 -0.0612
28476W        W44610  15.791  11.142   2.953 -0.6035 -0.0305 -0.1013
28477W        W44611   3.997   1.371   5.425  0.0027  0.0281 -0.1004
28478W        W44612  15.516   9.175   4.474  0.3450 -0.0205 -0.1879
28479W        W44613  17.722  12.321   4.641 -0.0017 -0.0947  0.1308
28480W        W44614   7.848   2.753   1.339  0.0660 -0.0937 -0.0700
28481W        W44615  11.830   5.726   5.129  0.1252 -0.2278 -0.2408
28482W        W44616  15.267   6.473   5.647  0.0009 -0.0898 -0.0584
28483W        W44617   7.084   2.405   4.475 -0.0686 -0.2146 -0.1928
28484W        W44618   6.472   0.041   4.157  0.1292  0.2757  0.0841
28485W        W44619   9.196  15.502   2.325 -0.0123  0.3533  0.0485
28486W        W44620   5.589  14.984   1.075 -0.0241 -0.2368 -0.0954
28487W        W44621  10.037  15.699  13.671 -0.0082 -0.3497 -0.2283
28488W        W44622  10.311   3.301   1.895 -0.2064 -0.0799 -0.0226
28489W        W44623   7.455  12.180   1.308 -0.0368 -0.1838  0.4561
28490W        W44624  10.343  15.968  14.069  0.2287 -0.0838 -0.0165
28491W        W44625  16.035   2.393   0.695  0.0367 -0.0556 -0.3307
28492W        W44626   9.115  11.815   2.760 -0.3395  0.1862  0.1574
28493W        W44627  10.213   9.932  14.667 -0.1354 -0.0749  0.2595
28494W        W44628   8.037   6.169  12.843 -0.0142  0.1205  0.0949
28495W        W44629   4.020   5.775   2.807 -0.1679 -0.0343  0.0493
28496W        W44630  14.086   6.330   4.238 -0.0053  0.0643 -0.0145
28497W        W44631   0.039   2.792   1.954 -0.1704 -0.1835 -0.1481
28498W        W44632  14.337  12.506  11.099  0.0436  0.1052 -0.1761
28499W        W44633   4.011  15.510  14.557  0.0556 -0.1045  0.0854
28500W        W44634  12.744   8.592  16.286  0.2354  0.3400 -0.1228
28501W        W44635  11.634   5.169  12.847 -0.0571  0.3111  0.1642
28502W        W44636   2.492   7.543  15.453  0.1258 -0.0749 -0.3215
28503W        W44637   2.777   9.009   4.496  0.1190 -0.0671  0.0986
28504W        W44638   0.449  14.493   1.317  0.4230  0.1470  0.2275
28505W        W44639   0.447   2.122  13.064  0.0833 -0.1927 -0.0468
28506W        W44640  17.427  14.959   0.443  0.1289 -0.1315 -0.2709
28507W        W44641   3.073  12.170   2.716  0.0068 -0.1573  0.0426
28508W        W44642   2.256   2.892   6.000  0.0535  0.4628 -0.0647
28509W        W44643   9.233  14.967  12.306 -0.3062  0.1171 -0.0951
28510W        W44644   6.442  13.306   1.464  0.0395  0.0931 -0.2593
28511W        W44645   2.436   9.932  12.327 -0.0423  0.0111 -0.0263
28512W        W44646  11.611  15.444   5.307 -0.0094 -0.0949 -0.1114
28513W        W44647   5.192  13.134  11.950  0.1045  0.1714 -0.1590
28514W        W44648   4.517   9.075  12.956 -0.0050  0.2182 -0.0164
28515W        W44649   3.232  10.365  12.096 -0.3040  0.4838 -0.0290
28516W        W44650   9.925  12.014   2.435 -0.1252  0.0974 -0.0653
28517W        W44651  10.947   0.104   0.074  0.3232 -0.1644 -0.0741
28518W        W44652   3.649   7.400  11.610  0.1718  0.0553  0.0103
28519W        W44653  14.371   9.892  16.307 -0.1170 -0.3469 -0.1436
28520W        W44654   5.582  11.832   4.081 -0.0388 -0.0016  0.1693
28521W        W44655  17.418  16.221   3.099  0.0503 -0.3268  0.2071
28522W        W44656   2.790  12.752   4.550 -0.0412 -0.2697 -0.3519
28523W        W44657   9.079  10.773   3.868  0.0037  0.1111  0.3013
28524W        W44658  12.618  12.598   0.406 -0.0143 -0.0591  0.1874
28525W        W44659   8.824  12.921   2.732 -0.1263  0.0053  0.0585
28526W        W44660  10.912  16.579   2.458  0.0387 -0.0853  0.1380
28527W        W44661   4.105   5.411   5.379  0.0734 -0.0692  0.2413
28528W        W44662   3.543   9.516   2.059 -0.2231 -0.0744  0.2280
28529W        W44663   1.105  10.849   1.042 -0.2861 -0.0948  0.2665
28530W        W44664  15.059  16.208   6.200 -0.0986 -0.2108 -0.1053
28531W        W44665   4.424   8.789  13.800 -0.5370  0.2362 -0.0999
28532W        W44666  10.791  12.886   1.253 -0.0290  0.4341 -0.1182
28533W        W44667   7.082  14.349   6.050  0.2701  0.0654  0.2238
28534W        W44668  17.560  12.603  11.977  0.3786 -0.3374 -0.2095
28535W        W44669   5.400  15.802   3.542  0.1589  0.0202  0.0824
28536W        W44670   5.344  12.398  13.953  0.0402  0.2391 -0.3618
28537W        W44671   5.165   8.907   1.877  0.0223 -0.2427  0.0299
28538W        W44672   1.928  13.564   3.463 -0.1722 -0.0170  0.2245
28539W        W44673   6.024  15.804   2.887  0.1565 -0.2959 -0.0927
28540W        W44674   9.422   5.101   3.370  0.4450 -0.1619  0.1798
28541W        W44675   5.312  16.174  11.691  0.3608 -0.1083 -0.0286
28542W        W44676   5.772   4.950  11.224 -0.3208  0.0819  0.0815
28543W        W44677  14.261  10.789   3.800  0.1252  0.2236  0.1482
28544W        W44678   5.877  12.731   0.162 -0.1310 -0.0287 -0.2877
28545W        W44679   0.561  13.235   0.967 -0.0455 -0.0980 -0.0563
28546W        W44680   5.708   8.580   2.391 -0.2460 -0.1779  0.0466
28547W        W44681  18.057   5.277  12.552 -0.0678 -0.0898  0.0585
28548W        W44682  11.356   8.306   3.329  0.2887 -0.1604  0.2171
28549W        W44683   4.415   5.649  14.973  0.1419 -0.0749  0.1014
28550W        W44684   4.477  16.117  13.010 -0.0495  0.0539  0.0664
28551W        W44685   8.534  16.758  12.079 -0.1483 -0.1474  0.0009
28552W        W44686   9.234  14.067   2.351 -0.1088  0.2057  0.5717
28553W        W44687   6.368   2.120   0.011  0.1236 -0.3044 -0.0338
28554W        W44688   1.379  14.468   4.064 -0.3121  0.0495 -0.1284
28555W        W44689   2.438   9.858  11.662 -0.3367  0.5113  0.1607
28556W        W44690   6.128  14.467   4.409  0.2467 -0.1305 -0.0486
28557W        W44691   3.152   6.336   2.607  0.0147 -0.2325  0.3245
28558W        W44692  13.123   9.261  14.197  0.4030 -0.4135 -0.2266
28559W        W44693   1.829   7.022  15.842 -0.1204  0.0446  0.2108
28560W        W44694   1.811   1.971  11.637 -0.2989  0.3764 -0.1961
28561W        W44695   0.836   2.091   3.181  0.0870  0.0077  0.0202
28562W        W44696  17.690   0.361  13.653 -0.3052  0.2390 -0.1140
28563W        W44697  10.494  15.897  12.381 -0.0499  0.3478  0.0388
28564W        W44698   7.430  12.629  15.602  0.0492 -0.1137 -0.1292
28565W        W44699   5.325   2.197   0.393  0.0462  0.1801 -0.1291
28566W        W44700  13.494  15.747   2.038 -0.1483  0.1521  0.2278
28567W        W44701  10.998  15.055   1.153 -0.1344  0.2745 -0.2263
28568W        W44702  11.614   9.145   3.140 -0.0603 -0.3607  0.2084
28569W        W44703   5.806  17.936   0.227 -0.1095  0.1022 -0.1040
28570W        W44704   5.617  10.698  11.958 -0.0203 -0.3879  0.3863
28571W        W44705  10.560   3.827   5.424  0.4720  0.1312  0.2131
28572W        W44706  11.339  11.045   2.190 -0.1666 -0.0217 -0.3604
28573W        W44707  14.404   5.457   0.062 -0.2111  0.0434  0.0143
28574W        W44708  14.450   0.582   1.663  0.2238 -0.0459  0.1158
28575W        W44709   4.337  16.251   5.371 -0.0620  0.0049  0.0778
28576W        W44710   6.620   1.089  13.686  0.0582 -0.2772 -0.0520
28577W        W44711   5.413   2.174  15.325 -0.3084  0.1198 -0.1126
28578W        W44712  16.787   6.100   5.052 -0.1852 -0.0378  0.0143
28579W        W44713   4.206   1.392   3.349 -0.1030 -0.0553  0.1099
28580W        W44714   7.564  14.538   5.323 -0.1838 -0.0258  0.4691
28581W        W44715   0.287   8.424  12.108  0.2720  0.2417  0.4333
28582W        W44716   9.126  17.627  12.651  0.0373  0.0497  0.0559
28583W        W44717   7.447   7.399  14.151  0.2358 -0.0244 -0.0626
28584W        W44718  11.492   9.299  12.115 -0.0686 -0.2431  0.0487
28585W        W44719   2.670  11.632  11.633  0.0521  0.0983  0.0256
28586W        W44720   4.314  11.043   5.260 -0.1267  0.2167  0.1204
28587W        W44721  14.462   9.063  13.742  0.1819  0.1898 -0.1587
28588W        W44722  15.629   0.383  11.424  0.0474 -0.1923  0.0759
28589W        W44723   7.039  10.493  12.455 -0.0992 -0.5677 -0.0463
28590W        W44724   1.494  14.288  16.163  0.0308  0.0927 -0.2362
28591W        W44725  14.870  17.840   0.388 -0.1817 -0.1457  0.0832
28592W        W44726  14.048  11.809   4.450  0.0560 -0.1050  0.0507
28593W        W44727  14.630   1.472  12.278 -0.0674 -0.0689  0.0795
28594W        W44728   5.604  16.094   4.556 -0.0618  0.4169  0.0403
28595W        W44729   8.213   9.361   2.471  0.0836  0.0455  0.1249
28596W        W44730  13.917   1.519  14.682 -0.4499 -0.1016  0.0207
28597W        W44731   8.408   9.761   4.501 -0.2146  0.1431 -0.0722
28598W        W44732   6.179  15.447   2.522 -0.0622  0.0571  0.0187
28599W        W44733   9.729   4.932   4.311 -0.0776  0.0672  0.3227
28600W        W44734   7.307   5.186   0.794  0.2816 -0.2054  0.2098
28601W        W44735   1.241   8.319   2.411 -0.0234  0.1832  0.2266
28602W        W44736  13.261  14.742  16.020 -0.2437  0.1072 -0.1178
28603W        W44737  17.958   9.572   3.757  0.0140 -0.0092 -0.0359
28604W        W44738   2.666  16.356  13.911  0.4149 -0.0560  0.2801
28605W        W44739   0.103  13.676   0.726  0.2204 -0.2233 -0.2768
28606W        W44740   1.965  17.333  14.871 -0.3790  0.3643  0.0765
28607W        W44741  11.005   5.714  11.690 -0.1327  0.0643  0.0371
28608W        W44742   0.992  10.430   0.365 -0.0197  0.1997 -0.0536
28609W        W44743   7.250  14.060   1.037  0.0842 -0.1523 -0.1145
28610W        W44744  13.879  12.728   4.052 -0.0579 -0.0640  0.1381
28611W        W44745   0.511   1.555   2.422  0.0174 -0.3357  0.0693
28612W        W44746  13.146  12.913   3.701 -0.0382  0.1941 -0.1603
28613W        W44747  15.316   8.497   0.663  0.1270  0.1405  0.0901
28614W        W44748  16.325  16.270  14.769 -0.1375  0.0894  0.1884
28615W        W44749   9.254  12.563  12.113 -0.0418 -0.2207  0.2141
28616W        W44750  15.315  12.934  13.628  0.1161 -0.1120  0.0649
28617W        W44751   8.716  16.066   5.205  0.2738  0.1532  0.0003
28618W        W44752   1.134  14.455   0.463 -0.0138 -0.1077 -0.1306
28619W        W44753  16.358   2.753   4.876 -0.1249  0.1408 -0.0828
28620W        W44754   0.269   6.245  12.973 -0.1825 -0.0235 -0.2624
28621W        W44755   3.318  13.814   5.708  0.0282 -0.0692 -0.0413
28622W        W44756  11.932  12.478  15.179  0.2833  0.0447  0.3655
28623W        W44757  16.471  14.572  15.183  0.0768  0.4019  0.0693
28624W        W44758  14.836  16.198  12.212  0.0471 -0.0028  0.4320
28625W        W44759  16.112  12.816  15.282  0.1717  0.1639 -0.1938
28626W        W44760  15.065  10.061  15.162  0.0537 -0.4313  0.3568
28627W        W44761  14.035   3.798  11.488  0.0848 -0.2259  0.0901
28628W        W44762  12.847   9.273  11.580 -0.0241 -0.3993  0.2385
28629W        W44763   0.341  17.601  15.603  0.0670 -0.4203 -0.0180
28630W        W44764  14.809  11.733   1.427  0.1183 -0.0361  0.0761
28631W        W44765  14.360  17.449   3.903 -0.0275 -0.0582 -0.0770
28632W        W44766  11.835  14.994   1.667 -0.2288 -0.0757 -0.1574
28633W        W44767  11.085   5.402   3.346 -0.2561 -0.0321  0.1618
28634W        W44768   4.846   1.056   1.020 -0.0769  0.4221  0.0295
28635W        W44769   1.824  13.968  14.018  0.2231  0.1495 -0.1994
28636W        W44770  11.406  12.035   3.517 -0.4358  0.2754 -0.3343
28637W        W44771  11.237  10.430   5.816 -0.0166 -0.0067  0.1054
28638W        W44772   9.714   9.980   2.703  0.1143  0.1433  0.4641
28639W        W44773  10.711   8.464  11.126  0.0474 -0.1274  0.3064
28640W        W44774   8.016   1.120   4.091 -0.0735  0.1661 -0.0500
28641W        W44775   8.053   4.466  11.517  0.0665 -0.1404  0.0061
28642W        W44776  12.984   5.560   2.606  0.1406  0.2632  0.0326
28643W        W44777   3.554  15.864   4.519 -0.0075 -0.0080  0.0669
28644W        W44778   6.564   5.443   4.725 -0.1324 -0.2532  0.1210
28645W        W44779  13.416   9.459  16.022 -0.2087 -0.3500  0.1922
28646W        W44780  10.148   4.748   0.500  0.0248  0.1932 -0.1441
28647W        W44781  10.322  13.076   0.105  0.2703 -0.1867 -0.0689
28648W        W44782   7.738  14.302   1.371 -0.3682  0.1032 -0.1155
28649W        W44783   0.006  10.733   1.504 -0.3423  0.0080 -0.1566
28650W        W44784   6.579  16.204   5.112  0.0603 -0.1359  0.2436
28651W        W44785   9.328  16.225  13.316 -0.1123  0.0125  0.2644
28652W        W44786  10.061   2.465  14.224  0.1449 -0.1761 -0.0918
28653W        W44787  18.023   9.455   0.623 -0.1063  0.0124  0.0348
28654W        W44788   3.183  11.873   3.177  0.3991 -0.0483 -0.0736
28655W        W44789   8.537   6.877  15.607  0.0850 -0.0868 -0.0158
28656W        W44790  16.655   7.228  13.612  0.1008  0.0006  0.0519
28657W        W44791  12.816   0.445   3.674  0.0334 -0.1201 -0.0396
28658W        W44792   4.777   2.005   2.890  0.1160 -0.0986  0.0636
28659W        W44793   9.742  14.361  13.326  0.2852  0.0021  0.0170
28660W        W44794   1.518  10.983  15.838  0.1590  0.2695  0.2102
28661W        W44795  15.212   7.246   1.537  0.0803  0.0589  0.0082
28662W        W44796   7.484   0.838  13.843 -0.1826  0.0805 -0.0369
28663W        W44797   2.979   8.662   2.245 -0.1821  0.0898 -0.1311
28664W        W44798   0.832  11.955   4.197  0.0627  0.0503  0.0494
28665W        W44799   3.341   5.799   1.282  0.1093 -0.1274  0.2494
28666W        W44800   0.049   4.760   3.032  0.0006 -0.1085  0.0706
28667W        W44801  17.547  17.926   6.250 -0.2675  0.0774 -0.2313
28668W        W44802  11.572  16.977  15.116  0.0449  0.0601 -0.0158
28669W        W44803   5.158  17.331   4.244 -0.2292  0.2101  0.4381
28670W        W44804   5.687  13.716   4.376 -0.2583 -0.1129 -0.2849
28671W        W44805   8.139  16.822   0.063  0.1217  0.2066  0.0291
28672W        W44806  10.481  11.199  12.873 -0.0411  0.4885  0.0786
28673W        W44807  15.419   2.577   5.740 -0.0918 -0.2427  0.0276
28674W        W44808  15.142   4.305  13.939 -0.0026 -0.0380  0.0542
28675W        W44809   1.945  17.511  11.359  0.3734 -0.4854  0.1068
28676W        W44810  18.047  17.344  13.339 -0.1531  0.1818  0.0927
28677W        W44811  16.178   3.291   1.050  0.0455 -0.1025 -0.0222
28678W        W44812   3.764  15.419   3.338  0.1629 -0.4013  0.0661
28679W        W44813   4.911   4.291  13.906 -0.1231  0.0187 -0.0148
28680W        W44814   4.231   3.971   3.221 -0.0253  0.0614  0.2024
28681W        W44815  12.006   0.754   2.568  0.1507  0.1745 -0.0975
28682W        W44816  11.438   6.509   0.035 -0.0586  0.0594 -0.0724
28683W        W44817   6.343   2.750  14.493  0.0765 -0.2582 -0.3744
28684W        W44818   1.302   6.862   0.706 -0.1181 -0.1099  0.1194
28685W        W44819  13.011  16.585   6.422  0.2249 -0.2552 -0.3110
28686W        W44820  14.235   9.276  16.222  0.0715 -0.0010 -0.2071
28687W        W44821  16.841   8.301   2.843 -0.1845 -0.1039  0.4196
28688W        W44822   8.234  11.335   5.012  0.2376 -0.4598 -0.0249
28689W        W44823   4.657  16.991   1.808 -0.0465 -0.1855  0.0548
28690W        W44824   3.972   0.515  14.172  0.0536  0.1829 -0.2597
28691W        W44825   0.694   4.977   5.309  0.1404  0.1574  0.0311
28692W        W44826  14.729  13.071   1.457  0.2595 -0.0141  0.1290
28693W        W44827   8.113   4.835   0.743 -0.1193  0.0223  0.4657
28694W        W44828  16.872   6.155   4.167  0.0312 -0.0381  0.1777
28695W        W44829   1.635  12.448   2.497 -0.0670 -0.5557 -0.0854
28696W        W44830  12.948  14.770   2.240 -0.2418  0.0098 -0.2159
28697W        W44831   6.922   3.105   5.224  0.0918  0.3417  0.0972
28698W        W44832   2.110  13.029   0.323  0.0671  0.0731 -0.1868
28699W        W44833  12.184   0.299  13.765  0.0910  0.2100  0.3023
28700W        W44834  11.309  12.736  13.124  0.2606 -0.3487  0.1733
28701W        W44835  15.126   6.329   2.095  0.0667  0.1844  0.0792
28702W        W44836  14.000   4.940  11.638  0.0805  0.1872 -0.0292
28703W        W44837  11.590  14.496   2.545 -0.0413 -0.1674 -0.1704
28704W        W44838   5.718   2.969   3.070  0.0716 -0.0347 -0.1131
28705W        W44839  11.224   1.262   0.132 -0.0062  0.0791  0.1611
28706W        W44840   2.971  11.903   5.048 -0.1887 -0.1706  0.2058
28707W        W44841  11.396   1.695  13.245 -0.2961 -0.0234  0.5361
28708W        W44842  12.547  14.344  13.001  0.0387 -0.0697  0.2128
28709W        W44843   2.208  17.297  16.147 -0.0178  0.1523 -0.1881
28710W        W44844  17.255  17.378  12.071  0.3728 -0.0123 -0.1872
28711W        W44845   5.373   2.891  12.235  0.3892  0.2783 -0.1519
28712W        W44846  12.164  11.446   3.438  0.1499  0.1575 -0.0026
28713W        W44847   0.528   9.460   4.415 -0.1933  0.0518  0.1209
28714W        W44848   7.058  16.083   5.383  0.0618  0.0416 -0.0378
28715W        W44849   0.089   4.333   3.764  0.0552  0.0563 -0.3456
28716W        W44850   6.224  14.036   3.105  0.1513 -0.0966  0.1853
28717W        W44851   7.808   7.187   3.336 -0.0473  0.0175 -0.1066
28718W        W44852  10.702  14.421  14.136 -0.2024  0.1407 -0.1481
28719W        W44853   4.287   0.227  16.139  0.1985 -0.1560  0.0637
28720W        W44854   9.369  14.991   2.032  0.1570  0.2066  0.0400
28721W        W44855   8.897  17.686  16.045  0.0081  0.0750 -0.0287
28722W        W44856   7.261  14.369  14.990  0.3006  0.1112  0.0638
28723W        W44857  13.249  11.402  13.461 -0.0773 -0.0496 -0.0954
28724W        W44858   6.071   1.038   0.264 -0.0792 -0.0327  0.1211
28725W        W44859   9.968  10.680  15.341 -0.3423  0.0673 -0.0222
28726W        W44860  17.851   9.263  13.016 -0.0894 -0.2639  0.0352
28727W        W44861  11.822   8.807   5.460 -0.1021  0.1700  0.0429
28728W        W44862   9.967  16.764   0.788  0.0028  0.0444 -0.0936
28729W        W44863  13.990   7.734   4.037  0.2035 -0.1017 -0.1556
28730W        W44864   2.169   0.577   5.204 -0.0861 -0.0915 -0.1902
28731W        W44865   4.550   0.356   3.708 -0.0905  0.2455  0.2031
28732W        W44866  14.297   3.275   2.606  0.0593 -0.0643  0.3000
28733W        W44867   9.140  17.545   0.522 -0.4835 -0.1407 -0.0548
28734W        W44868   8.526   4.455   0.023  0.0671 -0.1219 -0.1575
28735W        W44869   3.775  15.478   1.683 -0.2656 -0.0874 -0.2104
28736W        W44870  12.155   1.499  12.176  0.3027 -0.1243 -0.0576
28737W        W44871   2.792  10.404  12.451  0.0743  0.0112  0.0530
28738W        W44872   7.210   5.636  16.376 -0.0628 -0.0284 -0.0188
28739W        W44873   6.268   4.448  15.793 -0.1740  0.0254  0.1630
28740W        W44874  14.794   0.290   1.436  0.0714 -0.0818 -0.0744
28741W        W44875   8.779  15.250   0.885  0.1638 -0.0656  0.2845
28742W        W44876  14.719  13.883  10.420 -0.0519 -0.1640  0.1472
28743W        W44877   4.643   4.868  16.347 -0.1223  0.0273 -0.0443
28744W        W44878   1.467  13.310   3.284  0.1774 -0.4224  0.4547
28745W        W44879   5.484   3.605  12.886 -0.1397 -0.0094 -0.1101
28746W        W44880  10.461   4.113   1.031 -0.0696 -0.1125  0.0943
28747W        W44881   5.198   0.879  13.543 -0.1001 -0.2673  0.1098
28748W        W44882  12.935   9.824   2.752  0.2366  0.1814 -0.1825
28749W        W44883  17.440   5.821  15.839  0.1962 -0.0148  0.1480
28750W        W44884   3.582  12.340  14.464  0.2905 -0.2462 -0.0665
28751W        W44885   5.652   1.287   1.685  0.1448  0.3080 -0.0099
28752W        W44886   8.042  13.675   5.051  0.0527 -0.3558  0.0589
28753W        W44887  11.413   9.140   5.324  0.1536 -0.3005 -0.1401
28754W        W44888   4.014   8.331   4.203  0.1217  0.2276  0.1457
28755W        W44889  10.797   8.830   5.052 -0.1657 -0.1028  0.0986
28756W        W44890   0.968  16.000  11.548 -0.3537  0.0962 -0.3128
28757W        W44891  11.037   9.561  13.396 -0.0315 -0.0201 -0.4710
28758W        W44892   0.188   2.605  12.835 -0.2201 -0.1281 -0.0987
28759W        W44893   7.869   2.677  12.770  0.0034  0.0124 -0.3902
28760W        W44894   1.573   6.497   4.142  0.1301 -0.2200  0.2870
28761W        W44895   0.870   0.740  14.553  0.0888  0.2222  0.3089
28762W        W44896   6.828   3.895   3.952 -0.0987  0.0861 -0.1508
28763W        W44897   6.202  10.935  11.213  0.1160  0.2615 -0.1416
28764W        W44898  15.929  15.739   1.588 -0.1779  0.0329  0.1223
28765W        W44899  10.162   2.206  10.453 -0.0694 -0.0508  0.0241
28766W        W44900  13.861   5.380  16.279 -0.0184 -0.2247  0.0579
28767W        W44901   9.008   9.262   5.265  0.0802 -0.2156 -0.1049
28768W        W44902  11.971   5.283  11.554  0.2885 -0.2724  0.1543
28769W        W44903  14.539  11.490   0.990 -0.0865 -0.1343  0.0476
28770W        W44904  11.188  11.534  12.902  0.2460  0.2825  0.0775
28771W        W44905  13.657   9.104  14.284 -0.2061  0.0641  0.1743
28772W        W44906  15.884   5.507   1.346 -0.2796 -0.1001 -0.3427
28773W        W44907   1.850  16.115   2.994  0.1244  0.2367 -0.0200
28774W        W44908   4.267   7.545  15.985 -0.1795  0.1614  0.1809
28775W        W44909  15.787  17.004  10.461  0.0737  0.1926 -0.1940
28776W        W44910   4.623   7.982  15.832  0.1785 -0.2709  0.0877
28777W        W44911  14.586   8.306  15.204 -0.0278 -0.1823 -0.1065
28778W        W44912   4.480  16.586   2.173  0.0792 -0.3144 -0.0559
28779W        W44913   3.970   2.093  14.327  0.0975  0.2035 -0.0098
28780W        W44914   5.271  11.472   5.878 -0.0261 -0.2356 -0.0225
28781W        W44915   1.778  13.011   3.043 -0.1801  0.1922 -0.1617
28782W        W44916   3.483   7.012  15.844 -0.0335 -0.2593 -0.1672
28783W        W44917  13.755   2.149   5.282 -0.0041 -0.1287 -0.1024
28784W        W44918   5.809  11.759   5.156 -0.3746 -0.2404 -0.1689
28785W        W44919  17.879   1.605   4.985 -0.1051  0.1917 -0.3247
28786W        W44920   8.265  11.538   4.291  0.0420 -0.0571 -0.0810
28787W        W44921  16.659   5.148   3.395  0.0294 -0.1145  0.0807
28788W        W44922   2.016   4.284  14.798  0.5386  0.4077  0.2747
28789W        W44923  17.302  11.410   0.590 -0.1535  0.1323  0.0590
28790W        W44924   9.059   9.505   1.250  0.2964  0.0494 -0.1272
28791W        W44925   9.759   5.789   3.569 -0.1513 -0.1787 -0.2150
28792W        W44926   9.692  11.497   2.186  0.0410  0.2200 -0.3112
28793W        W44927  18.035   2.920  13.212 -0.2237  0.0018 -0.3643
28794W        W44928   8.216  10.506  14.725  0.1709 -0.0949  0.1861
28795W        W44929  10.501  14.628   5.650  0.0036 -0.1271 -0.1970
28796W        W44930   8.307   7.091   3.193 -0.0290  0.0307  0.0440
28797W        W44931   3.556  16.642   4.141  0.5037 -0.0181  0.0556
28798W        W44932   1.412   5.393  12.776  0.0841  0.2548  0.0124
28799W        W44933  12.825  15.987   2.804  0.1004 -0.4167  0.0706
28800W        W44934   5.019  10.438  13.233  0.0249  0.0959 -0.1885
28801W        W44935   5.633   7.016  12.136 -0.0469 -0.2313  0.1911
28802W        W44936   6.163  13.073   5.719  0.4890  0.0619 -0.3174
28803W        W44937   6.874  12.279   4.190  0.0971 -0.0875 -0.1197
28804W        W44938   4.494   9.047  11.237 -0.0669 -0.1214  0.0086
28805W        W44939   3.107   4.561  15.495 -0.1570 -0.4321  0.4006
28806W        W44940   5.588  15.529   0.743  0.1081  0.4979  0.1127
28807W        W44941  14.403   1.836   2.849  0.1855  0.1636 -0.2129
28808W        W44942   5.779  12.414  16.186 -0.2077 -0.1802 -0.2810
28809W        W44943   3.755  15.805   1.304 -0.1954 -0.0413  0.0602
28810W        W44944  10.670  17.138  15.352  0.1733 -0.0447 -0.1310
28811W        W44945   2.582  14.476   3.720 -0.0182 -0.0977 -0.2649
28812W        W44946  12.439  13.159   0.235  0.2410  0.2107 -0.5395
28813W        W44947  11.976  17.180  13.431 -0.2583 -0.0401  0.1567
28814W        W44948  10.085  15.358  11.736  0.0508 -0.0475 -0.0342
28815W        W44949   0.416  10.977   2.858  0.3644  0.0269  0.3680
28816W        W44950  15.966   9.022   3.214  0.0862  0.4263  0.0283
28817W        W44951   0.815  17.549  13.158 -0.2029 -0.1195  0.0364
28818W        W44952  17.036  13.590   4.843 -0.0808  0.0955  0.0879
28819W        W44953   4.971  10.351   4.894 -0.0868  0.2946  0.0143
28820W        W44954  11.267  16.529   1.921 -0.2550 -0.0198  0.2791
28821W        W44955   8.048   5.045  14.332  0.0711  0.0645 -0.0441
28822W        W44956   4.480   8.371   1.554 -0.1126  0.1218  0.0674
28823W        W44957   9.772   4.046   2.708  0.0285 -0.4713 -0.4382
28824W        W44958   5.834   3.755  15.296 -0.1601  0.0384  0.0542
28825W        W44959   9.623   1.681  15.645 -0.1967 -0.1464  0.0276
28826W        W44960   5.485   5.833   4.611  0.1949 -0.1967 -0.2486
28827W        W44961  16.632  15.469   2.924  0.1163  0.0991 -0.0346
28828W        W44962  13.534   1.411  14.138 -0.1312  0.3542  0.2755
28829W        W44963   5.508   3.291   4.908 -0.0135  0.1231 -0.3354
28830W        W44964  16.855   8.603   0.404  0.1584 -0.0809  0.1136
28831W        W44965   3.201  11.130   2.673  0.0510 -0.1462  0.0961
28832W        W44966  15.438  14.530   2.933 -0.1799 -0.0606  0.3988
28833W        W44967  10.869   1.504   2.926 -0.0196  0.0089  0.1115
28834W        W44968  11.226   8.610  11.979 -0.3450 -0.2766 -0.0580
28835W        W44969  10.204   6.150  10.911  0.0929 -0.1432 -0.0005
28836W        W44970  17.774  11.268  13.325  0.0927 -0.3805 -0.2874
28837W        W44971   9.777   3.826  11.834 -0.0503 -0.0038  0.0683
28838W        W44972   4.092  16.756   4.259 -0.0569 -0.1731  0.0110
28839W        W44973   8.778  15.528   5.238  0.0693  0.0185 -0.0614
28840W        W44974  12.155   3.165   3.857 -0.1940 -0.2624  0.2868
28841W        W44975  10.658  16.193  11.503 -0.1468  0.0516 -0.2417
28842W        W44976   5.146   5.297   2.260 -0.2667  0.0031 -0.0353
28843W        W44977   1.625   1.675   3.833  0.1831 -0.0432 -0.0469
28844W        W44978   7.431  13.506  13.158  0.2970  0.2021 -0.3310
28845W        W44979   9.209  15.199  14.772  0.0356  0.0627 -0.0308
28846W        W44980   1.007  13.107  15.835  0.1884 -0.2080  0.0348
28847W        W44981  12.690  11.722   6.048  0.0786  0.0684  0.2492
28848W        W44982  12.807  11.405  15.778 -0.0050 -0.0399 -0.0409
28849W        W44983   3.294  16.450  12.382 -0.0598 -0.3407 -0.2005
28850W        W44984   4.158  17.537  12.157  0.2712 -0.2784  0.1644
28851W        W44985   9.216   1.977   5.021  0.0010 -0.0856 -0.0326
28852W        W44986   4.169   0.586  13.708 -0.2240  0.3346  0.4133
28853W        W44987   5.559  15.134  13.115 -0.0793  0.1661 -0.0028
28854W        W44988   4.430  12.137   3.485 -0.2791  0.1520  0.1550
28855W        W44989   4.549   8.007  13.916  0.0015 -0.1724  0.2515
28856W        W44990  14.914  10.854  14.834 -0.1216 -0.1293  0.3110
28857W        W44991   1.644  15.680   5.616 -0.1928  0.0344 -0.3000
28858W        W44992  15.928   8.320   1.560 -0.1275 -0.0639  0.2485
28859W        W44993   9.393   9.676   2.986 -0.0828  0.0409  0.2134
28860W        W44994   1.184  10.190  14.707  0.0495 -0.0336 -0.1645
28861W        W44995   6.523   0.197   0.355  0.2935 -0.1939  0.1760
28862W        W44996  15.105   9.797  11.546  0.0618  0.2028  0.0192
28863W        W44997  15.957  17.082  16.062 -0.1891 -0.1022  0.2862
28864W        W44998   6.591   6.916  13.572 -0.0039 -0.2573  0.1777
28865W        W44999   2.601   1.770  14.738 -0.0424  0.1503  0.1521
28866W        W45000   8.256  17.678  15.399  0.0615 -0.0743  0.0166
28867W        W45001  17.188   2.629   3.095 -0.0006  0.0261 -0.1575
28868W        W45002  15.741   1.059  15.277  0.0436  0.2209  0.0101
28869W        W45003   9.871   8.083  12.160 -0.1912 -0.0586 -0.2500
28870W        W45004  11.695   2.831  16.319  0.0583  0.2941  0.1100
28871W        W45005  15.128   0.369  11.615  0.4641 -0.1772 -0.0891
28872W        W45006   4.671  13.195   1.890 -0.1830 -0.1406  0.0007
28873W        W45007  11.513  15.840  13.298  0.2387  0.1478  0.4352
28874W        W45008  12.158   2.807  12.497  0.0547  0.0792  0.0047
28875W        W45009   1.720   3.615  13.687 -0.0267  0.1009 -0.0061
28876W        W45010  16.063   7.463   1.414 -0.0318 -0.0032 -0.0107
28877W        W45011  13.857  14.504   1.656 -0.2528  0.2928 -0.0083
28878W        W45012   2.217   9.949   1.966  0.1017 -0.0964 -0.0200
28879W        W45013   2.269  13.723  13.723 -0.2085  0.1125 -0.0953
28880W        W45014  16.602   0.960   3.313  0.0174 -0.3062  0.0609
28881W        W45015  15.800   3.597   0.350 -0.0687 -0.0016  0.0849
28882W        W45016   6.239  10.787   1.997 -0.0563 -0.5382  0.1117
28883W        W45017  11.979   4.011  13.071 -0.1017  0.2711  0.0749
28884W        W45018   8.923  18.036   0.491 -0.2630  0.0457 -0.2988
28885W        W45019   7.249   6.772   3.908 -0.1901  0.0354  0.2865
28886W        W45020  13.794   8.107  13.919  0.0206  0.5392 -0.0002
28887W        W45021  13.410  16.542   0.561  0.0869  0.1412  0.2919
28888W        W45022  11.319   9.984  11.255 -0.4038 -0.0186  0.1802
28889W        W45023   7.861  12.250   1.057 -0.0729 -0.1497  0.2534
28890W        W45024  12.572  11.104  13.722  0.0002 -0.0088  0.2576
28891W        W45025   5.035   6.305   0.238  0.0209 -0.2746 -0.1619
28892W        W45026   2.179   0.690  16.270 -0.0305 -0.0501 -0.0822
28893W        W45027   5.821   2.505   1.417 -0.1702 -0.0585 -0.0850
28894W        W45028  12.676  16.508  12.021  0.0170 -0.1341  0.1811
28895W        W45029   3.064  14.144   3.694  0.0314 -0.2892 -0.0900
28896W        W45030  11.655  11.716  11.572  0.1822  0.2806 -0.0944
28897W        W45031   1.661  10.872   6.180  0.0627 -0.2383  0.2580
28898W        W45032  10.839   4.958  13.599  0.2787 -0.2937  0.1941
28899W        W45033   5.315  16.405   2.723 -0.0250 -0.1399 -0.0542
28900W        W45034   9.031   8.126   2.493 -0.0570  0.0439  0.0755
28901W        W45035   2.873  11.237   1.703  0.0042  0.0206  0.0594
28902W        W45036   6.049  16.113  13.095 -0.1268 -0.2370  0.1416
28903W        W45037   5.032  15.543  15.983  0.1457  0.0815 -0.0537
28904W        W45038  17.301  17.194   1.131  0.1558  0.0036 -0.0816
28905W        W45039   9.347   2.990  14.669  0.0570  0.1482  0.0061
28906W        W45040   8.227  14.040  12.380 -0.1531 -0.1665  0.1765
28907W        W45041   2.518  15.541   2.020  0.4577  0.0620 -0.0650
28908W        W45042  10.044   6.776   1.084 -0.3180  0.0363 -0.1882
28909W        W45043  14.173   3.707  14.355  0.0964 -0.0743 -0.0256
28910W        W45044  17.762  11.846   3.349  0.2921 -0.0966  0.1341
28911W        W45045  12.870  17.691  10.527  0.0508  0.0441 -0.1565
28912W        W45046  10.591  11.489   5.280  0.0336  0.2568  0.1472
28913W        W45047   3.322  14.799  11.665 -0.0151  0.0189 -0.0653
28914W        W45048  14.693   4.646  15.790 -0.1569  0.1971 -0.3229
28915W        W45049  14.341   8.172   3.815  0.1285  0.0969  0.0402
28916W        W45050   9.021   0.644  15.163  0.2808 -0.1512  0.0720
28917W        W45051  16.602  12.959   3.730 -0.0939 -0.0479 -0.0336
28918W        W45052   5.964   5.185   0.360 -0.2256  0.1285 -0.0067
28919W        W45053   4.127   2.093   1.164  0.0327  0.0613  0.1960
28920W        W45054   9.042  15.662  15.012  0.0282  0.0482  0.0618
28921W        W45055   9.407  10.539   6.287 -0.1621 -0.3527 -0.0828
28922W        W45056  10.025   1.959  15.930  0.0879 -0.0732 -0.0813
28923W        W45057  10.779   4.108   1.423  0.0396 -0.3429 -0.2325
28924W        W45058   4.939  12.267   3.560  0.0559 -0.1713 -0.0262
28925W        W45059   7.006   3.548   5.101 -0.1316  0.0714  0.0517
28926W        W45060  12.816   5.351   4.515 -0.2116  0.3883  0.2091
28927W        W45061  14.528   7.312  13.001  0.0920 -0.0523  0.0163
28928W        W45062   8.969  14.774  14.899 -0.0969 -0.1847  0.1925
28929W        W45063  13.027  17.613  15.878 -0.0638  0.0761  0.0938
28930W        W45064  11.554  17.981  16.151 -0.0594  0.1685  0.0299
28931W        W45065   2.416  14.699   5.258  0.1561  0.0793  0.0627
28932W        W45066   8.430  15.480   3.911 -0.2223  0.0189 -0.1788
28933W        W45067  12.621   1.211   5.000 -0.1609 -0.0423 -0.1709
28934W        W45068  13.489  10.172  15.455 -0.0313 -0.1800  0.2016
28935W        W45069  13.523  15.485  12.467 -0.0211  0.3434  0.3811
28936W        W45070   4.842  10.511  11.260 -0.1195 -0.0046  0.0071
28937W        W45071  16.038   3.431  10.833  0.4591 -0.2946 -0.1652
28938W        W45072   0.078   3.799   3.921 -0.1738 -0.2706  0.0046
28939W        W45073  14.502  15.454   1.408  0.1573  0.0816 -0.2062
28940W        W45074   3.333  16.431   5.382 -0.2661 -0.0946  0.1549
28941W        W45075   1.595   4.605   5.165  0.0400 -0.3717 -0.0921
28942W        W45076  13.201   9.288  12.869 -0.3163  0.1417 -0.0399
28943W        W45077   8.656   9.376  12.579  0.1361  0.1418 -0.1712
28944W        W45078  11.012   7.764   0.786  0.0434  0.0989 -0.1519
28945W        W45079   5.563   8.834   3.728  0.1361  0.1254 -0.0082
28946W        W45080   5.841   1.449   2.357 -0.2018  0.0945 -0.0592
28947W        W45081  11.875   7.865   1.321  0.2907 -0.1471  0.0817
28948W        W45082   1.228  10.717   2.723  0.0758 -0.0695  0.2368
28949W        W45083   3.747  12.452  16.254 -0.1233 -0.2269 -0.2672
28950W        W45084   4.321   9.117   6.068  0.0324 -0.1158  0.2504
28951W        W45085  12.780   0.342  16.202 -0.2182  0.0429 -0.0325
28952W        W45086  13.694  16.493  14.889  0.2914 -0.3048  0.0942
28953W        W45087   6.841  16.363   4.623  0.1784  0.1036 -0.0720
28954W        W45088  11.582   1.057  16.178 -0.2112  0.0868  0.0681
28955W        W45089   6.335   0.942   5.247 -0.0600  0.1589 -0.0101
28956W        W45090  15.003  14.571   0.151 -0.0643 -0.1254 -0.2225
28957W        W45091   0.489   3.467  11.246 -0.1837  0.2303  0.0080
28958W        W45092   4.978   1.925   1.872  0.0564  0.0067  0.0063
28959W        W45093   2.567   5.044  16.385 -0.1364  0.0396 -0.0161
28960W        W45094   0.078   2.328   3.366 -0.1932 -0.1665  0.1251
28961W        W45095  12.366   7.185   4.532  0.1093  0.2315  0.0427
28962W        W45096  12.264   9.301   0.240  0.0459 -0.0336  0.0420
28963W        W45097   2.301   7.735  13.183 -0.0635 -0.0671 -0.3999
28964W        W45098  12.503  12.754  13.364  0.2660 -0.1086  0.1211
28965W        W45099   3.889   4.925  15.038 -0.2695 -0.0792 -0.1889
28966W        W45100   8.962  14.267  14.659  0.0512  0.0800 -0.1271
28967W        W45101  13.487   0.296  14.909 -0.2050  0.2915  0.0544
28968W        W45102  14.037   9.133  12.380  0.2957  0.0880 -0.0012
28969W        W45103   9.399  16.744  14.552 -0.0935  0.0805  0.0366
28970W        W45104  15.047   8.487  12.988  0.1288 -0.0303  0.3461
28971W        W45105   7.001  15.228  12.795 -0.2684 -0.1368  0.0058
28972W        W45106  14.722   9.741   2.485 -0.1157 -0.3749 -0.2089
28973W        W45107   8.863  13.879  16.049 -0.0354  0.0500 -0.2910
28974W        W45108  10.782  13.059   5.195 -0.4256 -0.2678  0.0148
28975W        W45109   5.590  10.846  15.673 -0.1841 -0.1573 -0.1140
28976W        W45110   6.053  15.875  13.923  0.0069  0.4048 -0.0414
28977W        W45111   6.326   4.532  16.324 -0.0910  0.1044 -0.2172
28978W        W45112  15.448   9.931  15.983 -0.1908  0.1403 -0.0493
28979W        W45113   3.537  18.067   0.738  0.0282 -0.2841  0.1030
28980W        W45114  17.348   8.055   4.736 -0.2865  0.0865  0.0863
28981W        W45115   6.146   8.105  11.343 -0.1515  0.1212 -0.0976
28982W        W45116   4.330  12.316  11.994  0.1385  0.1020  0.1205
28983W        W45117   4.660  16.101  11.617  0.1554  0.1133  0.1074
28984W        W45118   2.970   2.503   0.674  0.0006  0.0172 -0.0379
28985W        W45119  14.640   7.183   2.676  0.1326  0.0793  0.1066
28986W        W45120   2.051  16.071  10.762  0.2349 -0.0005  0.2848
28987W        W45121  16.094  10.648   0.738  0.0510  0.2599 -0.0372
28988W        W45122  13.508  11.687   1.838  0.1633  0.0357 -0.1291
28989W        W45123  13.786  10.881   0.370 -0.0031  0.1767 -0.1556
28990W        W45124  15.856  14.232   1.801 -0.0602  0.0641  0.1851
28991W        W45125   3.624  14.827   4.731  0.2114  0.2370  0.0546
28992W        W45126  11.770   8.240   0.498  0.0396  0.0086  0.1148
28993W        W45127  16.002   0.176  15.380  0.0279 -0.2122 -0.0383
28994W        W45128  11.842   7.465   3.137 -0.0381 -0.0581  0.1103
28995W        W45129  10.826   1.666   4.042 -0.3085 -0.2528 -0.0829
28996W        W45130   7.583   6.699  11.871  0.1415 -0.0714  0.0472
28997W        W45131  15.150   4.331  12.296 -0.0261 -0.1133 -0.1902
28998W        W45132  17.694   0.971  15.480 -0.2503  0.1686 -0.2908
28999W        W45133  16.570  11.649  13.213  0.1458  0.0398  0.3386
29000W        W45134  15.905   2.507   1.219 -0.0397 -0.1501  0.3274
29001W        W45135  15.889  17.124   2.023  0.0825  0.0171 -0.3280
29002W        W45136  14.470   4.654  14.063  0.1957  0.0572  0.0262
29003W        W45137   3.716   3.628  15.045  0.0943  0.1969  0.1708
29004W        W45138  14.639   5.226   4.954 -0.2933  0.1008 -0.1338
29005W        W45139   8.327   2.149  14.779 -0.0230  0.1105 -0.0137
29006W        W45140  17.214  11.141   4.622  0.1988 -0.0872  0.1690
29007W        W45141  12.483  16.419   4.065 -0.0369  0.1250  0.0808
29008W        W45142   3.576   0.302   3.594  0.2440  0.3758 -0.1036
29009W        W45143  13.700   8.138  12.469  0.2215 -0.4385  0.1439
29010W        W45144   7.275   6.992   1.084 -0.2248 -0.2291 -0.3505
29011W        W45145   5.511  17.680  13.626  0.2218 -0.0074 -0.0567
29012W        W45146   2.149   9.433   4.534  0.0117 -0.3122  0.0643
29013W        W45147  12.281   5.283  15.180  0.0674 -0.0886  0.1129
29014W        W45148  14.498   1.584  11.165  0.2306  0.1849 -0.2449
29015W        W45149  12.273  17.311   0.992 -0.3191  0.0185 -0.1512
29016W        W45150  11.441  15.932  14.809 -0.0799 -0.2410  0.1468
29017W        W45151   8.713  14.388   3.907 -0.0899 -0.2998  0.1217
29018W        W45152  10.258   0.455  12.147  0.0474  0.0122  0.0714
29019W        W45153   0.181   5.371   5.966 -0.1236 -0.2278  0.0159
29020W        W45154   8.241  14.829   5.503 -0.1620 -0.0186  0.2107
29021W        W45155   3.586  15.782  14.630 -0.1908  0.1102 -0.2463
29022W        W45156  16.736   8.271   5.557 -0.0425  0.0044  0.0926
29023W        W45157   9.220  18.072  11.595  0.1840  0.0592 -0.0535
29024W        W45158  14.547  10.153  10.963 -0.1217 -0.1985 -0.2581
29025W        W45159  10.311  13.131  12.812 -0.0730 -0.0129 -0.2748
29026W        W45160  13.241   2.116  15.383 -0.0986 -0.1730 -0.1920
29027W        W45161  14.533  10.291   3.734  0.2026  0.0756  0.3424
29028W        W45162   6.831   5.632  13.998 -0.2870 -0.4330 -0.2206
29029W        W45163  13.451   7.722   5.603 -0.1080  0.1276 -0.1899
29030W        W45164  14.676   8.908  15.432 -0.2163 -0.1294 -0.1630
29031W        W45165  15.280   8.336   2.256  0.0523  0.2304  0.0505
29032W        W45166   5.263  11.591  11.937 -0.0673 -0.1346 -0.0767
29033W        W45167   2.588  10.807  13.301 -0.2326 -0.0151 -0.0668
29034W        W45168   5.148   6.386  15.834 -0.2543 -0.0291 -0.0227
29035W        W45169   0.337  11.497  16.215 -0.3450 -0.2291  0.3012
29036W        W45170  14.175  16.118   2.371  0.0679 -0.1695 -0.0738
29037W        W45171   8.465  16.624  15.021  0.2461 -0.0637 -0.1873
29038W        W45172   6.608  14.725  14.613  0.1589  0.1241 -0.0467
29039W        W45173   7.396   3.093   5.064  0.0561 -0.3818  0.3188
29040W        W45174   4.019   0.837   2.486  0.5537  0.1813 -0.2181
29041W        W45175  14.731  13.029  12.498 -0.2387 -0.3882  0.1483
29042W        W45176  18.083  16.611  12.867  0.2379  0.3184 -0.0402
29043W        W45177  16.325  16.663   3.286 -0.2273  0.1867 -0.0382
29044W        W45178   7.891   3.133  16.388  0.0348 -0.1277 -0.0289
29045W        W45179   5.772  13.338  13.115  0.2872  0.2521  0.4000
29046W        W45180   1.304  13.991   2.791  0.2535 -0.0327 -0.3779
29047W        W45181  12.240  11.443   3.913 -0.1303  0.1661  0.2829
29048W        W45182   0.016   4.430  12.193  0.0798 -0.1639  0.2645
29049W        W45183  16.787  16.518  12.270  0.0616 -0.0097 -0.1307
29050W        W45184   1.530  14.848  11.488  0.1985  0.1181  0.0356
29051W        W45185   1.859  11.057   5.746  0.0523 -0.0722 -0.1826
29052W        W45186  16.720  13.496   3.960  0.0695  0.2787 -0.1552
29053W        W45187   8.500   5.781   4.752 -0.1637 -0.1408  0.1010
29054W        W45188   3.007  13.043  15.012  0.0042 -0.0880  0.1048
29055W        W45189  16.887  11.067   1.263  0.0568 -0.1083 -0.0243
29056W        W45190   0.012   5.383   2.252 -0.0974 -0.1658  0.0717
29057W        W45191  12.080   5.502   1.168  0.0202 -0.1668 -0.1656
29058W        W45192  12.391  12.236   2.810  0.3876  0.2255 -0.0435
29059W        W45193  17.455   0.238   5.870  0.0130  0.0943  0.2745
29060W        W45194  16.606   3.997   2.772 -0.1405  0.1454 -0.0402
29061W        W45195   3.779   6.319  12.340 -0.1709  0.3239  0.1451
29062W        W45196  11.394   2.478   3.832  0.2621  0.2367 -0.0295
29063W        W45197   3.724  10.206   2.540 -0.2805  0.2157  0.3036
29064W        W45198  10.805   2.792   5.178 -0.2442 -0.3139  0.0820
29065W        W45199  16.534  11.695  10.331  0.0574 -0.1090  0.3901
29066W        W45200  13.209   0.127   1.868  0.2361 -0.1032  0.1994
29067W        W45201   9.586   3.137  15.617 -0.5379 -0.0092 -0.3881
29068W        W45202   8.354  12.471  11.260  0.2073 -0.0030 -0.1439
29069W        W45203   6.542   3.388  15.598  0.1618  0.0997 -0.2324
29070W        W45204  13.688  15.947  11.233  0.0397 -0.1332 -0.0012
29071W        W45205   5.480  14.275   3.700  0.2479 -0.1432  0.0256
29072W        W45206   0.939   7.811  10.903  0.3362  0.0655  0.0834
29073W        W45207  11.086  16.678  14.273  0.1547 -0.0830  0.2446
29074W        W45208   2.252  17.759   2.038  0.0812 -0.0881 -0.0417
29075W        W45209   6.912   2.353   3.508  0.1387  0.3091 -0.2496
29076W        W45210  11.164   1.335   1.337  0.0769 -0.1106 -0.1807
29077W        W45211   0.879   8.735   3.351  0.3354 -0.1299  0.0825
29078W        W45212   5.926   0.202  12.833 -0.1468 -0.0435  0.3405
29079W        W45213  16.910  13.202  15.286  0.1988 -0.2736 -0.1561
29080W        W45214   6.944   4.641  13.062 -0.1732  0.0080 -0.1233
29081W        W45215   4.272  12.672   1.136  0.1115  0.1815 -0.2181
29082W        W45216   2.880  17.003   4.622  0.0772  0.2851  0.3054
29083W        W45217   0.197   0.029   4.520 -0.2088  0.0688 -0.0158
29084W        W45218   4.038   4.756   5.164 -0.2007 -0.3575 -0.0277
29085W        W45219   0.981  11.737  10.617 -0.2870 -0.3124  0.2654
29086W        W45220  14.744   5.116   1.953 -0.0541  0.0702 -0.2403
29087W        W45221   1.890   3.854  11.090  0.0214 -0.2558 -0.0411
29088W        W45222  16.955   0.708  15.496 -0.2550 -0.0128 -0.2042
29089W        W45223   1.696  17.093   1.722  0.4138  0.4009 -0.3142
29090W        W45224   9.581   2.518  16.116  0.2467 -0.0999  0.0295
29091W        W45225  15.981  12.116   1.411  0.0533  0.2127  0.0413
29092W        W45226   7.929   8.005   5.017 -0.1663 -0.1483  0.0835
29093W        W45227  12.014   5.766   2.449  0.2108  0.1528  0.0282
29094W        W45228  15.063  17.643  11.445 -0.2426 -0.2226  0.0615
29095W        W45229   7.657  11.434   5.689  0.0011  0.0795 -0.0761
29096W        W45230  16.671  10.704  15.414 -0.1236  0.4758 -0.0590
29097W        W45231  16.868  13.503   2.386 -0.2161 -0.0577  0.2114
29098W        W45232  10.649   9.056  11.627 -0.0890  0.1138  0.3407
29099W        W45233   4.661  10.982  12.058 -0.2714 -0.2081  0.0597
29100W        W45234  13.708   8.997   4.844  0.1172  0.2206 -0.1431
29101W        W45235  11.145   7.903   1.372  0.4061  0.2551 -0.2658
29102W        W45236  17.618   7.810   5.131 -0.1632 -0.2257  0.0068
29103W        W45237   8.688   5.684  13.832  0.1062 -0.3735  0.0057
29104W        W45238  15.157   4.804  11.048 -0.0905  0.0152 -0.0093
29105W        W45239  10.034  10.702  11.754 -0.1674  0.1609 -0.0063
29106W        W45240   4.745  11.730  12.766  0.2150 -0.1827  0.1505
29107W        W45241  18.090   6.687   2.475 -0.0378  0.1265  0.2963
29108W        W45242   1.393   7.849   4.107  0.1138  0.1753  0.0693
29109W        W45243   7.728  11.127   2.042  0.2243  0.2993 -0.0343
29110W        W45244  16.280  11.309   0.364  0.1236  0.1126 -0.3103
29111W        W45245  12.132  15.048   5.992  0.1747  0.1431 -0.0676
29112W        W45246  12.977   3.753  13.824 -0.1327  0.0926 -0.0099
29113W        W45247   2.329  11.144  14.720 -0.0937  0.2994 -0.0136
29114W        W45248   9.119  14.061  11.988  0.0894 -0.0419  0.1555
29115W        W45249  15.992  16.347   1.349  0.1093 -0.1181 -0.0393
29116W        W45250  15.636  17.315   0.572  0.0865 -0.0732 -0.1386
29117W        W45251   1.380   5.399   4.520 -0.2083  0.2213  0.0275
29118W        W45252   1.790  13.933  13.523  0.1915 -0.1221  0.0173
29119W        W45253   5.651   2.525   3.247  0.0098 -0.0386  0.4162
29120W        W45254   6.802  11.075  13.813  0.3423 -0.0956 -0.0922
29121W        W45255  17.477  13.752  14.336  0.1657  0.0358  0.0123
29122W        W45256   2.956   5.462   2.969 -0.1839  0.2693 -0.0822
29123W        W45257  15.098   4.758  14.871 -0.3307 -0.2014 -0.0149
29124W        W45258  11.019   7.879  16.270  0.4978  0.1686  0.3281
29125W        W45259   5.009  13.472   1.560 -0.2343  0.0490  0.1720
29126W        W45260   9.166   9.539   0.652  0.2771 -0.3193 -0.2182
29127W        W45261   0.069  10.732  15.629  0.0170 -0.3013 -0.1533
29128W        W45262  15.146   5.845  12.934 -0.2986 -0.0269 -0.0940
29129W        W45263   8.100  16.322   0.116 -0.1203 -0.0595  0.0213
29130W        W45264   2.968   3.377  12.731  0.1284  0.2412  0.3521
29131W        W45265   1.529   4.810   2.672  0.0644 -0.0711 -0.0357
29132W        W45266  11.704   9.870   4.028  0.2694  0.1835 -0.0562
29133W        W45267   4.560  10.759  15.762  0.1022 -0.1567  0.6750
29134W        W45268  14.709   4.176  13.107 -0.0006  0.0153  0.2906
29135W        W45269  14.611   0.477   5.130 -0.0769 -0.3979  0.0834
29136W        W45270   6.486   7.922   0.412 -0.0066  0.1166 -0.1558
29137W        W45271   4.309   7.076  13.633  0.0897 -0.2885  0.1896
29138W        W45272  17.406  15.162  12.238 -0.3587 -0.0844  0.1104
29139W        W45273   2.628   1.058   1.248  0.1838 -0.0162 -0.1182
29140W        W45274  12.394   0.426   1.853  0.2027 -0.3402  0.0042
29141W        W45275   4.623  14.678  13.872  0.0557 -0.1659  0.0706
29142W        W45276   8.083  16.638   1.750  0.0655 -0.0941  0.0151
29143W        W45277  15.961  10.552   2.600 -0.3283  0.3085  0.3670
29144W        W45278   6.951   0.391   0.353 -0.1529  0.0543  0.0340
29145W        W45279   1.544  15.008  15.570 -0.0665 -0.2197  0.1811
29146W        W45280   9.475  11.169   1.297 -0.1770 -0.0841 -0.0288
29147W        W45281   8.909  16.537   0.688 -0.1730 -0.0616 -0.2472
29148W        W45282   5.959  14.590  16.208  0.1471 -0.0692 -0.0717
29149W        W45283   3.458   1.326  13.170 -0.2713  0.0443  0.2265
29150W        W45284   4.137  10.616  14.723 -0.1179 -0.1526  0.2853
29151W        W45285  12.746  15.394   0.972 -0.3083 -0.0330  0.2332
29152W        W45286   8.801   1.516  13.640  0.1309  0.1955  0.0066
29153W        W45287   2.603   1.254  14.520  0.1868 -0.1426  0.0649
29154W        W45288   0.272   9.271   0.129  0.2490  0.0120  0.0320
29155W        W45289   8.886   9.080  11.879  0.0479  0.0168 -0.0912
29156W        W45290   0.358  16.072   5.597  0.3962  0.1305 -0.0895
29157W        W45291  13.717   4.527   3.263 -0.0568 -0.0664  0.1916
29158W        W45292  13.118  10.497  15.332 -0.1922  0.0460 -0.0781
29159W        W45293  17.351  16.649  15.177 -0.0133  0.3437 -0.0408
29160W        W45294  15.832   8.005   3.531  0.2003  0.1918  0.1137
29161W        W45295   7.107   2.905  13.705 -0.0550  0.1736  0.1524
29162W        W45296   3.232  17.222  11.160  0.0119 -0.0978 -0.1103
29163W        W45297  17.659  10.851   1.003 -0.1373  0.1109  0.1697
29164W        W45298   5.291   6.776   3.597  0.1782 -0.2466 -0.0645
29165W        W45299   4.546  13.915  14.545 -0.1243 -0.1268  0.1385
29166W        W45300   2.569   6.619   4.776  0.0381  0.1178 -0.0806
29167W        W45301   8.634   3.680  15.760  0.0268  0.0426  0.0895
29168W        W45302   8.465   3.286   2.765  0.0889  0.2357  0.0133
29169W        W45303   8.587   2.143  11.343 -0.1192 -0.1100 -0.1623
29170W        W45304  13.601   6.403   4.717 -0.1863 -0.2107  0.1803
29171W        W45305   3.325   7.769  16.156  0.0296  0.1845  0.0061
29172W        W45306  13.899  14.435  14.532  0.0607  0.0178  0.0731
29173W        W45307   5.577  13.837  14.800  0.3856 -0.2719 -0.1748
29174W        W45308  14.044   9.013  15.337  0.2450 -0.0580  0.1136
29175W        W45309   2.930  18.063  13.879 -0.0158  0.0379  0.0322
29176W        W45310  13.103  11.913   2.085  0.0401 -0.1334  0.1947
29177W        W45311  15.664   3.707   2.925  0.0493 -0.3483  0.0281
29178W        W45312  13.414   2.744  10.878  0.2321 -0.0353 -0.0800
29179W        W45313  11.566  15.235  12.459  0.1294 -0.2113 -0.1574
29180W        W45314  17.445   1.919  14.278 -0.2680  0.0709 -0.3987
29181W        W45315   8.018   6.683   2.481  0.0443  0.1790  0.0554
29182W        W45316  12.477   9.038   1.070  0.0447 -0.4331 -0.3754
29183W        W45317   4.336   8.546  15.732 -0.0712  0.3818  0.0701
29184W        W45318  13.503   3.246  16.009 -0.1105  0.3051  0.2202
29185W        W45319  14.270  17.486   2.422 -0.0514 -0.1416 -0.1208
29186W        W45320  13.194   4.456  15.429  0.2083  0.3307 -0.0825
29187W        W45321  12.859  13.679  14.529  0.1452  0.0270 -0.1552
29188W        W45322  17.007  13.865  16.183  0.1160  0.2116 -0.2905
29189W        W45323   8.795  11.977   5.056  0.3056 -0.0820 -0.1054
29190W        W45324  15.823   6.749  13.259 -0.1078  0.4635 -0.0404
29191W        W45325  14.431   4.787   3.852 -0.4917  0.3408  0.0133
29192W        W45326  13.486   8.288  15.821 -0.0484 -0.0342  0.4702
29193W        W45327  12.174   2.699   0.239 -0.0330  0.2030 -0.0336
29194W        W45328   1.129  17.019  14.301 -0.0814  0.2502 -0.0598
29195W        W45329  13.702   1.899  15.250  0.1803  0.2334 -0.2163
29196W        W45330   3.672  10.722  15.975  0.1113  0.0182  0.1767
29197W        W45331   2.150  17.437  13.445  0.1955  0.0801  0.1316
29198W        W45332  15.403   6.627  12.491  0.1415 -0.0597  0.0960
29199W        W45333   5.142  13.934  16.030  0.0680 -0.1761 -0.0367
29200W        W45334  17.187  12.303  12.743 -0.0288  0.2799  0.2557
29201W        W45335   2.686  17.722  12.471 -0.5019  0.1026 -0.1288
29202W        W45336   2.409  16.046   3.067  0.0873  0.0296  0.0511
29203W        W45337  11.330  13.444   1.896 -0.1958  0.1669 -0.0966
29204W        W45338  14.370  17.920  14.251 -0.0996 -0.2695  0.1142
29205W        W45339  13.858   2.862   4.048  0.0319 -0.0822  0.2917
29206W        W45340   4.936   3.384  11.074  0.4029  0.1836  0.2641
29207W        W45341   4.021   5.559  11.638 -0.2997  0.0575 -0.0353
29208W        W45342  17.612   0.598  14.532  0.1474 -0.0413  0.1007
29209W        W45343   2.104  17.040  13.786  0.2507 -0.1819 -0.0958
29210W        W45344   9.871  10.123   6.032 -0.0033 -0.0947 -0.0661
29211W        W45345  10.771   6.109   4.322  0.2527  0.0089 -0.0692
29212W        W45346  16.173   1.491   1.005  0.2234 -0.2327 -0.2444
29213W        W45347  17.676   1.951   1.777  0.1961 -0.0295 -0.3274
29214W        W45348  11.999   2.531   4.403 -0.1985  0.0106  0.0663
29215W        W45349  13.423  13.345  11.958 -0.2251 -0.0090 -0.0184
29216W        W45350  16.073  12.900   3.615 -0.1483 -0.1842 -0.1864
29217W        W45351  17.814   1.939  13.799 -0.2268 -0.0215 -0.2139
29218W        W45352   0.403  11.824  15.779 -0.0220  0.2568 -0.2632
29219W        W45353  10.883  13.659  16.039  0.1614 -0.3602  0.1128
29220W        W45354  16.204   9.626  11.113  0.2390 -0.0222 -0.1656
29221W        W45355   3.914   6.993   4.822 -0.2288  0.0414 -0.0503
29222W        W45356  15.622  10.445   5.865  0.1820 -0.0498 -0.0030
29223W        W45357  13.812   4.568  11.998 -0.3919 -0.0962 -0.3375
29224W        W45358  15.933  15.268   4.642  0.3111 -0.2143  0.0539
29225W        W45359   8.132   1.992   4.452 -0.0950 -0.2596  0.0962
29226W        W45360  18.011   9.736   2.776 -0.3607 -0.1346 -0.0611
29227W        W45361   6.018   0.212   2.338 -0.0387  0.0484 -0.1296
29228W        W45362   4.371  17.078   5.669  0.3424 -0.0083 -0.2163
29229W        W45363  16.390   0.346   0.955 -0.1367 -0.1558 -0.1344
29230W        W45364   3.461   5.265   1.730  0.0769  0.0566 -0.2481
29231W        W45365  10.534   0.909   2.673  0.0690  0.0176 -0.1809
29232W        W45366   9.109   5.054   2.194 -0.0869  0.0447  0.0628
29233W        W45367   6.722  14.743   1.394 -0.0395 -0.1936 -0.3147
29234W        W45368   5.795  18.047   3.658 -0.0177  0.1078 -0.1239
29235W        W45369  15.605  16.994   1.048  0.3708 -0.0839 -0.2341
29236W        W45370   8.333   8.239  16.006 -0.0478 -0.3164 -0.1519
29237W        W45371   5.970   0.975  15.262  0.0482  0.2421 -0.0869
29238W        W45372  10.506  17.143   1.639  0.0147  0.2808 -0.2099
29239W        W45373  16.036  10.753  11.621  0.2978  0.1776  0.1502
29240W        W45374   2.237   8.851   5.602 -0.1914  0.0590  0.0965
29241W        W45375  10.557   8.888   3.163 -0.2334  0.1765  0.0573
29242W        W45376   5.778  13.672   4.901  0.3890  0.1187 -0.2381
29243W        W45377   7.334  13.881  14.487 -0.1011 -0.1187 -0.1122
29244W        W45378  13.767  13.129  15.449  0.1176  0.2112 -0.0227
29245W        W45379  14.639  11.122  13.214  0.1856  0.2730 -0.0139
29246W        W45380  11.662   4.199  12.740  0.1142  0.0717  0.1527
29247W        W45381   3.696  12.663   2.082 -0.0056 -0.2835 -0.0940
29248W        W45382  10.729   7.340  13.590 -0.0474 -0.1415  0.4394
29249W        W45383   7.358   2.812  13.005 -0.0177 -0.1019  0.2453
29250W        W45384   8.430   4.226   2.074 -0.0155  0.0858  0.2047
29251W        W45385   4.996   9.785   4.030  0.1422  0.3298  0.3070
29252W        W45386   8.477  14.845   2.736  0.0711  0.4184 -0.0111
29253W        W45387   0.826  12.069  15.870  0.0083 -0.2132  0.0485
29254W        W45388   5.024   7.321   2.898  0.2128 -0.0815 -0.0229
29255W        W45389  11.603   1.933   5.441  0.0185  0.1077 -0.1309
29256W        W45390  10.410  14.831  10.438 -0.2200  0.1015  0.0606
29257W        W45391   7.338  16.897   2.487 -0.0796 -0.0410 -0.3000
29258W        W45392  13.543  16.246   3.292 -0.0964  0.0362 -0.2336
29259W        W45393  11.587   3.612  15.618  0.1231  0.3216 -0.2212
29260W        W45394   4.268   7.540  11.824  0.1377  0.2794 -0.0966
29261W        W45395   0.078   9.082   5.559 -0.1075 -0.0123  0.1623
29262W        W45396   3.535  11.420   0.305 -0.2701 -0.1088  0.1246
29263W        W45397   1.473   5.423  13.589 -0.0819  0.2891 -0.0495
29264W        W45398  14.040  14.963   4.896  0.0483  0.0332 -0.1929
29265W        W45399  15.301   6.615   2.611  0.0103 -0.0320  0.0916
29266W        W45400   1.997   2.785   1.131 -0.0144 -0.1183  0.2979
29267W        W45401  14.233   2.604   3.203  0.0008  0.2473  0.0323
29268W        W45402  15.830  11.224  13.069  0.0155 -0.3992  0.0058
29269W        W45403   8.397   1.260   1.680  0.0546 -0.2272 -0.2527
29270W        W45404  12.903  16.548   0.766  0.3454 -0.3193 -0.0231
29271W        W45405   0.638  17.197   2.743  0.2675 -0.1080  0.0199
29272W        W45406  16.110  17.286   3.992 -0.0994  0.0674 -0.0461
29273W        W45407   7.069   7.055  11.183  0.0264 -0.4137  0.2960
29274W        W45408  10.323   8.034   1.016  0.3118  0.0204 -0.5055
29275W        W45409  11.590   0.319  11.943  0.0925 -0.0400  0.0345
29276W        W45410   1.486  11.325  13.443 -0.0873 -0.3067 -0.1094
29277W        W45411   4.186   8.545   6.325  0.0781 -0.1063  0.2995
29278W        W45412  17.790   7.519   3.533 -0.0569 -0.2029  0.3738
29279W        W45413   7.574   2.639  15.869 -0.0392  0.0541  0.1937
29280W        W45414   4.190   2.069  15.881 -0.1160 -0.3474 -0.2247
29281W        W45415  10.451   5.366   4.794  0.2620  0.0421 -0.1477
29282W        W45416  16.749   1.252   4.644  0.2232  0.2534  0.1281
29283W        W45417   0.852  14.112  14.301 -0.3449  0.0945  0.1566
29284W        W45418  15.140  15.224   2.738  0.0862 -0.0534  0.1526
29285W        W45419   7.910   8.848   3.724 -0.0270 -0.1689 -0.2697
29286W        W45420   4.291   8.014   5.128  0.2327 -0.0333 -0.2311
29287W        W45421   6.350   9.223   2.824 -0.1251 -0.1232 -0.1674
29288W        W45422  12.763   4.891  15.328  0.0600 -0.0188 -0.0137
29289W        W45423   0.033  12.630  14.171 -0.1493 -0.1235 -0.0152
29290W        W45424  15.656   4.672   2.718 -0.1721 -0.1946 -0.1545
29291W        W45425  10.239  17.518   1.020  0.0744  0.0054  0.0859
29292W        W45426   3.699   5.692  12.081  0.1868  0.2159 -0.0717
29293W        W45427   8.301   9.606  14.634 -0.0428 -0.1574 -0.3600
29294W        W45428   6.198   0.262  15.989  0.0770 -0.0570 -0.1440
29295W        W45429   4.962  13.768  15.569 -0.0815 -0.0733  0.2706
29296W        W45430   9.290  11.420  16.207  0.0228 -0.1445 -0.0818
29297W        W45431   2.658  11.104   0.201  0.0550  0.2521 -0.0284
29298W        W45432  15.412  14.992  13.941  0.2054  0.1906  0.1086
29299W        W45433   4.881  17.552   3.396 -0.0424 -0.0271  0.1098
29300W        W45434  15.322  14.997  12.206 -0.0081  0.0202  0.2205
29301W        W45435  18.051  12.636  13.642  0.2992  0.3332 -0.0356
29302W        W45436  11.452  16.118   2.705  0.0964 -0.0392  0.3973
29303W        W45437  17.760   4.582   0.879 -0.0688 -0.2104  0.1442
29304W        W45438  11.940   7.257  12.205  0.1341 -0.0858  0.2104
29305W        W45439   4.686  15.933  15.019 -0.1594 -0.0586  0.3180
29306W        W45440   4.480   3.119  14.971 -0.0058 -0.1473  0.2612
29307W        W45441  17.562   7.556   4.650 -0.4611  0.0368 -0.0018
29308W        W45442  10.880  17.573  15.362 -0.0815  0.2592  0.6357
29309W        W45443  10.157   1.266   2.707 -0.2712  0.1346 -0.0345
29310W        W45444  12.757   5.933   2.811  0.4053 -0.0999  0.3271
29311W        W45445   6.942  11.047   2.774 -0.1516 -0.3894 -0.0795
29312W        W45446   8.419   5.283   2.474 -0.0630  0.2253 -0.1862
29313W        W45447  10.772   5.262  12.681  0.0102 -0.1393  0.4214
29314W        W45448  14.421  11.719   1.793 -0.1365  0.0518  0.0324
29315W        W45449   8.170  15.143  15.859 -0.3306  0.0797 -0.0885
29316W        W45450   9.314   8.276  12.864  0.1118 -0.2290 -0.1241
29317W        W45451  13.752  15.600  15.849 -0.1102  0.0877  0.0809
29318W        W45452  15.081  16.139   1.963 -0.1132 -0.0260  0.1596
29319W        W45453   7.102  17.907  13.658 -0.0609 -0.0749  0.1942
29320W        W45454   0.612   1.175   2.706  0.0064  0.0244 -0.2937
29321W        W45455   3.606   7.975   4.075  0.2020  0.2651  0.0998
29322W        W45456   7.296  11.000   5.494 -0.0487 -0.2568 -0.0423
29323W        W45457   0.695   1.609   2.982  0.0821 -0.1215 -0.0530
29324W        W45458  16.927   3.647  12.587  0.3568  0.0673  0.2334
29325W        W45459   4.292   5.215  15.753  0.1725  0.4339  0.3552
29326W        W45460   7.287   1.164   0.756  0.0837  0.1441  0.0051
29327W        W45461   2.086   2.168   1.920  0.1606 -0.1095  0.0575
29328W        W45462  15.446  17.704  14.895 -0.1007 -0.0188  0.0214
29329W        W45463   9.218  11.686  12.999 -0.1679  0.0865  0.0276
29330W        W45464  12.209   6.516   2.099  0.3153  0.3081  0.0750
29331W        W45465   2.754   4.184   2.154  0.0750  0.1361 -0.0377
29332W        W45466   3.605   2.463  11.646 -0.2528  0.2707  0.2047
29333W        W45467  13.099   1.205  13.292 -0.0180  0.3075 -0.0385
29334W        W45468   1.116  17.755   2.735  0.1292  0.1759 -0.2045
29335W        W45469  13.668  15.507  12.970 -0.1153  0.1246  0.0642
29336W        W45470  17.769  15.272  13.472  0.0509  0.1519  0.2816
29337W        W45471  16.048   2.847   3.162 -0.4930  0.0599  0.0932
29338W        W45472  17.473   4.937   2.361  0.1762 -0.0180  0.0947
29339W        W45473  12.759   7.350   3.487 -0.2454  0.0192  0.0756
29340W        W45474   8.535   7.376  11.292  0.0441  0.3251  0.0920
29341W        W45475  12.251  10.963  11.554 -0.3029 -0.2348 -0.1046
29342W        W45476   2.667   4.618   3.980 -0.0974 -0.0241 -0.0016
29343W        W45477   4.460   2.541  11.328 -0.1461 -0.3056  0.1371
29344W        W45478  15.375   7.353   3.880 -0.0473 -0.2683 -0.0711
29345W        W45479   1.511  12.958  13.518 -0.2309  0.0921 -0.0313
29346W        W45480   4.951   2.567  12.475 -0.2447 -0.0205 -0.1641
29347W        W45481  15.285   0.808   4.262  0.0463 -0.0848 -0.1939
29348W        W45482   3.537   3.602   6.094  0.1883  0.1409  0.1584
29349W        W45483  14.923   4.704  11.867  0.4257  0.1131 -0.0117
29350W        W45484  17.665   5.067  16.041  0.2221  0.1839 -0.0188
29351W        W45485  15.399   4.491   3.290 -0.0221  0.3944  0.1402
29352W        W45486   0.219   6.447   1.966  0.0415  0.0162  0.1428
29353W        W45487  13.167   1.118   5.034  0.0866  0.0380  0.1187
29354W        W45488  14.086   4.368  13.703  0.1956 -0.1030 -0.1054
29355W        W45489  12.285   7.682   4.699 -0.0855 -0.1066 -0.1770
29356W        W45490  12.282   4.528   3.345  0.0672 -0.0547  0.3798
29357W        W45491  11.889  15.648  14.195  0.2155  0.1396 -0.0616
29358W        W45492  15.510  17.095  14.129  0.0088 -0.2305 -0.2171
29359W        W45493  14.315   1.160  13.122 -0.0601  0.0739  0.0861
29360W        W45494   0.737   0.826   4.225  0.1863  0.3386  0.2204
29361W        W45495   1.644   5.508  12.296  0.4071  0.2129 -0.1520
29362W        W45496   1.333   7.013  16.080  0.1603  0.0983  0.0149
29363W        W45497   0.329   9.737  11.407  0.0280 -0.2188 -0.0341
29364W        W45498  11.365   8.932   3.535 -0.1675  0.1876  0.0868
29365W        W45499   6.287  17.994   3.682 -0.1206  0.0180  0.3572
29366W        W45500   4.077   4.375   5.580  0.0836  0.1611  0.0800
29367W        W45501   9.920  10.266  14.495  0.2342  0.0022 -0.1807
29368W        W45502   8.208  11.005  14.914 -0.2511 -0.1869 -0.0980
29369W        W45503   5.093  13.623   0.603  0.1772 -0.1025 -0.0677
29370W        W45504   7.003  16.251   1.055 -0.0556 -0.0377 -0.0336
29371W        W45505  10.760   5.242  14.870  0.1055 -0.0511 -0.0426
29372W        W45506  10.733  15.247   0.168 -0.2640  0.2841  0.4588
29373W        W45507   9.731   2.483  13.202  0.1700 -0.0251  0.2031
29374W        W45508   8.690   8.182   0.818  0.2955  0.3397 -0.1517
29375W        W45509   2.421  14.568   2.277  0.0287 -0.0868  0.1389
29376W        W45510   1.753  13.107   1.166  0.3928  0.1476 -0.0715
29377W        W45511  17.082   1.855  13.940 -0.2449 -0.1907  0.2194
29378W        W45512   4.177   7.273   2.144  0.0752 -0.0729  0.0314
29379W        W45513   9.398  10.090   4.416  0.1239  0.0763  0.0369
29380W        W45514   0.009   8.434   4.873  0.0178  0.3792 -0.1391
29381W        W45515  11.676   3.717   1.564 -0.1712 -0.0850 -0.1930
29382W        W45516  17.736  13.907   4.579 -0.2167 -0.1142 -0.1295
29383W        W45517  10.017  15.689   4.339  0.1612  0.0452 -0.0707
29384W        W45518  17.583  12.544  14.861  0.1092  0.1494 -0.0991
29385W        W45519   2.738   9.380   0.964 -0.0285 -0.1320  0.0853
29386W        W45520  15.937   3.806  13.350 -0.1811  0.1125 -0.1075
29387W        W45521  13.573  14.852   2.029  0.0212 -0.2049 -0.2197
29388W        W45522  13.767   0.656  13.578  0.1207 -0.0184  0.0659
29389W        W45523  13.303   4.322   3.525 -0.0830  0.1304  0.0550
29390W        W45524  11.967  12.348  12.560  0.2520 -0.0720  0.1695
29391W        W45525   6.529   8.492   2.167 -0.3865  0.2480  0.0215
29392W        W45526   7.446   6.213   3.664  0.1313  0.0009  0.4154
29393W        W45527  11.825  11.963  12.176  0.0497  0.0915 -0.0920
29394W        W45528   3.545  10.527   5.961 -0.0480  0.2008 -0.0653
29395W        W45529   6.380   1.887   1.177  0.0071  0.0603  0.1278
29396W        W45530  13.751  17.559   0.308  0.1561  0.3398  0.0358
29397W        W45531   7.545   1.738  14.376 -0.0123  0.4038 -0.1949
29398W        W45532   4.951  16.524  15.988 -0.4545 -0.2601 -0.1864
29399W        W45533  17.970  13.927   1.764  0.1717  0.0566 -0.2147
29400W        W45534  10.474   3.066  11.350  0.0278 -0.3208  0.1927
29401W        W45535  16.918  13.739   1.862  0.1483 -0.1932  0.0993
29402W        W45536   5.075  13.979   2.593 -0.1619 -0.1285  0.0290
29403W        W45537   6.966  16.535  14.883  0.2742 -0.2156  0.1232
29404W        W45538   4.336  12.027   2.437 -0.1608  0.1933 -0.3504
29405W        W45539  12.056  13.502  16.409  0.1494 -0.3312  0.3205
29406W        W45540  11.206   2.736   0.156 -0.0056 -0.1846 -0.0180
29407W        W45541  17.703   3.038   2.363 -0.1030 -0.2806 -0.2039
29408W        W45542   8.922  10.828   0.323  0.0593  0.1073  0.0351
29409W        W45543  11.709  10.726  16.392  0.0975  0.2493  0.2190
29410W        W45544   9.041   2.313   0.586 -0.1032  0.0958  0.2874
29411W        W45545   7.228  15.698  13.455 -0.2062  0.1862 -0.1305
29412W        W45546   6.588   0.962  12.236  0.0074  0.0441  0.3111
29413W        W45547  14.681   5.781   0.944  0.0312  0.0024  0.2449
29414W        W45548  14.731   2.020  11.152  0.0736 -0.2058 -0.0662
29415W        W45549   2.458  10.992  10.195  0.0801  0.0680  0.0158
29416W        W45550  14.980  17.152  16.247 -0.0643 -0.0018  0.0952
29417W        W45551  16.271   7.576  13.370 -0.0693  0.0737  0.0960
29418W        W45552  11.220   0.686  11.962  0.1392  0.0600  0.0308
29419W        W45553   2.067   7.887   1.107 -0.0621  0.0064 -0.0993
29420W        W45554  14.498   6.306   2.943  0.0792 -0.0871 -0.0154
29421W        W45555   2.546   6.780  11.983 -0.0133 -0.0702 -0.3502
29422W        W45556   3.203   4.439   2.361  0.0407 -0.1750  0.1606
29423W        W45557  17.309  12.368   2.478 -0.2317  0.0692  0.2363
29424W        W45558   0.669   7.750  11.333 -0.1390  0.2622 -0.0568
29425W        W45559  15.098  12.082  12.374  0.0780 -0.0001 -0.1541
29426W        W45560  11.673   6.283  15.822 -0.2047  0.2106 -0.1285
29427W        W45561   1.519   1.301   4.580 -0.0300 -0.0190  0.2206
29428W        W45562   7.026  18.051   4.744 -0.1378 -0.3036 -0.0189
29429W        W45563  13.084  12.280   0.223 -0.1515  0.0264  0.0010
29430W        W45564   0.034   4.698  10.882 -0.2922 -0.0969 -0.0559
29431W        W45565   9.228  12.986   4.391  0.0514  0.0519  0.1655
29432W        W45566  13.159   8.388   2.668  0.2821  0.0419 -0.2120
29433W        W45567   0.965  13.820  12.051 -0.1245 -0.0034  0.0207
29434W        W45568  11.960   8.696  12.887 -0.0198  0.1471  0.1654
29435W        W45569   4.955   9.847   2.963  0.1392 -0.0627 -0.0142
29436W        W45570  11.071   7.611  13.821  0.3572 -0.2398  0.4249
29437W        W45571   9.078   5.921  12.360 -0.1195 -0.3772  0.2085
29438W        W45572   4.743  10.474  15.382 -0.0149 -0.3355  0.2409
29439W        W45573  12.009   0.281  11.544 -0.0579 -0.0846 -0.3546
29440W        W45574  14.069   2.939  12.671 -0.2190 -0.2266  0.1240
29441W        W45575  18.093   3.008   3.627 -0.0230 -0.0088  0.0194
29442W        W45576   9.825  13.006  11.545  0.0220 -0.5964 -0.0126
29443W        W45577   1.796   8.986   5.373 -0.2198 -0.0639 -0.2796
29444W        W45578   3.687  13.704  11.570  0.0872  0.0340 -0.0364
29445W        W45579   0.262   2.680  14.160 -0.0491  0.2486 -0.1877
29446W        W45580   6.295  10.008   0.234 -0.2138  0.0466 -0.1037
29447W        W45581  10.585   2.336   3.446 -0.0226 -0.0699 -0.1465
29448W        W45582  12.948  16.892  14.672 -0.0522 -0.1406 -0.2063
29449W        W45583   0.972   3.046   2.204  0.0283  0.1137 -0.1216
29450W        W45584   6.585   9.280   5.085 -0.0540 -0.1437  0.0639
29451W        W45585   2.774   3.850  13.979  0.0226  0.1214  0.2908
29452W        W45586  11.171   7.220  15.095  0.1834  0.1458  0.1732
29453W        W45587   8.763  13.616   2.903 -0.3425  0.1089 -0.3024
29454W        W45588   9.504   5.391   2.492 -0.2073 -0.2104 -0.0762
29455W        W45589   8.712   8.939  13.953 -0.1921 -0.0472 -0.1453
29456W        W45590  12.813   6.810  11.132  0.0552 -0.0662 -0.1257
29457W        W45591   1.018   7.248   0.436 -0.2566  0.0900  0.2391
29458W        W45592   7.189   1.788   2.767 -0.1647  0.5278  0.0741
29459W        W45593   3.127   8.760   5.558 -0.0018 -0.1077 -0.0575
29460W        W45594  10.522  14.792  11.814 -0.0917  0.0546  0.0446
29461W        W45595   2.381   3.791  14.929  0.1443  0.0834  0.0963
29462W        W45596   1.127  17.039  15.359 -0.4524 -0.2334 -0.1376
29463W        W45597  12.325   0.337  11.103  0.1890  0.1954  0.1592
29464W        W45598  13.011  11.305  13.919 -0.2027 -0.1103 -0.1495
29465W        W45599   4.729  12.405  14.990 -0.0244 -0.1980 -0.2894
29466W        W45600   0.715   1.701   5.425 -0.1058 -0.0619  0.2125
29467W        W45601   2.610   4.730  15.161  0.3117 -0.2589  0.1625
29468W        W45602   0.702  15.222   2.406 -0.1158 -0.0734 -0.0684
29469W        W45603  16.295   8.446   4.678 -0.3012  0.0399  0.0601
29470W        W45604   0.798   0.652   1.102 -0.2333  0.1699 -0.0623
29471W        W45605   3.903   9.532  16.236  0.1264  0.0563  0.0537
29472W        W45606   8.035   1.411  14.153  0.0806  0.2593  0.2576
29473W        W45607   9.220   9.936   4.855 -0.3911 -0.0850  0.0741
29474W        W45608  13.916   0.765  16.360 -0.0927  0.1990  0.4006
29475W        W45609   7.720   8.342   1.639  0.1040 -0.1091 -0.2093
29476W        W45610  13.800   9.968   4.877 -0.5064  0.1783  0.0712
29477W        W45611   9.646   0.493   3.068 -0.1003 -0.1635 -0.1018
29478W        W45612  11.618   9.876  14.777 -0.0842 -0.1903 -0.0837
29479W        W45613  15.941  14.242  13.769  0.2267  0.0925  0.0241
29480W        W45614  11.206   6.031  15.597 -0.1020  0.2438 -0.1146
29481W        W45615  17.520   4.520   0.421 -0.3040  0.0891 -0.0598
29482W        W45616   1.318  16.189  14.251 -0.1784 -0.0456  0.0606
29483W        W45617   5.268   6.458  13.991 -0.1849 -0.0242 -0.0016
29484W        W45618   3.216  11.992  15.630 -0.0306 -0.5529 -0.2364
29485W        W45619   6.985   8.118   6.326  0.2540  0.1157 -0.1270
29486W        W45620   2.591  16.891  12.885 -0.1672  0.0240 -0.0297
29487W        W45621  15.510  16.614   6.029  0.0648  0.0483 -0.2314
29488W        W45622   9.651  12.475   0.275 -0.0264 -0.1072  0.0821
29489W        W45623   4.491   4.675   4.872  0.1163 -0.2596 -0.3948
29490W        W45624  14.159   3.162   3.084 -0.0527  0.1401  0.1123
29491W        W45625  10.514  14.634  13.737 -0.0389  0.0705 -0.1096
29492W        W45626   7.708   2.854   3.828  0.1331  0.2290 -0.0773
29493W        W45627  13.119  16.540  13.074  0.2195  0.1148  0.1466
29494W        W45628  16.464   1.387   5.005  0.0178 -0.2323 -0.1255
29495W        W45629  13.636  16.103   2.399  0.0098  0.0267 -0.0203
29496W        W45630   5.351   7.075   2.081  0.1107  0.1921 -0.0317
29497W        W45631   5.642  11.412   0.617 -0.0750  0.1898  0.0751
29498W        W45632  13.149   0.158   2.508  0.0273  0.2035 -0.1346
29499W        W45633  16.917  15.805   4.721 -0.0398 -0.0133  0.0237
29500W        W45634   9.008   6.071   0.496 -0.0435 -0.0817 -0.0939
29501W        W45635   3.519   3.983   1.768  0.2557  0.0071 -0.0209
29502W        W45636   1.682  12.613  14.303 -0.1225 -0.0095 -0.1224
29503W        W45637  17.822  12.486  11.037 -0.0671 -0.0387 -0.1213
29504W        W45638   1.743   1.358   2.350  0.4953  0.0737  0.3502
29505W        W45639   7.931  10.276  12.265 -0.2993  0.2082 -0.0458
29506W        W45640   4.142  15.996   0.989  0.3827  0.0062  0.1779
29507W        W45641   8.085   0.507  10.059 -0.0048 -0.1917 -0.3444
29508W        W45642  15.530  14.530   0.806  0.1513 -0.0017  0.0150
29509W        W45643   5.408   3.681  11.064  0.0178  0.0284  0.1104
29510W        W45644  12.583  10.327  15.173  0.0011  0.2519 -0.1368
29511W        W45645   4.490  10.702   3.043 -0.0147  0.1057  0.0623
29512W        W45646  16.182  10.349   1.780  0.1789 -0.2215  0.0262
29513W        W45647   7.484  11.522   4.952  0.4973  0.0859  0.0860
29514W        W45648   2.151   8.219  14.171 -0.1451 -0.2326 -0.1166
29515W        W45649  13.591   3.548  13.723  0.3452 -0.1754  0.1972
29516W        W45650  14.650  15.498  14.592  0.1027 -0.0200 -0.1571
29517W        W45651   3.691  17.423  15.597 -0.2338  0.0309 -0.0481
29518W        W45652  12.228  16.951  12.591  0.1102 -0.1131  0.1170
29519W        W45653  11.634  16.197   2.051 -0.1877 -0.0554 -0.2307
29520W        W45654  13.655   4.250  12.379 -0.3609  0.0023 -0.3856
29521W        W45655  13.563  14.754   4.993  0.3146 -0.0189  0.3975
29522W        W45656   4.013  16.118  15.846 -0.2671  0.3250 -0.4100
29523W        W45657   7.175   2.248  11.734 -0.3292 -0.0832 -0.4041
29524W        W45658  11.076   4.483  14.788 -0.2003 -0.2642  0.0212
29525W        W45659  15.441   5.280  12.241 -0.0423  0.4768 -0.0942
29526W        W45660  10.570   2.552  11.242  0.0567 -0.2115  0.1138
29527W        W45661   9.316   5.939   1.289 -0.0466 -0.2719 -0.1316
29528W        W45662  15.741  14.012   5.588 -0.1232  0.1753 -0.1960
29529W        W45663   2.735   1.046   5.327  0.2610 -0.0284 -0.1927
29530W        W45664   1.042  16.720  11.317  0.3072  0.1944  0.1105
29531W        W45665  15.056  17.454   3.425  0.1425  0.0911  0.1849
29532W        W45666   3.003   3.697   5.548 -0.1767 -0.0088 -0.1071
29533W        W45667   9.639  17.240   2.046  0.0209  0.0542 -0.1170
29534W        W45668  14.684   1.889  14.020  0.4408 -0.1965  0.1037
29535W        W45669   9.875  13.698  12.683 -0.1411 -0.2054 -0.0412
29536W        W45670   0.838  16.649   0.019  0.0728 -0.1859 -0.1746
29537W        W45671   4.250   3.250   1.705  0.0652 -0.2970 -0.1407
29538W        W45672   7.038   2.769   4.932 -0.3513  0.1702  0.2043
29539W        W45673  15.360  12.766   2.809  0.0769 -0.2446  0.0837
29540W        W45674   2.858  16.248   3.137 -0.1147  0.1715 -0.1479
29541W        W45675   0.441   8.901  10.308  0.0324  0.2801  0.1511
29542W        W45676   4.498   1.833  13.068 -0.0255  0.2270 -0.0091
29543W        W45677   7.560  15.820  13.010  0.1063  0.2990  0.1757
29544W        W45678  16.124  15.998   3.638  0.1242  0.3143 -0.0130
29545W        W45679   9.875  10.584   1.558  0.2512 -0.1497  0.0960
29546W        W45680   9.535  16.840   1.740  0.1251  0.2727 -0.1655
29547W        W45681   1.811  11.591   5.742  0.3439  0.4270  0.1494
29548W        W45682  13.022  11.311  11.973 -0.2746  0.1273  0.1674
29549W        W45683   2.651  10.570   4.277 -0.4736  0.1031 -0.1169
29550W        W45684   3.226   4.353   1.853 -0.4500  0.3348  0.0413
29551W        W45685   4.229  11.429   4.016 -0.0636 -0.2830 -0.0879
29552W        W45686  13.195  11.021  15.346  0.0131  0.0861 -0.0802
29553W        W45687   9.476   8.371  12.335  0.1094 -0.0787 -0.2887
29554W        W45688  17.769   0.024   3.717 -0.0961 -0.0672  0.2703
29555W        W45689  10.141   0.629   1.836 -0.3421 -0.1686  0.0429
29556W        W45690   5.980   7.538   1.032  0.1473 -0.1793  0.0001
29557W        W45691   2.526   6.358  12.187  0.2133  0.0578  0.1868
29558W        W45692  16.529  17.343  15.526 -0.1913  0.1788 -0.3548
29559W        W45693   7.202  10.681  14.986  0.0241 -0.0572 -0.1107
29560W        W45694   6.492   5.839  13.084  0.1523 -0.0525  0.0038
29561W        W45695   8.829   7.400   0.922 -0.3519 -0.3946  0.0275
29562W        W45696  16.015   9.663  11.665 -0.1339  0.0044 -0.1609
29563W        W45697   5.301   0.569  15.728 -0.2211  0.0633  0.0229
29564W        W45698  10.736  10.762  15.849 -0.0187  0.1796 -0.1320
29565W        W45699  17.161   8.420  15.709 -0.1968  0.1192  0.1334
29566W        W45700   2.867   9.467   0.424 -0.1086 -0.2276 -0.0374
29567W        W45701  10.102   7.832   6.316 -0.1751  0.0715  0.0306
29568W        W45702  11.962   6.026  13.199  0.0070 -0.1884  0.0926
29569W        W45703  13.489  14.307  16.406 -0.1050 -0.0604 -0.2333
29570W        W45704  11.505  15.264  14.125  0.0319  0.1145 -0.0871
29571W        W45705   2.925   5.058   5.326 -0.1376  0.0559  0.3505
29572W        W45706   3.294   1.872   4.608  0.3001  0.3658  0.0030
29573W        W45707  12.990   9.572   1.607  0.0250 -0.1076  0.3370
29574W        W45708  10.536   7.628  14.607 -0.1418  0.0679  0.1057
29575W        W45709  11.995   6.225  12.338 -0.1043 -0.0147  0.3482
29576W        W45710  17.710  12.037  14.774  0.1780 -0.0383  0.0511
29577W        W45711  16.623  15.383  14.806  0.0208  0.3260 -0.1112
29578W        W45712   7.330   8.240  16.309  0.1248  0.1197  0.2838
29579W        W45713  16.608  14.067   1.124  0.0567 -0.0356 -0.0885
29580W        W45714  16.239  18.053   4.609 -0.0180  0.1012  0.0196
29581W        W45715   5.680  10.751   2.073 -0.0340  0.0130  0.0122
29582W        W45716   3.823  14.843   2.202 -0.0083 -0.0692  0.1145
29583W        W45717   8.734   3.614   2.473  0.0699  0.2428  0.3507
29584W        W45718  13.978  15.116  15.083 -0.0495 -0.1295 -0.1286
29585W        W45719  11.996  16.308   5.972 -0.3054  0.2740 -0.2394
29586W        W45720  16.859   1.166  10.344 -0.3298  0.2614  0.1171
29587W        W45721   8.447   3.728  16.296 -0.4585 -0.1297 -0.2499
29588W        W45722   6.085   0.558   0.597  0.0584 -0.3724 -0.0787
29589W        W45723   6.589   7.716  12.073  0.0592  0.1177  0.1226
29590W        W45724   2.104   4.222   9.877  0.3297  0.1406  0.1894
29591W        W45725   8.698  11.604  14.344  0.0323 -0.4063  0.3218
29592W        W45726   2.870   5.807   1.625  0.0936 -0.1744  0.0323
29593W        W45727   1.267   0.015   2.149 -0.0437  0.1576 -0.3399
29594W        W45728   0.412   0.931  11.996  0.1600  0.0614 -0.0616
29595W        W45729   0.990  16.947   2.490  0.1000 -0.1517 -0.2353
29596W        W45730   8.599   7.998   5.575  0.1239 -0.0245 -0.0802
29597W        W45731  12.697   9.771   0.705 -0.0459 -0.0270 -0.0047
29598W        W45732  14.343   5.717  11.870 -0.0580  0.0489  0.2116
29599W        W45733  13.782   2.893   1.238 -0.1002 -0.1561 -0.1417
29600W        W45734   9.513   3.321  11.951  0.0234 -0.2010 -0.2220
29601W        W45735   3.704  10.526   0.026  0.0403 -0.2213  0.2512
29602W        W45736   2.245   7.828  12.629  0.1446 -0.0145  0.3497
29603W        W45737  11.749   6.625   3.946  0.1030  0.0286  0.0740
29604W        W45738   5.499  11.203  12.992 -0.0500  0.0485  0.0348
29605W        W45739  17.695   3.962   1.689 -0.1456  0.1931 -0.0497
29606W        W45740   7.138  10.570   2.639 -0.0022 -0.1303  0.1778
29607W        W45741   6.021  11.325   6.348 -0.0246 -0.0709  0.1479
29608W        W45742  17.994  14.982   2.555  0.0946  0.1677  0.0239
29609W        W45743   7.552   1.337   1.418 -0.0496  0.1357  0.0328
29610W        W45744   1.423  11.260   1.294  0.1609  0.0280  0.3032
29611W        W45745   9.704  16.993  13.296  0.2208 -0.0909 -0.0427
29612W        W45746   2.477   1.705  16.063 -0.2959 -0.0308 -0.1003
29613W        W45747  13.394   5.831  15.044 -0.3271 -0.0322  0.0189
29614W        W45748   6.912   9.509   0.447 -0.1524 -0.1372 -0.1033
29615W        W45749   0.919   6.714   3.478 -0.0598 -0.0162 -0.3324
29616W        W45750  17.788   0.764   2.087  0.1183 -0.1951 -0.2290
29617W        W45751  14.055  15.387  12.625  0.0454 -0.0322 -0.2824
29618W        W45752   7.325   4.636  14.044  0.2447  0.2563  0.4282
29619W        W45753  15.688   5.285  11.391  0.0123  0.2382  0.2580
29620W        W45754  16.531   6.791  11.981 -0.1357  0.2785 -0.1311
29621W        W45755   3.165  17.561  14.337  0.2175  0.1989  0.0944
29622W        W45756  14.798  10.016   5.315  0.1634  0.1346 -0.0881
29623W        W45757   6.635   1.484  15.384 -0.0369  0.3629  0.0133
29624W        W45758   3.692   5.754  13.773  0.0563 -0.0828 -0.0287
29625W        W45759   6.539   1.447   1.620 -0.0457 -0.0673  0.3172
29626W        W45760  17.228  16.501  12.610  0.1092 -0.2530  0.1440
29627W        W45761   4.349  11.145   1.011 -0.0753 -0.2079  0.4263
29628W        W45762  16.820  15.076  16.183  0.1709  0.3766 -0.1521
29629W        W45763   6.726   8.795  13.652  0.1714 -0.0803 -0.1242
29630W        W45764  14.141   3.887  14.858  0.2506  0.0050 -0.0846
29631W        W45765   2.975  15.516   0.972  0.2049  0.2751 -0.1260
29632W        W45766   2.471   1.172   4.076 -0.1091 -0.1193  0.0026
29633W        W45767   6.206   5.380  13.304  0.1449 -0.0013  0.3324
29634W        W45768  15.821   9.347   1.606 -0.0658  0.1893  0.2716
29635W        W45769  16.632   5.015   0.081 -0.1950  0.4843  0.3174
29636W        W45770   8.514   7.680  14.645 -0.0183  0.0474 -0.2828
29637W        W45771   1.862  13.832   3.938 -0.0704 -0.1735 -0.1180
29638W        W45772   1.757   1.349  13.985  0.2018  0.0070 -0.1877
29639W        W45773  13.048  14.334   2.587  0.1597  0.0441  0.0764
29640W        W45774   0.203   2.801  15.010  0.0660 -0.0400 -0.1701
29641W        W45775   1.283   6.235  11.896  0.1476  0.2695  0.0317
29642W        W45776  14.760   1.550  15.581  0.0104  0.0646  0.1591
29643W        W45777   8.036  17.388  13.184 -0.0803 -0.0020 -0.2183
29644W        W45778   6.127   1.883  12.328 -0.1489 -0.0167  0.2034
29645W        W45779  17.593   5.576  14.382  0.0340 -0.0938 -0.0946
29646W        W45780  17.137   9.965   3.853  0.0352  0.2102  0.0795
29647W        W45781   4.988  11.391  15.177 -0.3218 -0.0359  0.2780
29648W        W45782   8.853   9.381   5.762  0.3035 -0.0864  0.1289
29649W        W45783   2.223  10.316   4.232  0.1597 -0.1914  0.0126
29650W        W45784  13.415  14.413  13.750  0.1194  0.3672 -0.1548
29651W        W45785  16.983   0.277  15.849  0.1789 -0.0864  0.0433
29652W        W45786  12.731  17.033  12.832 -0.2034  0.1211 -0.1104
29653W        W45787   0.493   3.725   0.121 -0.0583  0.2023  0.0776
29654W        W45788   6.364   6.145   3.498 -0.4116  0.1600 -0.0362
29655W        W45789   9.549  13.149  13.411  0.2885 -0.0795 -0.0313
29656W        W45790   1.139   0.872   5.324  0.0928  0.0958  0.0118
29657W        W45791   5.647  12.860   1.560 -0.1514  0.1156 -0.0323
29658W        W45792  11.903   6.914   5.868 -0.0093 -0.1108 -0.1066
29659W        W45793  10.573   3.616  13.465  0.0381 -0.0348  0.1078
29660W        W45794   1.402   6.219   2.392  0.1438  0.0122  0.1999
29661W        W45795  11.491   6.879  13.531 -0.0504 -0.4237 -0.2851
29662W        W45796  17.046   5.667   4.048  0.1110 -0.0032  0.0982
29663W        W45797   6.425   2.718  11.541 -0.2725  0.0949  0.2460
29664W        W45798  17.706   5.559  11.690  0.2614 -0.0740 -0.1349
29665W        W45799  14.019  13.744   5.563 -0.1837 -0.0524  0.1342
29666W        W45800  12.481   4.061  14.393 -0.0865  0.1526  0.1547
29667W        W45801  15.911   5.823   0.263 -0.0480  0.0750 -0.2158
29668W        W45802   1.469   4.927  12.808 -0.2261 -0.2200  0.0522
29669W        W45803   3.287  12.285  10.550 -0.0769 -0.0290 -0.0424
29670W        W45804   8.294   9.388   0.473 -0.0046  0.1702 -0.0311
29671W        W45805   3.523   9.247   3.992  0.4229  0.3436 -0.2320
29672W        W45806  15.813   7.144   3.026  0.1832 -0.1976  0.1556
29673W        W45807  11.281   3.084  16.218  0.0046  0.0505 -0.0110
29674W        W45808   2.329  13.403  15.386  0.1641  0.0894  0.0827
29675W        W45809  16.820   5.269  15.506  0.2771 -0.1568 -0.0964
29676W        W45810   9.838  11.674   1.209  0.0793  0.0266  0.0036
29677W        W45811  14.563   1.915  13.416  0.0857  0.2019 -0.2518
29678W        W45812   9.937  17.053  16.163  0.3300  0.0818 -0.0896
29679W        W45813  12.356  13.524  15.026  0.0625  0.0130  0.0924
29680W        W45814   7.131  14.180  16.064 -0.0685  0.1515 -0.0223
29681W        W45815   4.938   5.915  13.383  0.1317 -0.0476  0.1239
29682W        W45816  14.288   2.147  14.328  0.1318  0.1005  0.2037
29683W        W45817  10.050   5.834   0.482  0.1438 -0.0882  0.0181
29684W        W45818   9.122  16.358  11.950 -0.1204 -0.0556 -0.1255
29685W        W45819   6.765   9.374  13.662  0.2201 -0.2647  0.0988
29686W        W45820  11.596   5.854  15.390 -0.2149 -0.0717 -0.3841
29687W        W45821   1.013   3.148   5.249  0.4575 -0.1126 -0.0381
29688W        W45822   9.985  14.049  14.261 -0.0375 -0.1211  0.1612
29689W        W45823   2.102   8.413   5.874 -0.1627  0.0012 -0.0804
29690W        W45824  14.017   9.536  12.671  0.0786  0.2436 -0.1451
29691W        W45825  16.010  15.410   0.082  0.3596  0.0019  0.2263
29692W        W45826  16.054  17.460  11.960 -0.1880  0.0982  0.0698
29693W        W45827   2.766   3.682  11.422  0.0986 -0.0258  0.3457
29694W        W45828  14.136  17.765   2.860 -0.0424  0.1193 -0.0899
29695W        W45829   6.899  13.584   0.186 -0.0444 -0.1257 -0.1345
29696W        W45830   2.529   8.985  15.351 -0.0247  0.0198 -0.1196
29697W        W45831  14.258   1.888   4.121 -0.4898  0.0895 -0.0778
29698W        W45832  10.440   6.986  16.223  0.0932 -0.0086  0.0656
29699W        W45833   1.583  15.597  16.377  0.2560 -0.1506  0.1424
29700W        W45834   5.431   3.249  16.105  0.2812 -0.1161 -0.0557
29701W        W45835  15.157   2.508  14.636 -0.0775 -0.0352  0.2137
29702W        W45836  11.790  14.979  14.609 -0.4284  0.1422 -0.1421
29703W        W45837   3.921   5.088   2.064 -0.2023 -0.1286  0.2498
29704W        W45838   6.269   1.423   5.420  0.1540  0.0615 -0.1305
29705W        W45839   4.294  16.927   1.419  0.1430 -0.0191 -0.0509
29706W        W45840   2.396   7.117   1.830 -0.2265 -0.0922 -0.0203
29707W        W45841  18.033  15.785  11.323 -0.0989 -0.0677  0.2641
29708W        W45842   3.516  16.270  14.495 -0.2293 -0.1686 -0.1824
29709W        W45843   2.279   5.188   2.412  0.2405 -0.1708  0.3841
29710W        W45844   6.985   1.542   2.317 -0.0315 -0.0193 -0.1833
29711W        W45845   8.915  16.315   3.092 -0.0821  0.1089 -0.3363
29712W        W45846  11.793   7.769   4.542  0.1823 -0.2421  0.1879
29713W        W45847   0.983   2.107   0.012  0.2718 -0.0040 -0.2947
29714W        W45848  14.334   5.520   4.574 -0.0637 -0.0677  0.0786
29715W        W45849  11.161   7.441   4.130  0.0229 -0.0012  0.0336
29716W        W45850  10.274   6.653  13.991 -0.1579 -0.0394  0.1395
29717W        W45851   6.491   2.177   3.791  0.0479  0.0465  0.0418
29718W        W45852   4.557   5.361  14.252  0.0176 -0.2979 -0.1597
29719W        W45853  16.781  13.973  15.661 -0.0896 -0.0545 -0.2576
29720W        W45854   1.413   5.768   0.244 -0.0475  0.2238 -0.0252
29721W        W45855   8.740  10.069  10.800  0.3079  0.2930 -0.4260
29722W        W45856   1.832   0.156   0.030 -0.1072 -0.0432  0.3923
29723W        W45857   9.877  15.096   2.163  0.1179  0.1683 -0.0786
29724W        W45858   3.356   1.206  14.064  0.4257  0.1103  0.0391
29725W        W45859   7.043   2.205   1.160 -0.1261  0.1596  0.2950
29726W        W45860  10.218  15.790  13.210  0.1408  0.1307 -0.1398
29727W        W45861  14.664   7.665  12.590 -0.4179 -0.2254  0.0489
29728W        W45862   0.603   0.681   3.018  0.0700  0.0338  0.2329
29729W        W45863  16.292  16.229   4.045 -0.0513 -0.1566 -0.0976
29730W        W45864   4.579  17.294  13.846  0.1101 -0.0032 -0.2072
29731W        W45865  16.048   9.304   0.703 -0.1639 -0.0148  0.2064
29732W        W45866   2.419   3.077  13.218  0.1380  0.1267 -0.0343
29733W        W45867   9.245   9.383  14.755 -0.4739 -0.0452  0.1377
29734W        W45868   7.607  10.394  12.642 -0.2618 -0.0877 -0.2696
29735W        W45869  17.867   5.203  14.254 -0.0280 -0.1159  0.1662
29736W        W45870  14.188  17.463  11.547  0.1794 -0.0845 -0.0848
29737W        W45871  11.484   0.285  14.459 -0.0436 -0.1126  0.1201
29738W        W45872   9.958   3.582  13.496 -0.1312 -0.1075  0.0670
29739W        W45873  16.447  17.139   4.346 -0.1147 -0.0613  0.1291
29740W        W45874  16.973   3.212   0.292  0.2172 -0.1908  0.0839
29741W        W45875   5.704   6.215   4.833 -0.0972 -0.1241  0.0080
29742W        W45876   8.758   8.359  16.261 -0.3122 -0.2466  0.1864
29743W        W45877  10.079  15.881   5.232  0.0072  0.1860  0.3446
29744W        W45878  11.085   2.875   2.628 -0.1868  0.0122 -0.0384
29745W        W45879   0.039  12.841   5.535 -0.0525 -0.0150 -0.2818
29746W        W45880  12.129  10.326   5.581 -0.1754  0.0526  0.0376
29747W        W45881   0.301   8.838  11.732 -0.5630  0.0230  0.2178
29748W        W45882  15.169   9.476   4.142 -0.7677 -0.2868 -0.2631
29749W        W45883  13.554   1.389  15.717  0.5689  0.0624  0.0703
29750W        W45884  14.027   6.312  12.235  0.1206 -0.1531 -0.0336
29751W        W45885   8.304   1.547   4.047  0.0314 -0.0084  0.3189
29752W        W45886   8.035  11.171   3.746 -0.1025  0.0420  0.1990
29753W        W45887   5.492   2.563  12.596  0.0815 -0.3253 -0.1764
29754W        W45888   4.959  12.809  15.357 -0.1601  0.1860  0.0353
29755W        W45889   0.531  15.771   0.074 -0.0233 -0.0217 -0.1154
29756W        W45890   4.762  17.931   3.646  0.0061  0.0122 -0.2850
29757W        W45891   8.266   2.861  13.139 -0.0216 -0.1764  0.1176
29758W        W45892   4.734  11.942   0.892 -0.0312 -0.0015  0.2007
29759W        W45893  17.075  16.979  12.434  0.0468  0.2007  0.0417
29760W        W45894  17.095  12.144   2.871 -0.1383  0.2092 -0.0685
29761W        W45895   2.368   3.127  11.681  0.2106 -0.0466 -0.0204
29762W        W45896   2.078   4.927   0.071  0.0516 -0.0310 -0.0616
29763W        W45897   4.634  14.518  11.204 -0.0281  0.2662  0.2693
29764W        W45898   7.006   5.800  15.512  0.0862  0.0053 -0.2523
29765W        W45899   0.428   9.772  16.409  0.2118  0.0094 -0.0414
29766W        W45900   8.745   6.496  11.399  0.3163 -0.1165  0.1908
29767W        W45901  13.159   1.628   2.331 -0.1386 -0.1364 -0.0104
29768W        W45902   9.463  16.270  15.999 -0.2305  0.2487  0.2021
29769W        W45903  14.221  14.079  15.509 -0.0462 -0.4690 -0.0807
29770W        W45904   0.527  15.988   4.285  0.0994 -0.0116  0.0460
29771W        W45905  17.668   7.431  14.100  0.1181  0.1039 -0.1666
29772W        W45906   9.492  14.005   3.171  0.3660 -0.2420  0.3715
29773W        W45907   8.420   4.635   1.850  0.2412 -0.0769 -0.0481
29774W        W45908   9.852   0.836   5.185  0.2928  0.0224  0.3233
29775W        W45909   6.240   2.371  15.553  0.0617 -0.1848 -0.3798
29776W        W45910   4.778   0.277   2.291  0.2011 -0.2225  0.0874
29777W        W45911   3.096   0.828  13.193  0.0621  0.2336  0.1111
29778W        W45912  13.906  11.078  16.283  0.0866 -0.0193 -0.2014
29779W        W45913   5.338  12.336   4.660 -0.4385  0.3572 -0.2104
29780W        W45914   6.801   0.189  14.803  0.2876 -0.0036 -0.2216
29781W        W45915  14.200   9.738   2.839 -0.3276 -0.0823 -0.0354
29782W        W45916   7.990   4.810   3.651 -0.1751  0.0658 -0.1448
29783W        W45917   4.767  13.679   2.353 -0.0210 -0.0052  0.1055
29784W        W45918   7.731  10.859  11.395 -0.1028 -0.0594  0.1210
29785W        W45919   4.250   9.852  11.965 -0.3863  0.1250  0.2502
29786W        W45920  10.836  14.118   1.579  0.2457  0.2295 -0.2343
29787W        W45921  11.734   4.411   4.654  0.0043  0.3053  0.0284
29788W        W45922   4.752   2.176  15.919  0.0689 -0.2871 -0.0995
29789W        W45923   4.159  15.700   2.554  0.0012  0.0786 -0.1618
29790W        W45924   4.483  15.582   0.145  0.1317  0.2649 -0.0973
29791W        W45925  12.040   9.419  13.534 -0.0497 -0.1505 -0.1241
29792W        W45926   6.969  13.768   4.302  0.0675  0.3713 -0.2619
29793W        W45927   2.961   7.655  13.837  0.0311  0.0222 -0.0161
29794W        W45928   4.758   3.958  13.539 -0.0325 -0.1042  0.2152
29795W        W45929   1.532  10.305   2.927 -0.0286  0.0513  0.0494
29796W        W45930  10.300   7.793  10.914  0.0835 -0.1461  0.3168
29797W        W45931   1.204   8.610  14.039  0.1301  0.1573 -0.2355
29798W        W45932  10.342  16.614   1.839  0.0566  0.1364 -0.1917
29799W        W45933   4.023  10.944  15.540 -0.0010  0.0749  0.1842
29800W        W45934  10.575   3.780   3.142 -0.1375 -0.1151  0.0861
29801W        W45935   7.070  13.810  13.292  0.0097  0.2940  0.2174
29802W        W45936  12.369  16.143   1.067  0.0950  0.0283 -0.1689
29803W        W45937   1.216   5.124  13.181  0.2344  0.2672  0.1025
29804W        W45938   0.408   4.754  10.036 -0.0865 -0.2227  0.0695
29805W        W45939   3.232   6.885  13.565  0.1559 -0.2946 -0.1863
29806W        W45940  15.538   4.011  13.584  0.1439 -0.0381  0.3001
29807W        W45941  17.279   0.427   2.913  0.0520 -0.0931 -0.2894
29808W        W45942  10.150   8.877   0.392 -0.1769 -0.2096  0.0114
29809W        W45943   5.893   6.368   2.391  0.1632  0.1277 -0.0439
29810W        W45944  14.085   9.226   1.696  0.4548 -0.2346  0.0371
29811W        W45945  17.434  17.314  12.637  0.0523  0.2145 -0.1721
29812W        W45946   3.432   0.554   2.989  0.1864  0.2365  0.4019
29813W        W45947  10.119   3.167   2.493  0.0631 -0.0424 -0.1571
29814W        W45948   7.088   9.341   5.636  0.2818  0.2944  0.2736
29815W        W45949  15.281  16.239  12.932 -0.0108 -0.0696 -0.1198
29816W        W45950  14.197   8.685   4.480 -0.1202  0.1052 -0.0166
29817W        W45951  11.688   0.606  15.605 -0.0332  0.2110  0.0437
29818W        W45952  16.831   0.216  14.212  0.1205  0.0603  0.4170
29819W        W45953   0.796  16.608  14.355  0.1317 -0.1869 -0.0581
29820W        W45954   0.532  11.083  13.432  0.0968 -0.2739  0.3805
29821W        W45955   2.081  11.162  11.105 -0.1501  0.0154  0.0944
29822W        W45956   3.520   0.101   2.261  0.2576 -0.3081  0.0665
29823W        W45957  13.431   4.523   4.133  0.0259 -0.1541 -0.0538
29824W        W45958   3.489   6.507  13.763  0.1134  0.1834  0.0546
29825W        W45959  10.781   3.365   4.126 -0.0829  0.0797  0.2823
29826W        W45960   2.124   2.078  11.248 -0.1805  0.1923  0.2051
29827W        W45961   2.977  10.011  13.324  0.0993 -0.0104  0.0658
29828W        W45962  17.686   0.615  16.298 -0.1579  0.1208  0.1472
29829W        W45963   2.539   3.233   2.122  0.1882  0.2580 -0.1290
29830W        W45964   3.931   0.896  13.283  0.2800  0.1465 -0.1291
29831W        W45965  14.720   8.819   3.730  0.0713  0.0209  0.1620
29832W        W45966   8.391   7.799   3.716 -0.0642  0.2166 -0.2818
29833W        W45967   1.132   0.384  13.987 -0.2261  0.0531 -0.0971
29834W        W45968   6.747  12.944   3.515  0.0301  0.0038  0.0774
29835W        W45969  10.697   6.427   1.387 -0.3185 -0.0590 -0.1814
29836W        W45970   2.361  12.459  11.831 -0.0673  0.1457  0.2310
29837W        W45971  17.067  12.377   5.193 -0.0412 -0.2711 -0.0773
29838W        W45972   2.738  12.801  13.655  0.2515  0.0289  0.2344
29839W        W45973  10.255  10.356   1.850  0.1001 -0.2111  0.1161
29840W        W45974  15.438   0.848   3.779  0.0770 -0.1019  0.3160
29841W        W45975  10.640  14.558   1.837 -0.0421  0.0665 -0.1171
29842W        W45976   8.242   9.138  13.869 -0.1250 -0.0109  0.0585
29843W        W45977   3.776  13.795  14.234  0.1218 -0.0646  0.2222
29844W        W45978   2.207   9.351  16.296 -0.1660  0.1001  0.0131
29845W        W45979  11.217  17.034  12.448 -0.1228  0.3837 -0.0477
29846W        W45980   3.234   3.859   3.065  0.4406  0.0926  0.1115
29847W        W45981  15.757   6.179   3.593 -0.0205  0.1691 -0.1402
29848W        W45982  12.602   1.456  13.094 -0.0047 -0.0085 -0.1358
29849W        W45983   2.126  10.184  11.963  0.2092  0.1923 -0.1143
29850W        W45984  10.809   6.365  12.707 -0.0053 -0.0114 -0.1999
29851W        W45985   8.158  10.203   4.697  0.0878 -0.0860  0.1519
29852W        W45986   1.030  15.105   1.242 -0.0763  0.2787  0.2303
29853W        W45987  17.900  14.020  14.950 -0.3043 -0.1677 -0.0270
29854W        W45988  13.525   3.751  11.634 -0.0530  0.3143 -0.0894
29855W        W45989  14.504   4.125  11.446  0.4428 -0.4194 -0.0096
29856W        W45990  10.941  10.489  14.395  0.1079 -0.1381 -0.0833
29857W        W45991   4.904   7.123  14.846 -0.1316  0.0925  0.0521
29858W        W45992   2.551   2.921  14.790 -0.1036 -0.1339  0.0578
29859W        W45993   3.184   1.874   5.759  0.0142  0.2964  0.1184
29860W        W45994   4.887  13.364  16.235 -0.0667  0.0912 -0.1193
29861W        W45995  15.035   5.962  10.267 -0.2693  0.3444 -0.1036
29862W        W45996   3.988  12.681  11.864 -0.0638  0.1260 -0.0259
29863W        W45997  16.852  14.171   0.643  0.0183 -0.1276  0.0340
29864W        W45998  11.294  16.114   5.800  0.0845  0.2208  0.0293
29865W        W45999   2.409  15.234   3.002  0.0747  0.2810  0.2999
29866W        W46000   3.834  18.007   5.362 -0.0458 -0.2151 -0.0580
29867W        W46001   6.108   4.889   4.054 -0.1128  0.1422 -0.0092
29868W        W46002  15.282   8.880  13.789 -0.0615  0.1011 -0.0729
29869W        W46003  10.698  11.559  15.285 -0.0032 -0.1319 -0.0032
29870W        W46004   0.495  15.641   5.350 -0.0955  0.2915 -0.2325
29871W        W46005  13.396   5.207  12.714  0.0462  0.2977 -0.1481
29872W        W46006  10.121   5.802   5.277  0.0627  0.1155  0.1938
29873W        W46007   5.547   9.981   5.525  0.0895 -0.1819  0.0309
29874W        W46008  12.813   6.787  16.298 -0.2283  0.3087  0.2799
29875W        W46009  16.527  16.521   2.138  0.0447 -0.0190  0.1256
29876W        W46010  11.764   8.681  16.273  0.0238 -0.2722  0.2469
29877W        W46011  10.231   0.528  15.491  0.0437 -0.0820  0.0134
29878W        W46012   9.691  16.558  13.133  0.3880 -0.4072  0.1980
29879W        W46013  17.257   3.883  11.428  0.0895  0.0186  0.1275
29880W        W46014  13.781   6.875  13.418  0.2483 -0.2067 -0.0064
29881W        W46015   0.127   2.006  15.888 -0.3193 -0.1398  0.0213
29882W        W46016  10.998   8.786  11.416  0.1101 -0.0505  0.0023
29883W        W46017   5.073  18.028   1.745 -0.1340 -0.0962 -0.0401
29884W        W46018  11.142  13.734   0.142 -0.3867  0.0699 -0.2225
29885W        W46019   4.961  16.477   0.861 -0.0135  0.0536 -0.0422
29886W        W46020   1.614   1.034  11.664  0.1237 -0.3613  0.2514
29887W        W46021   6.770   0.431   3.960  0.1005 -0.0017 -0.0829
29888W        W46022   6.103  12.033   0.969 -0.2739  0.0015 -0.4699
29889W        W46023   4.723   5.151   2.673  0.1659  0.0202  0.0533
29890W        W46024   4.380  12.469  12.476 -0.5013 -0.0876 -0.4112
29891W        W46025   1.075   1.523   6.308  0.0800 -0.0129 -0.0845
29892W        W46026   0.072  11.384  10.852 -0.2918 -0.0794 -0.1359
29893W        W46027  13.554  11.733  13.777 -0.0641 -0.0047  0.0203
29894W        W46028  12.657  17.795  14.832 -0.1253 -0.0007 -0.1103
29895W        W46029   0.332  10.615   5.204 -0.1202  0.2047 -0.2630
29896W        W46030   4.235   8.749   3.983  0.0179  0.0317 -0.1415
29897W        W46031  11.341  14.188   1.580  0.1216 -0.0707 -0.0885
29898W        W46032  16.825   0.636   2.035 -0.1127  0.4176  0.0235
29899W        W46033  16.960  12.797   1.706 -0.2070  0.1224 -0.0272
29900W        W46034  13.015  11.393   1.277  0.4863  0.0930 -0.0793
29901W        W46035   7.940  11.745   3.955  0.0346  0.0735 -0.0183
29902W        W46036   8.415   6.488  15.945  0.2425  0.0687 -0.1424
29903W        W46037   4.199  10.281   1.286  0.1250 -0.2118  0.2184
29904W        W46038   2.556  10.325   0.310  0.1269 -0.3794 -0.0951
29905W        W46039   6.285   9.180  16.186  0.2533 -0.1064  0.0097
29906W        W46040   1.242  15.793  15.984 -0.0757 -0.1672  0.0476
29907W        W46041   2.703  15.920  13.256 -0.0611  0.1295  0.2196
29908W        W46042   0.555   1.628  15.848 -0.0786  0.1228  0.0514
29909W        W46043   9.189   4.473   4.885 -0.1664  0.1477 -0.2711
29910W        W46044   8.214   3.672   2.918  0.0698 -0.2095  0.2779
29911W        W46045   6.115   6.622   3.526 -0.2982 -0.1656 -0.0063
29912W        W46046  16.590   5.110   2.503  0.2342 -0.0956 -0.0464
29913W        W46047   8.263  16.175  14.897 -0.0807  0.0547 -0.0600
29914W        W46048   9.599  14.177  11.950 -0.0936  0.2527 -0.0173
29915W        W46049   6.217  10.196   0.747 -0.0140 -0.1355  0.0462
29916W        W46050  14.596  14.288   3.481  0.2299  0.0476  0.1636
29917W        W46051   8.671  17.291  11.878 -0.2737  0.1358 -0.0905
29918W        W46052  13.025   4.573   0.920 -0.1206  0.0392  0.1944
29919W        W46053  12.864   7.096  13.486 -0.0533 -0.0604  0.0536
29920W        W46054   6.595  13.392  12.068  0.3308  0.0749  0.0282
29921W        W46055  14.349  15.185  11.792 -0.1905 -0.0273 -0.0479
29922W        W46056   2.664  10.760  11.410 -0.3271 -0.0924  0.0403
29923W        W46057   2.105   8.639   0.797  0.1555 -0.0448  0.1225
29924W        W46058   6.744   0.299  13.943  0.0864  0.0964 -0.0704
29925W        W46059   2.756   6.032   2.489  0.2513  0.2853 -0.4247
29926W        W46060   6.525  13.032  11.699 -0.1230 -0.0169 -0.2054
29927W        W46061   5.950   2.733   5.596  0.1956  0.0207 -0.2369
29928W        W46062  11.060  17.723   3.607  0.1338 -0.3166  0.3817
29929W        W46063  17.373   2.214   5.192  0.2824  0.0099 -0.3106
29930W        W46064  10.135   4.996   3.919  0.1921  0.0614 -0.1711
29931W        W46065  16.026   0.682  13.503  0.2560 -0.1373  0.1289
29932W        W46066   0.042  13.362  13.088 -0.2310 -0.1438  0.1234
29933W        W46067  11.121   6.904  15.543 -0.4805 -0.0676 -0.3568
29934W        W46068   2.465   3.926   3.472  0.0469 -0.1494  0.2134
29935W        W46069  11.177  16.427   6.148 -0.0978  0.1445  0.0315
29936W        W46070   8.907   3.099  12.728 -0.2252  0.1546 -0.0667
29937W        W46071   9.107  13.836   5.046  0.0762 -0.1044 -0.0253
29938W        W46072  12.098   2.915  12.998  0.1986  0.1256 -0.0793
29939W        W46073  10.314  14.722  10.921 -0.2076 -0.2459 -0.0061
29940W        W46074  13.660  11.273  15.309  0.0467  0.1322  0.1362
29941W        W46075  12.049   2.340  11.686 -0.0236 -0.2786 -0.0025
29942W        W46076  16.527   4.980   3.952 -0.1798 -0.1937  0.0171
29943W        W46077   6.974  13.747   0.718 -0.1072  0.0508 -0.2860
29944W        W46078   3.422   3.180  14.602 -0.0107  0.2390  0.2102
29945W        W46079   6.211   1.423  11.594  0.4528 -0.0248  0.0068
29946W        W46080  12.325   8.016  15.626 -0.0909 -0.1279 -0.0044
29947W        W46081  16.853   2.777  16.363 -0.0057  0.1573 -0.0666
29948W        W46082  16.828  13.490   0.104  0.0055 -0.0412  0.0905
29949W        W46083   6.851   5.982   1.126  0.0181  0.2094  0.1652
29950W        W46084   2.414   7.551   0.119  0.1554  0.1805 -0.1326
29951W        W46085  12.638   8.922   2.614  0.0182  0.0196 -0.2777
29952W        W46086   3.348   7.297   2.202  0.0623  0.3104  0.4507
29953W        W46087  13.384  11.018  13.162  0.0051  0.0095 -0.0296
29954W        W46088   5.671   4.878   3.441 -0.1343 -0.2944  0.1342
29955W        W46089   8.251  16.667   1.240 -0.1167  0.0245 -0.2966
29956W        W46090  14.220   2.459  11.758  0.1200 -0.0015 -0.0721
29957W        W46091  15.014   2.939  10.850 -0.0602  0.0758  0.2874
29958W        W46092   8.603   0.522  12.284  0.0476  0.0659  0.0259
29959W        W46093   5.868  11.865   1.788 -0.2799 -0.0654 -0.0862
29960W        W46094   0.924  11.598   3.817  0.1399 -0.1105 -0.2035
29961W        W46095   0.705   4.725  11.443  0.1388  0.1360 -0.1578
29962W        W46096   2.520   4.751  14.089  0.1488 -0.1817 -0.0688
29963W        W46097  17.119   6.381  14.887 -0.1137 -0.0485  0.2273
29964W        W46098  14.862   2.243   0.991  0.0136 -0.5802 -0.2299
29965W        W46099  17.953   4.008   2.702  0.0309  0.0598  0.2941
29966W        W46100  13.160   2.829   4.591 -0.0482  0.3112  0.2256
29967W        W46101   9.230   2.619  12.769 -0.2182  0.0680 -0.3907
29968W        W46102  14.995   9.374  11.918  0.0952 -0.0995  0.2704
29969W        W46103   2.580   9.966  13.595 -0.0536  0.1582 -0.0088
29970W        W46104   2.160   0.454  14.373  0.1080 -0.2482 -0.0286
29971W        W46105   7.325   2.909   2.457 -0.1569 -0.0342  0.0612
29972W        W46106  17.375  10.965  14.287  0.1424  0.0115  0.0953
29973W        W46107   2.622   3.181  12.234  0.1062 -0.1059  0.1284
29974W        W46108  13.424  14.587  13.296 -0.1468 -0.1627 -0.4751
29975W        W46109   2.526  15.160   3.632 -0.1212 -0.1825 -0.2308
29976W        W46110   4.968   4.745  14.121 -0.0236 -0.1174 -0.0278
29977W        W46111   3.258   0.518  12.061 -0.0467 -0.0595 -0.0461
29978W        W46112  10.286   9.257   3.874 -0.0437  0.1337 -0.1631
29979W        W46113   8.212  15.584   4.449  0.0748  0.0866 -0.0549
29980W        W46114   2.668   2.705  11.955  0.2467  0.1880  0.2271
29981W        W46115   5.790   3.816  15.959  0.1810 -0.2666  0.1078
29982W        W46116   3.776  14.004   4.321  0.0966 -0.0150 -0.1585
29983W        W46117  12.768  14.956   3.999  0.0645 -0.2836  0.1178
29984W        W46118   6.186   4.841  14.562  0.1140 -0.0314  0.1759
29985W        W46119   1.852  11.567   5.236 -0.0622  0.0356  0.1380
29986W        W46120  11.712  14.928   2.670  0.2235 -0.2285 -0.0265
29987W        W46121  14.871   7.475   3.044  0.0785  0.1208  0.0774
29988W        W46122  14.932   2.376  12.649  0.1071  0.0971 -0.0044
29989W        W46123   1.360   7.876  16.097  0.1468 -0.0540  0.0189
29990W        W46124  17.818   0.481  11.447 -0.0953  0.0529 -0.0057
29991W        W46125   4.792   5.771  16.038 -0.0465  0.3918 -0.0392
29992W        W46126   0.703   1.141   3.261 -0.0643 -0.0989  0.1141
29993W        W46127  11.686   0.060  13.596  0.3085 -0.3353  0.0311
29994W        W46128  13.489   2.065   1.192  0.3675 -0.1049  0.2737
29995W        W46129  14.008  13.273  11.424  0.3184  0.0720  0.2876
29996W        W46130   8.155   9.770   2.788 -0.1494 -0.2911 -0.1298
29997W        W46131  14.356   5.315  12.733 -0.2901  0.0165  0.2262
29998W        W46132   9.260   4.313   0.680 -0.2741 -0.1289  0.2209
29999W        W46133  12.632   4.887   1.619 -0.1329  0.0173  0.1272
30000W        W46134   8.379  13.141  15.956  0.0892  0.1515 -0.2181
30001W        W46135   9.483   5.867  11.489  0.0716  0.0900  0.2360
30002W        W46136  14.617  15.966   2.688 -0.1172  0.3493 -0.3387
30003W        W46137   6.241  16.733  13.741  0.2390 -0.3979  0.0096
30004W        W46138  16.833   1.812  14.905 -0.1723 -0.3119  0.0683
30005W        W46139   0.227   6.359  14.590 -0.0113  0.1784 -0.0453
30006W        W46140  17.243  16.585   5.785 -0.2106 -0.0319 -0.0223
30007W        W46141   6.082   6.993  11.750 -0.0527  0.1076  0.1192
30008W        W46142   0.599   2.315   4.792  0.2631 -0.0112 -0.0604
30009W        W46143   0.847   0.193   2.608 -0.0444 -0.0572 -0.1321
30010W        W46144  11.353  15.155   0.005  0.0759  0.1731 -0.0963
30011W        W46145   8.556  10.018   0.016  0.2377  0.0683 -0.1668
30012W        W46146   6.524  17.008   2.289  0.0332  0.0994  0.1168
30013W        W46147  15.769  15.673   0.613  0.3258  0.0203 -0.2099
30014W        W46148   6.450  11.432  11.889 -0.3728  0.0599  0.0611
30015W        W46149   8.669   0.056   2.214  0.0084  0.0683  0.0073
30016W        W46150   8.494   4.754   1.003 -0.1174 -0.2299 -0.1504
30017W        W46151  13.778  17.260  12.687 -0.1736 -0.0603 -0.0246
30018W        W46152   4.483   2.883  13.276 -0.0423 -0.0200  0.2116
30019W        W46153   0.216   5.121   2.641 -0.2994  0.0472 -0.0280
30020W        W46154   6.543  11.453   2.578 -0.0587  0.2466  0.1798
30021W        W46155  10.008   8.465   0.072  0.2137  0.0307  0.1977
30022W        W46156  17.993   5.297   1.784  0.1361  0.1265  0.1100
30023W        W46157   0.251  13.728   5.312  0.2529  0.0046  0.1023
30024W        W46158  16.743  15.114  14.084  0.4264 -0.2890  0.0403
30025W        W46159  13.230  12.479   4.163 -0.0400  0.0948 -0.1982
30026W        W46160  13.659  14.781  14.793 -0.1243  0.3044  0.0914
30027W        W46161  17.433  10.907   3.598 -0.1250 -0.0082 -0.0259
30028W        W46162   0.589   1.164  14.642 -0.1568  0.0563 -0.0735
30029W        W46163  11.780  14.039  12.541  0.3590  0.0596  0.2937
30030W        W46164   7.680  13.224   4.866 -0.0224 -0.0176 -0.0756
30031W        W46165  13.463  10.087   4.403  0.0840  0.1785 -0.0727
30032W        W46166   7.388   2.715  11.678  0.4087 -0.1542  0.1432
30033W        W46167   1.689  13.608   5.386  0.0996  0.0408 -0.1319
30034W        W46168   6.065  10.603   2.445 -0.2442 -0.2314  0.4327
30035W        W46169   5.557  16.938  15.321 -0.1068 -0.1669 -0.0268
30036W        W46170  16.932   7.619  13.369 -0.2195 -0.2442 -0.1020
30037W        W46171   3.919   5.642   2.097 -0.0169 -0.1097  0.0079
30038W        W46172  10.962   2.664   3.623 -0.1240  0.0432  0.0683
30039W        W46173   8.150   5.988  14.048  0.2408 -0.1325  0.0216
30040W        W46174  11.483  16.845  11.268  0.0464  0.1561 -0.2292
30041W        W46175  11.559  13.604  12.647  0.1075 -0.0896 -0.0372
30042W        W46176   2.346   6.181   5.023 -0.2577 -0.1333  0.0644
30043W        W46177   9.308  16.836   5.248 -0.0356  0.1182  0.2712
30044W        W46178   1.672  16.009   0.760 -0.0194  0.0411  0.1952
30045W        W46179  17.894   8.688  13.856  0.1951  0.2287  0.2543
30046W        W46180  15.529   8.605   0.175  0.1693 -0.1323 -0.3204
30047W        W46181   1.010   7.827  12.358  0.0128  0.1940 -0.1788
30048W        W46182   9.537   5.110  12.467 -0.0384 -0.1119 -0.1736
30049W        W46183   4.278  15.014  13.787  0.0397  0.0992 -0.1801
30050W        W46184  13.161   7.662  14.354 -0.2230 -0.0729  0.0785
30051W        W46185  10.767   4.324  11.447 -0.0732  0.1885  0.2034
30052W        W46186   2.811   8.096   2.377 -0.0012 -0.1163  0.0672
30053W        W46187  17.684   3.422   3.590  0.0777  0.1790 -0.2232
30054W        W46188   4.619  15.988  14.012 -0.1168  0.0168 -0.1225
30055W        W46189  12.382   2.553  15.812  0.0635  0.3141  0.0839
30056W        W46190  12.164   7.996  11.908 -0.1288  0.1170  0.1156
30057W        W46191  13.245  17.985   5.327 -0.0475 -0.0578  0.4242
30058W        W46192  14.700   1.136   3.115 -0.1327 -0.1980  0.1554
30059W        W46193   9.549   5.808   2.151  0.2604  0.1512 -0.1750
30060W        W46194   5.464   0.844   3.635 -0.0979 -0.1985 -0.0208
30061W        W46195   7.823  13.014   2.849  0.0824 -0.0166 -0.1666
30062W        W46196   0.920  14.640  12.779  0.0731  0.1035 -0.1351
30063W        W46197   3.036  12.040   1.837 -0.2907 -0.0904 -0.1231
30064W        W46198   2.368  12.671   6.289 -0.1318 -0.4344 -0.1358
30065W        W46199  16.062   4.200   3.510  0.0294 -0.0337 -0.0177
30066W        W46200   7.484   7.266   2.897 -0.1982 -0.1042 -0.2053
30067W        W46201  17.857   8.431   4.421  0.1975 -0.0327 -0.0900
30068W        W46202   1.752   6.079  15.228 -0.3776 -0.1552  0.1643
30069W        W46203   7.432  12.848  11.804 -0.1223  0.1283 -0.3358
30070W        W46204  15.805   1.155   4.900 -0.1189 -0.0715  0.0685
30071W        W46205  16.836   5.962  16.364  0.0563 -0.0454  0.2988
30072W        W46206   8.339   0.128   4.503  0.0297 -0.1558  0.1273
30073W        W46207   6.696  11.941  13.783  0.3020 -0.3804  0.1260
30074W        W46208  11.462   5.933  13.357  0.0400 -0.2966 -0.1902
30075W        W46209  12.564   6.770  15.824 -0.3551  0.2123 -0.1540
30076W        W46210  16.717  17.585  16.261  0.0157  0.1580 -0.2863
30077W        W46211  14.202  11.816  11.672 -0.0837  0.0268  0.2475
30078W        W46212  13.925  10.359  15.529  0.1328 -0.2079  0.0314
30079W        W46213  16.191   6.120   1.515  0.0304 -0.0439 -0.1871
30080W        W46214   2.648  10.237  16.218  0.3219 -0.2343  0.1651
30081W        W46215  11.481  10.442  15.920 -0.1735  0.0068 -0.0587
30082W        W46216   5.483   7.518   5.658  0.1863 -0.3513  0.1460
30083W        W46217   4.173   1.811   4.730 -0.0546  0.0223 -0.1274
30084W        W46218  13.324   8.550   4.858 -0.4727  0.1409 -0.0301
30085W        W46219  13.043   5.178   3.505  0.0590  0.2654  0.1368
30086W        W46220  10.277   4.812   2.830  0.1222 -0.2175 -0.2882
30087W        W46221   0.410   0.203  12.021 -0.0117  0.0683  0.2264
30088W        W46222  12.277   8.186  14.716  0.1415 -0.1293  0.0551
30089W        W46223   1.627   9.818  14.746  0.0263  0.2459 -0.1975
30090W        W46224   1.287  15.413  14.426 -0.1194 -0.0247  0.0495
30091W        W46225  10.288  10.406   4.017 -0.0350  0.1253 -0.0020
30092W        W46226  11.841   8.738  10.892 -0.3224 -0.3197  0.1019
30093W        W46227   3.665  17.768  12.365  0.0104  0.2839  0.4244
30094W        W46228  11.744   2.437  12.600  0.1593 -0.0472  0.2288
30095W        W46229  16.926  11.732  16.044 -0.0289 -0.3017  0.3458
30096W        W46230  15.604  17.558   4.239 -0.0270  0.1775  0.1500
30097W        W46231  10.682  10.720   3.998 -0.0037 -0.3056  0.4649
30098W        W46232   2.519   2.276  16.271 -0.0400  0.1807 -0.1402
30099W        W46233   7.005  11.913  16.281 -0.3249 -0.0397 -0.0263
30100W        W46234  10.859   4.087  14.509 -0.1341 -0.2004  0.0095
30101W        W46235  11.042  16.216   4.858 -0.2551  0.1450 -0.3683
30102W        W46236  17.794   3.761  15.083  0.2244 -0.0671 -0.0431
30103W        W46237   6.386   1.019   2.798 -0.1481 -0.3632 -0.3653
30104W        W46238  11.088   7.340   0.560  0.0851  0.0234 -0.0492
30105W        W46239  16.369   5.484  14.493 -0.0668  0.3328 -0.1506
30106W        W46240   4.837  15.393   5.605 -0.0087 -0.0026  0.1973
30107W        W46241  14.517  17.367   2.012 -0.0500 -0.2626  0.2784
30108W        W46242  12.365   4.989   0.529  0.0020  0.1138 -0.0761
30109W        W46243   1.944  13.494  11.249  0.2186  0.0744  0.1042
30110W        W46244   7.741   4.145   5.136 -0.0162  0.1003 -0.0723
30111W        W46245   8.415  16.017  13.524 -0.4464  0.0613  0.0578
30112W        W46246  10.237  11.182   5.037  0.0509 -0.0470  0.1613
30113W        W46247   6.962   7.643   0.696 -0.3579 -0.2438 -0.1573
30114W        W46248   0.845   3.222  14.754 -0.2839 -0.1515  0.2257
30115W        W46249  10.983   1.882   4.776  0.0651  0.0836  0.1446
30116W        W46250  12.287  11.295   0.388  0.1065  0.0506  0.1477
30117W        W46251  10.980  15.312  11.237 -0.2013 -0.1864  0.2593
30118W        W46252  14.147   1.991  15.473  0.0318 -0.1007 -0.0643
30119W        W46253  17.903  17.500  15.923 -0.0082 -0.0992 -0.1125
30120W        W46254   9.105  11.907   4.125  0.0093 -0.1767  0.3028
30121W        W46255   0.321   4.747  13.589 -0.0932 -0.1209  0.3967
30122W        W46256   3.618  14.832  15.772  0.1788 -0.0358 -0.2349
30123W        W46257   8.223  16.823  15.447  0.1063  0.2978  0.2297
30124W        W46258  15.826  12.013   3.223  0.1788  0.1546 -0.1115
30125W        W46259   3.679  11.494  14.442  0.1053 -0.1051 -0.3376
30126W        W46260   0.795  14.387   1.717 -0.0480  0.2256  0.1425
30127W        W46261  12.238   6.801   3.778  0.0755 -0.1048 -0.1749
30128W        W46262  15.111  14.710   0.962  0.0885 -0.2396 -0.1439
30129W        W46263  11.372  15.595  11.216 -0.0129 -0.0007 -0.0249
30130W        W46264   5.444   2.375  13.145  0.3246 -0.0321 -0.0104
30131W        W46265   8.428  16.034  14.013 -0.2048 -0.2713 -0.1818
30132W        W46266  15.952   4.049  12.877  0.1488  0.2838  0.0035
30133W        W46267  11.576  14.521  12.789  0.0842  0.0682 -0.2911
30134W        W46268  12.112   4.577   1.429  0.5102 -0.1178 -0.2367
30135W        W46269   1.431   8.590  13.597  0.1372 -0.1866 -0.0081
30136W        W46270   3.056   4.184  16.400  0.2218 -0.0015 -0.0951
30137W        W46271   0.956  12.053  15.014  0.0758  0.0007 -0.1950
30138W        W46272   3.859  15.972   0.580  0.0071 -0.0206 -0.0936
30139W        W46273   7.734   3.611   2.861  0.2415 -0.1408  0.0569
30140W        W46274  17.629  17.056  16.123 -0.1350 -0.1661 -0.0546
30141W        W46275   1.650   6.591  13.054 -0.2101 -0.0467  0.0133
30142W        W46276  12.120  10.408   0.802 -0.0767 -0.0618  0.1876
30143W        W46277   9.220   5.704   0.844 -0.0671  0.1871 -0.0540
30144W        W46278  14.242   1.967  12.008 -0.0102  0.1448 -0.0242
30145W        W46279  13.442   3.743  14.150  0.3651  0.1090 -0.0369
30146W        W46280  13.595  13.558   2.171  0.3244 -0.2155  0.0647
30147W        W46281   9.954  12.420   1.504  0.0459 -0.1585  0.2810
30148W        W46282  17.070   2.283  14.825 -0.1250 -0.0544  0.0679
30149W        W46283  14.976  16.481  14.989  0.0996  0.0653 -0.0882
30150W        W46284   0.141  14.841   1.428 -0.1356 -0.2493  0.2711
30151W        W46285   1.875  15.447   4.599 -0.0618 -0.1934 -0.0804
30152W        W46286   0.602  10.972  13.936  0.0943 -0.3179  0.2053
30153W        W46287   7.568   6.217  12.896  0.1297  0.1063  0.1468
30154W        W46288  17.970  12.740  11.556 -0.0471 -0.0635  0.3270
30155W        W46289  11.505  11.720   4.713  0.2740 -0.2606  0.0996
30156W        W46290   3.163  11.463  14.446  0.1959  0.3096 -0.0960
30157W        W46291   2.039  17.734   3.171 -0.2598  0.0547  0.1074
30158W        W46292  14.056  15.219   0.120 -0.0235  0.1426  0.0325
30159W        W46293   3.313  17.799   3.914  0.1814  0.1359 -0.0382
30160W        W46294  18.001  16.754   3.228  0.0762 -0.0856 -0.2426
30161W        W46295  16.331   6.387  12.282 -0.1943  0.1329  0.1495
30162W        W46296  11.616  14.661  11.260  0.1251  0.0140 -0.3593
30163W        W46297  12.287   5.960  14.121  0.0974 -0.1208 -0.1219
30164W        W46298   4.530  12.515  11.483  0.1288  0.2327 -0.0653
30165W        W46299   0.660  11.825   6.163 -0.0123 -0.2229  0.1049
30166W        W46300   3.322  11.875  12.924  0.0965  0.0596 -0.1023
30167W        W46301  13.751  10.929  14.441  0.0162 -0.2134 -0.0692
30168W        W46302   9.269   0.243  12.834 -0.4144 -0.1384 -0.2685
30169W        W46303   7.967  14.731   4.568  0.1110 -0.1032 -0.0010
30170W        W46304  11.425  17.930   0.261  0.1490 -0.0608 -0.1518
30171W        W46305   6.663  12.885  13.854  0.3382  0.1482  0.0312
30172W        W46306   8.289  14.493   4.179 -0.2611  0.1345 -0.0182
30173W        W46307  14.977  10.734   2.571 -0.2037  0.2203  0.1934
30174W        W46308   2.496   4.824   6.247  0.0978 -0.3575 -0.0939
30175W        W46309  16.659  15.346  11.498  0.0709  0.1213  0.0782
30176W        W46310  11.818   5.361  16.124 -0.1426 -0.5327 -0.1065
30177W        W46311  16.721   3.694  10.882 -0.0802 -0.0834 -0.1719
30178W        W46312  10.675   7.431  11.673 -0.0761  0.1703 -0.0794
30179W        W46313  14.115  17.601  14.901 -0.0058  0.3469  0.0461
30180W        W46314   9.108   9.739  13.806  0.0749 -0.1188 -0.0238
30181W        W46315  11.966   8.288   0.059  0.2390 -0.0456  0.2405
30182W        W46316   7.568   7.025   2.455  0.2172 -0.2469  0.0179
30183W        W46317  11.887  12.134   4.630  0.1694  0.0768  0.2824
30184W        W46318  12.387  10.966   4.515  0.2492 -0.1954  0.4645
30185W        W46319   7.448   9.060   2.139 -0.1318  0.2756 -0.2238
30186W        W46320   0.949   0.677   3.368 -0.0579 -0.0380 -0.3257
30187W        W46321  10.203  16.993   4.327 -0.0386 -0.1351  0.0863
30188W        W46322  16.497  12.073  13.922 -0.3089  0.1174 -0.4523
30189W        W46323   5.834   2.265   1.923 -0.0543 -0.0842  0.1733
30190W        W46324   2.273  14.718   0.909  0.0712  0.0135  0.2107
30191W        W46325  17.601  14.008   2.701  0.0485  0.1874  0.3436
30192W        W46326  12.296   4.931   5.346 -0.0772 -0.2066  0.1177
30193W        W46327   6.800   1.931  10.968 -0.1586 -0.2092  0.3292
30194W        W46328   9.682  11.929   4.858 -0.0113 -0.0160 -0.1770
30195W        W46329   6.535  15.225  14.555 -0.1073 -0.0429  0.0032
30196W        W46330   4.648   7.254   2.620  0.0831  0.1028  0.0683
30197W        W46331  16.503   9.719   5.503  0.2268 -0.0985  0.1374
30198W        W46332  10.005   3.210  12.626 -0.3564  0.0219  0.2602
30199W        W46333  16.547   4.607  11.163  0.1303 -0.1504 -0.2065
30200W        W46334  12.363   3.117  13.362  0.0722 -0.2451 -0.1730
30201W        W46335  13.571  17.825  12.616  0.0883  0.2303  0.0634
30202W        W46336   3.539  13.917  13.816  0.0551 -0.1356  0.1537
30203W        W46337  17.750  16.981  13.037  0.1887 -0.0982  0.3020
30204W        W46338   3.642   4.410  12.083  0.5280 -0.4139  0.1261
30205W        W46339  12.287   1.166   2.502 -0.1845  0.1423  0.0594
30206W        W46340   1.259  13.810  15.938  0.4062  0.3253  0.4001
30207W        W46341   2.607  14.217  12.498 -0.1844  0.9206 -0.0127
30208W        W46342   0.803   0.779   2.474  0.1653  0.1176  0.0028
30209W        W46343   7.759  10.774   1.685 -0.3752 -0.1503 -0.1102
30210W        W46344  16.751  13.162  14.831  0.0406 -0.0629 -0.2204
30211W        W46345   9.716   4.197  10.985  0.2792 -0.1694 -0.2592
30212W        W46346   9.355  12.178  15.095 -0.2427  0.4672  0.0106
30213W        W46347  13.984  12.886   2.125 -0.1231  0.4695  0.3967
30214W        W46348  16.555  11.013  14.438 -0.4490 -0.4937  0.0885
30215W        W46349  14.094   8.001  11.377 -0.1388 -0.0481 -0.0158
30216W        W46350   8.019   5.955   2.067 -0.1015 -0.1971 -0.0404
30217W        W46351   2.299   5.246   0.784  0.1621  0.1118 -0.2042
30218W        W46352  16.550   9.468  13.372 -0.0902 -0.1832  0.1732
30219W        W46353  17.067   4.795  11.072 -0.0326  0.0341  0.0870
30220W        W46354   1.319   9.939   4.300 -0.0858 -0.1525 -0.1521
30221W        W46355  16.833   1.716   4.773 -0.1580 -0.0312  0.1037
30222W        W46356   0.462  17.943  12.944  0.1258  0.0182 -0.2175
30223W        W46357  15.252   8.818   2.298 -0.0510 -0.0638  0.0275
30224W        W46358   5.163   1.355   0.615  0.2936 -0.1094 -0.0510
30225W        W46359  14.182  15.187  13.065 -0.0158  0.0091  0.2497
30226W        W46360  16.800   4.170   1.528 -0.1411 -0.0580  0.0140
30227W        W46361  10.820   6.825   3.698 -0.1659 -0.2283 -0.1838
30228W        W46362   1.169   1.515  13.218  0.1046  0.1150  0.1043
30229W        W46363   5.880  11.101   1.132  0.1576 -0.0475 -0.0291
30230W        W46364  15.315   2.426  14.192 -0.1069 -0.0561 -0.0669
30231W        W46365  13.063   0.339   5.085 -0.0660  0.1365 -0.2565
30232W        W46366   7.914   0.153   2.526  0.3353 -0.1149  0.0921
30233W        W46367   8.472  11.773  10.487  0.0316 -0.2331 -0.1498
30234W        W46368  13.186  15.013  14.964 -0.2136  0.0017 -0.1334
30235W        W46369   7.884   5.950  11.390  0.0322  0.2161  0.2982
30236W        W46370   6.941  16.238  14.169  0.2473  0.0334  0.1137
30237W        W46371   9.702   2.763  14.144 -0.1424 -0.0995  0.0597
30238W        W46372   2.434  12.175  15.884 -0.0166 -0.1909  0.1891
30239W        W46373   6.652  15.953  15.722 -0.2173 -0.1222 -0.1853
30240W        W46374  13.853  13.947  15.865  0.1718 -0.1627 -0.0510
30241W        W46375   1.808   8.107  11.327 -0.0115  0.1075 -0.4354
30242W        W46376  16.921   9.885   3.390 -0.0935  0.1296  0.0278
30243W        W46377   9.719   2.199   4.885 -0.0470  0.1135  0.1492
30244W        W46378  15.211  10.921   0.462 -0.0732  0.0978  0.1460
30245W        W46379   9.229   5.692  15.177  0.1846 -0.2270  0.0988
30246W        W46380   9.714   2.070  11.968 -0.2563 -0.2789 -0.1803
30247W        W46381   6.205  14.434  13.282 -0.0442 -0.2201  0.0495
30248W        W46382   9.783   9.314   5.343  0.2617 -0.0773  0.0721
30249W        W46383  16.908  17.263   2.214  0.1696 -0.1066  0.0907
30250W        W46384  12.724  17.902   5.174 -0.0412  0.0676  0.0298
30251W        W46385   0.919  17.960  15.164  0.2857 -0.1784 -0.1939
30252W        W46386   8.815  10.896  14.749 -0.2770  0.1565  0.0083
30253W        W46387   1.321   3.155  14.914 -0.1682 -0.0886 -0.0702
30254W        W46388   5.226  10.714  16.308 -0.1734 -0.1106  0.1407
30255W        W46389  16.756   1.696  12.796 -0.0054 -0.4495 -0.1721
30256W        W46390  14.582   7.703   5.883 -0.1890 -0.1614 -0.2865
30257W        W46391   4.188  10.731  14.168  0.2089 -0.1680  0.1239
30258W        W46392  11.414   5.022  16.223  0.1010 -0.0470 -0.0746
30259W        W46393   4.312   9.958  16.403 -0.0130 -0.0412 -0.2015
30260W        W46394   7.865  13.989   0.436 -0.4510  0.2247  0.0175
30261W        W46395   9.148  17.327   0.972  0.0646  0.1458  0.1666
30262W        W46396   4.906   1.935  15.431 -0.0620 -0.3118 -0.0069
30263W        W46397   4.185  17.612   5.476  0.0367 -0.1814 -0.0621
30264W        W46398  13.481   8.276  15.256  0.1618  0.0484  0.3297
30265W        W46399   0.712   1.494   1.492 -0.0422  0.0570  0.2227
30266W        W46400   7.310  17.086  14.226 -0.2595  0.0164 -0.0503
30267W        W46401   6.316   1.372   5.915 -0.0710 -0.1928 -0.1380
30268W        W46402  13.102   0.831   1.131 -0.0505  0.3297 -0.0411
30269W        W46403   6.909  11.360  14.715  0.2488 -0.1559 -0.0952
30270W        W46404  10.102   6.146  13.599 -0.2465 -0.0366 -0.1883
30271W        W46405  16.503  10.977  15.769  0.3562 -0.1102 -0.2651
30272W        W46406  15.667   8.296  14.399 -0.1963 -0.1256  0.0510
30273W        W46407  16.923  12.979   2.620 -0.2090 -0.1385 -0.0929
30274W        W46408   9.642   8.150   3.001 -0.0714  0.2425 -0.0060
30275W        W46409   7.030   4.239   3.070  0.0153  0.0473  0.0955
30276W        W46410  14.782   0.670  11.812  0.0091  0.1018  0.0233
30277W        W46411   5.252   5.755  14.924  0.2407  0.0745  0.3213
30278W        W46412  17.846  14.245  14.382 -0.1475  0.0036 -0.0934
30279W        W46413  10.603   0.754  16.125 -0.0410 -0.0795  0.1418
30280W        W46414   7.999   0.052   5.189  0.0684 -0.0185 -0.3284
30281W        W46415  16.946   5.945   3.203 -0.0600  0.0849 -0.1508
30282W        W46416   7.457  17.782  11.877 -0.0940 -0.2472  0.1231
30283W        W46417  14.537   7.446  15.007 -0.1053  0.0325 -0.1187
30284W        W46418  12.089  16.844  12.085 -0.0621  0.1755  0.1076
30285W        W46419   1.250  14.693  12.313 -0.1634 -0.0913  0.1282
30286W        W46420   2.267   7.243  12.600 -0.0462  0.1034 -0.2402
30287W        W46421   7.494  16.644  11.386 -0.1542 -0.0050  0.0994
30288W        W46422  12.577   8.369  12.134 -0.1887 -0.0606 -0.1485
30289W        W46423   0.363  12.818   4.679  0.0263 -0.1407 -0.1333
30290W        W46424   4.255  17.107   3.595  0.0144 -0.1531 -0.1122
30291W        W46425   6.183  14.569  14.932  0.0827 -0.3892  0.0877
30292W        W46426  13.846   1.662   5.314  0.4402 -0.2754 -0.2279
30293W        W46427  15.034   3.996   3.466  0.0320  0.2717  0.1712
30294W        W46428  16.751  14.938   4.510  0.4525  0.0955 -0.0294
30295W        W46429   3.162   7.205   5.348  0.0298  0.2152  0.1615
30296W        W46430   5.269   7.084   4.408 -0.0401 -0.0143  0.2318
30297W        W46431   1.194   4.905  14.133 -0.0627  0.0508  0.1788
30298W        W46432   2.060  14.564  11.766 -0.3203 -0.3165  0.4093
30299W        W46433   1.487  15.739   2.302  0.0055  0.0390  0.0041
30300W        W46434   9.500  14.074  14.502 -0.0926  0.0705 -0.1303
30301W        W46435   2.086   7.151   2.209 -0.2398 -0.3520 -0.0758
30302W        W46436   7.831  15.369   4.036  0.0557  0.0027  0.0280
30303W        W46437  15.440   2.073  15.339  0.2026 -0.1440 -0.1143
30304W        W46438  16.009  10.268  14.633 -0.0644  0.0864  0.0339
30305W        W46439   7.490   8.048   4.818  0.1325  0.1584 -0.0714
30306W        W46440  17.806   6.416   2.818 -0.0785  0.0661  0.1640
30307W        W46441  16.905   4.657  12.759 -0.2430  0.0189  0.1595
30308W        W46442  13.581  11.481   3.851 -0.1700 -0.1792  0.0282
30309W        W46443   4.142   4.490   1.901  0.0867 -0.2747 -0.0379
30310W        W46444   0.426   2.938   2.304 -0.2111 -0.3483  0.0647
30311W        W46445  13.594  16.360   4.772  0.0976  0.1008 -0.1085
30312W        W46446   2.742  15.445  12.675 -0.0608  0.0015  0.2028
30313W        W46447  17.938   9.171  11.905 -0.2448  0.1181  0.1405
30314W        W46448  12.528   9.542   2.590 -0.1121  0.3022 -0.0197
30315W        W46449   5.121  16.011   4.481  0.0579  0.0024 -0.0428
30316W        W46450   0.308   7.231   4.726  0.3526 -0.2702  0.2121
30317W        W46451   4.180   2.519  14.090 -0.0229 -0.1362 -0.0141
30318W        W46452  16.021   9.659  15.832  0.3531 -0.1954  0.0667
30319W        W46453  17.818  13.351  14.294  0.1188  0.4107  0.1597
30320W        W46454   4.871   9.472  14.098  0.0270 -0.0593 -0.0674
30321W        W46455   4.310   8.904  14.339 -0.2544 -0.0204  0.0119
30322W        W46456  17.499   8.738  15.325  0.0500 -0.0532  0.1913
30323W        W46457  16.715   3.660   4.171  0.3066 -0.2626  0.0630
30324W        W46458   4.655   4.680  15.450 -0.2470 -0.3133 -0.1119
30325W        W46459   0.653   3.738   0.576 -0.0019  0.0990  0.1117
30326W        W46460   9.409   6.439   5.259  0.0353  0.0794  0.0065
30327W        W46461  17.982   7.734   1.421  0.1321 -0.1479 -0.5054
30328W        W46462   7.522   0.895   0.422  0.1312 -0.1704 -0.2977
30329W        W46463   5.154  12.149   1.146  0.2196 -0.1511 -0.2879
30330W        W46464   9.022  10.664   5.998  0.2030  0.3283  0.3860
30331W        W46465   5.775   2.256   0.590  0.0650 -0.0036 -0.2798
30332W        W46466   9.836   9.065  14.631 -0.0526  0.0588 -0.0845
30333W        W46467  13.488   4.067   4.356  0.0079  0.0384 -0.2768
30334W        W46468  14.181   1.474   1.438  0.0751  0.3014  0.2833
30335W        W46469  17.824   8.307  14.267 -0.0539  0.0114  0.0846
30336W        W46470   8.854   2.636   0.963 -0.0949 -0.0166  0.0380
30337W        W46471   1.637  12.562  13.267  0.0584 -0.2155 -0.0770
30338W        W46472   5.075   4.316  12.337 -0.0080 -0.0081  0.0715
30339W        W46473  10.760   7.858   5.524 -0.0336  0.1113 -0.2300
30340W        W46474   1.347   5.042   0.401 -0.2182  0.2323  0.2553
30341W        W46475   3.962   9.089   3.748 -0.0381  0.1504  0.0888
30342W        W46476  17.730   2.089   4.829  0.2698  0.2135  0.1363
30343W        W46477  14.933   2.005   2.878 -0.3806  0.0313  0.0358
30344W        W46478  15.018   3.948   1.846 -0.2319 -0.0485  0.1296
30345W        W46479  10.359   6.970  11.612  0.0128 -0.1102  0.1595
30346W        W46480   7.910  14.779  13.423 -0.1105  0.0802  0.2233
30347W        W46481  13.716  11.903  11.627 -0.2523 -0.1959 -0.1945
30348W        W46482   8.408   1.627  11.343 -0.0720 -0.1508  0.0579
30349W        W46483   5.670  18.089  11.316  0.2033  0.4546 -0.1179
30350W        W46484   7.276  12.160  15.671  0.1186 -0.0522  0.1470
30351W        W46485   8.881  17.100   1.328  0.0584 -0.0627  0.1656
30352W        W46486  12.693   5.217   5.378  0.2281 -0.0144 -0.1948
30353W        W46487  10.738   3.928  15.099 -0.2128 -0.0034  0.1051
30354W        W46488   8.989   4.381  16.180  0.2099  0.0956  0.2986
30355W        W46489   8.227   0.240  12.010 -0.2339  0.1441 -0.0441
30356W        W46490  14.595   8.641  12.042  0.2901  0.0367  0.0050
30357W        W46491   0.313   1.509  14.883 -0.3074  0.0292 -0.1319
30358W        W46492  10.526   4.924   5.048  0.1490  0.0739 -0.0091
30359W        W46493  17.709   4.066   1.133  0.0518 -0.2909 -0.1367
30360W        W46494   4.828   7.947   4.221 -0.0700  0.0923  0.5063
30361W        W46495  15.709   3.738   9.906 -0.0430  0.3425  0.4132
30362W        W46496  13.296   2.075  12.102  0.2453 -0.1680  0.2061
30363W        W46497   6.035   1.298   4.883  0.1339 -0.1078 -0.0771
30364W        W46498  14.286   6.619   3.255 -0.0899 -0.3887 -0.0532
30365W        W46499   8.002   7.887  15.952  0.1700  0.4470  0.1364
30366W        W46500   4.441  12.438   5.935  0.1908  0.0562  0.0028
30367W        W46501  10.341   2.236  15.587 -0.1039  0.1460  0.0096
30368W        W46502   5.474   1.183  11.347 -0.1162  0.1374  0.0410
30369W        W46503   8.109   0.418  14.232 -0.1108 -0.3435 -0.2449
30370W        W46504  15.215  14.133  11.481 -0.0982  0.0108  0.0293
30371W        W46505   9.740   0.526  10.972 -0.0908 -0.0301  0.1817
30372W        W46506  10.297  10.756   0.797  0.2720  0.0156  0.2531
30373W        W46507  17.337  13.224   2.375  0.1541 -0.0274  0.3565
30374W        W46508   6.899  13.127   2.488  0.1130  0.3021 -0.0704
30375W        W46509  14.270  10.833   4.651  0.0036  0.1258 -0.1832
30376W        W46510  16.748  14.939   5.347  0.0651  0.2104  0.0986
30377W        W46511   7.058  17.836  14.983  0.0371 -0.1645  0.1487
30378W        W46512   3.451   6.243  14.711  0.0627 -0.2115  0.2054
30379W        W46513  15.991  11.508  16.327  0.0461  0.1016  0.0034
30380W        W46514  14.195  17.046  13.921 -0.1160  0.3881  0.0638
30381W        W46515  12.739   0.804   0.773  0.0513  0.0526 -0.0727
30382W        W46516  12.203   9.109  14.506  0.1814  0.0812 -0.0144
30383W        W46517   6.091   1.839  10.452 -0.0253  0.3175  0.0280
30384W        W46518   0.759  15.496  14.384  0.0103 -0.2641 -0.1440
30385W        W46519   5.916   1.384   3.603  0.2327  0.0843 -0.1464
30386W        W46520  16.141   8.935  12.762 -0.1403  0.1288  0.3469
30387W        W46521  11.459  11.534   3.150 -0.3062 -0.2828  0.0098
30388W        W46522  11.797  15.843   1.725 -0.0929 -0.0400  0.3113
30389W        W46523  10.357  10.462  14.809  0.0003  0.0305  0.1911
30390W        W46524  11.053   4.657  15.508 -0.2622  0.0852  0.0117
30391W        W46525   5.941  10.267  11.925  0.2152  0.0977 -0.1801
30392W        W46526  14.025  12.340   3.797  0.1278  0.3819 -0.1568
30393W        W46527  16.093   4.717   1.860  0.1442  0.0577 -0.1420
30394W        W46528   9.737   2.163   2.608 -0.1158  0.2866 -0.1445
30395W        W46529   9.846  15.029   4.977  0.1768  0.1346 -0.2457
30396W        W46530   6.283   8.687  14.287 -0.1530 -0.0497  0.2753
30397W        W46531  13.425   9.911  12.204 -0.1720  0.1591 -0.2017
30398W        W46532  13.960   3.729   4.607 -0.1046 -0.3556 -0.0701
30399W        W46533   4.207  13.118  10.947  0.2668  0.0257  0.1362
30400W        W46534   2.092   0.077   0.477 -0.3231  0.0090 -0.3165
30401W        W46535  11.305  14.983  15.821  0.2017 -0.1684  0.0308
30402W        W46536  15.683   5.025   1.353 -0.0130  0.0525 -0.0497
30403W        W46537  17.073  17.044  15.369 -0.1576 -0.0493 -0.0110
30404W        W46538  14.404   4.508   2.444  0.2566  0.1217  0.1219
30405W        W46539   3.671  14.634   1.708 -0.0583  0.1516  0.0616
30406W        W46540   6.430  16.366  11.700 -0.0433  0.1521 -0.0162
30407W        W46541   9.189   3.010   0.027  0.1048 -0.0505 -0.1124
30408W        W46542  12.841   9.479   2.090  0.0230  0.1086  0.0538
30409W        W46543  17.252  12.786   5.424 -0.2522  0.2427  0.0617
30410W        W46544   3.638   5.551  13.311 -0.1745 -0.1436  0.1282
30411W        W46545  12.361  13.787  14.421 -0.0177  0.2076  0.2553
30412W        W46546   9.797  13.439   3.062 -0.2480 -0.0974  0.1142
30413W        W46547   7.521  11.719  13.723  0.0804  0.2366  0.0018
30414W        W46548   7.789  10.173  14.768  0.0812 -0.3983  0.0935
30415W        W46549   1.054   6.803  14.387  0.0675  0.2129 -0.1289
30416W        W46550   7.730   8.259  12.970  0.0141 -0.0039 -0.0884
30417W        W46551  13.712   3.590  13.162  0.3361  0.1270  0.2049
30418W        W46552   2.898  16.613  11.667  0.2044 -0.0504  0.1104
30419W        W46553   3.337  18.073   0.270  0.2293  0.4897 -0.1096
30420W        W46554  11.643   5.677  12.923 -0.0832 -0.0310  0.2190
30421W        W46555  13.519   0.292   1.287  0.1144  0.0256  0.0152
30422W        W46556   9.730  16.950  15.413  0.2785 -0.0374 -0.0642
30423W        W46557  13.278   3.861   4.795 -0.2801 -0.1385 -0.3680
30424W        W46558   6.594   5.823   0.664  0.1927 -0.0232  0.0346
30425W        W46559  15.142   9.800  12.778  0.0457 -0.1142 -0.0202
30426W        W46560   5.992   1.918  15.028  0.0938  0.0161 -0.1387
30427W        W46561  15.826   3.568  13.842 -0.2292 -0.3113  0.1747
30428W        W46562   7.787  12.309  11.977 -0.0445  0.0570  0.1304
30429W        W46563   7.491  12.811  16.151 -0.2093  0.2398 -0.0582
30430W        W46564   7.565  14.006  15.565  0.3449 -0.1241 -0.0246
30431W        W46565  12.456   5.220  13.346 -0.0081 -0.2544 -0.0236
30432W        W46566   5.093  12.481  14.695  0.1472 -0.0719 -0.0006
30433W        W46567  14.554  16.671   0.823  0.0706 -0.0433  0.1262
30434W        W46568  15.761   4.815  13.654  0.1003 -0.1148 -0.1774
30435W        W46569   0.770  11.253  11.970 -0.2400 -0.0325  0.0725
30436W        W46570  11.819   9.405   4.162  0.2934  0.1991 -0.1128
30437W        W46571   6.856  17.795  14.462  0.0783 -0.0750  0.1013
30438W        W46572   2.850  14.299  15.483 -0.4242 -0.2383  0.0851
30439W        W46573   1.565  15.659   2.828  0.2083 -0.0552 -0.2058
30440W        W46574   8.145   9.260   3.520 -0.1436  0.4202  0.2439
30441W        W46575  14.425  12.586  13.491  0.1376 -0.0041  0.1255
30442W        W46576   9.915  12.193  13.153 -0.0109 -0.2282  0.1598
30443W        W46577   6.562   0.953   5.698 -0.0801  0.1065  0.0640
30444W        W46578   3.110   7.388  14.729 -0.1095  0.0137 -0.2550
30445W        W46579  10.296   6.282   4.170  0.0207  0.2227  0.1514
30446W        W46580   4.310   6.340   5.505  0.1870 -0.0675 -0.0057
30447W        W46581  10.737   3.151  11.805  0.0619 -0.2030 -0.2367
30448W        W46582   6.560  12.800   2.238  0.1410  0.0689  0.1791
30449W        W46583  13.358   5.285   1.296  0.1983 -0.0340 -0.3769
30450W        W46584  14.917   8.880   6.397  0.3825 -0.3797 -0.0612
30451W        W46585  10.315  10.023   4.277  0.2217 -0.2088  0.2177
30452W        W46586   1.028   6.093  16.178  0.2792 -0.2548  0.1293
30453W        W46587   0.421   0.358   2.437 -0.0736  0.2922  0.0272
30454W        W46588  16.362  11.065  16.323 -0.1507 -0.1043  0.1085
30455W        W46589  10.515  15.739   3.802 -0.0061 -0.0071 -0.2370
30456W        W46590  10.129  14.242   4.931  0.0859 -0.1764 -0.2383
30457W        W46591  14.571   1.817   2.424 -0.2321 -0.1299 -0.2666
30458W        W46592  14.630  13.378   0.532  0.2201  0.2877  0.1002
30459W        W46593   3.860   1.649  11.093 -0.0681  0.0375 -0.0428
30460W        W46594  12.926   6.416   2.929  0.0051 -0.3462 -0.2585
30461W        W46595   8.378  14.453   4.725  0.0769  0.2151 -0.0769
30462W        W46596  12.358  15.337   4.156  0.1561 -0.0849  0.0711
30463W        W46597  14.748   0.456  16.170  0.1402 -0.2680 -0.1662
30464W        W46598   6.404   5.847   4.257  0.3536 -0.0239  0.3657
30465W        W46599   8.303  16.954   2.049 -0.3758 -0.0427 -0.0270
30466W        W46600  15.162  10.460   0.269  0.0282 -0.0162  0.1471
30467W        W46601   2.099   9.478   3.831 -0.0661  0.1818  0.0753
30468W        W46602   7.661   6.088   0.725  0.0092 -0.0768 -0.2530
30469W        W46603   8.140  15.606  15.725 -0.2001  0.0330 -0.0351
30470W        W46604  12.150   4.482  11.678 -0.2769  0.0801 -0.2034
30471W        W46605   6.212  12.113   3.474  0.0819  0.2456  0.0846
30472W        W46606  11.512   8.772  13.092 -0.1966 -0.0230  0.0899
30473W        W46607   1.284   5.641  14.045  0.0801 -0.2248 -0.0947
30474W        W46608  15.353  16.619   4.858  0.1688 -0.0968  0.0323
30475W        W46609  14.038   6.604  10.369  0.0110 -0.1945 -0.0525
30476W        W46610  15.091  14.064   4.202  0.1454 -0.0997  0.0083
30477W        W46611   4.896  12.068  15.995 -0.1969 -0.1821 -0.1081
30478W        W46612  17.990  16.943  15.741  0.1215 -0.0121 -0.0184
30479W        W46613  12.300   0.286   2.905 -0.0593  0.0284  0.0597
30480W        W46614  17.789  10.793   5.041  0.0759  0.1901  0.4015
30481W        W46615   7.636   4.445  16.231  0.0563 -0.0207  0.2252
30482W        W46616  13.308   8.038  14.708  0.0068 -0.0555 -0.2114
30483W        W46617  11.372   9.022   0.004  0.0303  0.0589 -0.0761
30484W        W46618  12.680   0.825  11.158 -0.5499 -0.0797  0.2464
30485W        W46619  17.325   0.372  14.086  0.1611 -0.2283 -0.2019
30486W        W46620   6.072   3.983   2.927  0.2323 -0.4943 -0.1041
30487W        W46621   1.759   9.918   2.584  0.0771  0.0469 -0.1691
30488W        W46622  17.819  14.939   3.032 -0.1589  0.2009  0.1911
30489W        W46623  12.289   3.824   5.810 -0.0970 -0.1535 -0.0919
30490W        W46624  12.499   0.807   3.741  0.1209 -0.0324 -0.1375
30491W        W46625  15.495  13.762  11.563 -0.1978 -0.1603  0.0400
30492W        W46626  10.073  11.209   2.096  0.0188  0.0719  0.0980
30493W        W46627   0.079   9.047  10.725  0.0138  0.1084  0.0523
30494W        W46628   6.130   2.659   4.567  0.1265  0.0565  0.2318
30495W        W46629  16.105  11.218  12.201  0.0588  0.1771  0.0908
30496W        W46630  12.249   7.324   2.668  0.0245  0.3601 -0.3388
30497W        W46631   1.566  10.460  12.900  0.0784 -0.1082 -0.0596
30498W        W46632   5.304   3.932  12.540  0.1047  0.0315 -0.2038
30499W        W46633   5.718  10.114  12.807 -0.0341 -0.2202 -0.1327
30500W        W46634   4.857   6.692   4.915 -0.6578 -0.2367  0.0111
30501W        W46635   3.280   9.629  12.448 -0.0160 -0.0562 -0.0258
30502W        W46636  14.964  10.262  12.431 -0.2154 -0.4715 -0.1187
30503W        W46637   4.243   0.435  15.661  0.0448  0.2486 -0.0643
30504W        W46638   6.781   3.613   1.799  0.0944 -0.0567  0.1379
30505W        W46639  16.346  13.217  15.138 -0.2158 -0.2071 -0.2718
30506W        W46640  12.602   2.538  12.357 -0.0304 -0.2826 -0.0703
30507W        W46641   9.785   2.971  16.106  0.1433 -0.1925  0.1958
30508W        W46642   3.959  16.167   2.677  0.1571  0.1340  0.0334
30509W        W46643  10.829   8.227   0.939  0.1544 -0.0858  0.0775
30510W        W46644   6.061  12.033  12.183  0.2737 -0.3077  0.1748
30511W        W46645   7.121   6.212  16.388 -0.1125  0.0553 -0.1498
30512W        W46646  16.531   9.101  11.759 -0.2107 -0.1012 -0.1993
30513W        W46647  11.874  16.747   5.086  0.0878 -0.2620  0.0236
30514W        W46648  16.424   7.384   5.642  0.4680 -0.1919  0.1633
30515W        W46649  10.484   8.716   2.147  0.1850 -0.1020 -0.1525
30516W        W46650   1.906   4.366   3.468 -0.0966 -0.1498  0.0605
30517W        W46651  11.836  13.001   4.972  0.0255  0.1236 -0.0414
30518W        W46652   8.223  16.635   3.743  0.2586  0.0532 -0.2374
30519W        W46653  14.868   9.506   1.657  0.0470 -0.2988  0.0875
30520W        W46654   8.193  12.030  11.616 -0.4318  0.0006 -0.2922
30521W        W46655  17.672   8.241  15.738  0.1314  0.1507 -0.0682
30522W        W46656  11.164  17.701  16.273  0.0679 -0.3241 -0.1703
30523W        W46657   1.872  17.169   5.554 -0.0895  0.4254  0.2418
30524W        W46658  15.060  11.119  10.362 -0.1154 -0.0632 -0.0265
30525W        W46659   3.350   1.605  11.298  0.0010  0.0765 -0.0468
30526W        W46660   7.449  17.679  11.187 -0.1778 -0.3784  0.0222
30527W        W46661   1.691   6.415   0.876 -0.1016  0.0536 -0.0491
30528W        W46662   4.434  16.595  16.018  0.2313 -0.2625  0.0433
30529W        W46663   0.656  17.908  11.757  0.1443  0.0016  0.0206
30530W        W46664  12.476  17.698   0.179  0.1264  0.1944 -0.0769
30531W        W46665   7.783  10.347  11.679  0.2476 -0.2842 -0.1331
30532W        W46666  17.553   9.226   0.841 -0.1481  0.3264  0.0975
30533W        W46667  17.293  15.230   6.260 -0.1549 -0.0647  0.0085
30534W        W46668  14.836   5.760  12.157 -0.0689 -0.1280 -0.0625
30535W        W46669  17.364   4.266  13.847 -0.0673  0.0368 -0.2204
30536W        W46670   7.698   6.578   5.004  0.0679 -0.2944  0.1493
30537W        W46671  17.870   7.998   4.706 -0.0975  0.0522  0.1535
30538W        W46672   1.860   2.288  13.176  0.0175  0.1248  0.2395
30539W        W46673   9.786   7.977  14.796 -0.1719  0.2009 -0.3105
30540W        W46674  10.999  17.081   0.707 -0.0557 -0.5421  0.2783
30541W        W46675   6.735   6.898   2.665  0.1448 -0.1474 -0.1202
30542W        W46676   8.407   3.719   1.076  0.1407 -0.1979 -0.0995
30543W        W46677   4.055   5.948  13.293  0.1039 -0.2938  0.1075
30544W        W46678   5.395   8.453  13.796 -0.3406 -0.1471  0.1658
30545W        W46679  10.587  12.633   5.431 -0.0167  0.2429 -0.0126
30546W        W46680   3.281   7.575  13.056 -0.0101 -0.2847  0.0852
30547W        W46681   6.388  10.854  14.946 -0.2280 -0.0031  0.1859
30548W        W46682  10.822   1.085   3.410 -0.1131  0.1223  0.2502
30549W        W46683   6.930  15.767   5.852  0.1149 -0.1074  0.0945
30550W        W46684   5.599  17.811  16.180 -0.0567  0.1861 -0.0178
30551W        W46685  14.170   2.455   4.162  0.2156  0.0543 -0.1939
30552W        W46686  17.865  16.938  14.695 -0.3362 -0.0029  0.0254
30553W        W46687  15.993   7.883  15.167  0.0756 -0.1543 -0.1818
30554W        W46688  17.616   7.874   1.180  0.1285 -0.0704 -0.1143
30555W        W46689  10.626   2.053   5.921 -0.1167 -0.0219 -0.2392
30556W        W46690  16.681   8.034  12.361  0.1153  0.2493  0.0349
30557W        W46691   3.489  14.344  14.710  0.0715 -0.0789 -0.3000
30558W        W46692  14.855  11.390   9.989 -0.4004  0.1668  0.1217
30559W        W46693  10.863  11.405  14.243  0.1636 -0.1781  0.2022
30560W        W46694  18.091  17.628   0.573 -0.2230  0.2896 -0.0647
30561W        W46695   5.922   7.442   5.204 -0.0480  0.0246  0.2925
30562W        W46696  16.961   1.188   2.970 -0.0811 -0.0738  0.1438
30563W        W46697  11.104   7.741  13.314 -0.1921 -0.1308  0.0756
30564W        W46698  13.683   0.751   1.300 -0.3002 -0.2035 -0.1814
30565W        W46699  16.749   2.702   3.844  0.2352  0.0522 -0.2669
30566W        W46700  12.724  11.737  11.992 -0.1139  0.3807 -0.1859
30567W        W46701  12.209   9.338  16.090 -0.0156  0.2649 -0.2807
30568W        W46702  13.137  10.258   3.015  0.1167  0.2744  0.0572
30569W        W46703   2.340  10.987  12.400 -0.1653 -0.0809 -0.1173
30570W        W46704  12.807   9.026  13.893 -0.0431  0.0120  0.0057
30571W        W46705   6.769   1.357   5.254 -0.1462 -0.0234  0.2988
30572W        W46706   3.166   1.973  15.892  0.2514  0.1505 -0.0062
30573W        W46707  13.577   9.611  13.005  0.2237 -0.1160  0.1405
30574W        W46708  16.386  13.561   0.394  0.0959 -0.2059 -0.1782
30575W        W46709  14.191   4.738  11.184  0.3142 -0.0326  0.0444
30576W        W46710  13.856  16.052  15.063 -0.0882  0.0160  0.0053
30577W        W46711   3.850   6.755  13.520  0.2769  0.0037  0.0609
30578W        W46712  12.993   4.244   5.529  0.0567 -0.1515 -0.0965
30579W        W46713   7.487  17.409   4.204 -0.3024  0.2738  0.1122
30580W        W46714   9.525  16.306  12.617 -0.0416  0.2194 -0.0534
30581W        W46715  16.972   1.521  13.601 -0.0137 -0.3658  0.4399
30582W        W46716   7.693  12.556   3.499 -0.0633 -0.0933 -0.0762
30583W        W46717   6.552   8.731   3.029  0.0248  0.1698  0.3560
30584W        W46718   9.082  15.345  13.984  0.1006 -0.0563 -0.1129
30585W        W46719  11.716  13.341   5.306 -0.1407  0.1282 -0.2356
30586W        W46720  15.188   6.182  11.235  0.1611  0.3785  0.0857
30587W        W46721   8.350   5.848   3.794 -0.1386 -0.1423  0.2331
30588W        W46722   1.607   0.453  14.183 -0.0479 -0.0427  0.2787
30589W        W46723  17.976  13.446   2.043  0.1123  0.2432 -0.2210
30590W        W46724   0.967  12.996   0.794  0.0021  0.0531 -0.0104
30591W        W46725  13.885  11.868  13.466  0.0185  0.1050  0.2296
30592W        W46726   4.070   4.392   6.084 -0.1436  0.4413  0.1020
30593W        W46727   5.894  16.543   3.464 -0.0142  0.0482  0.2019
30594W        W46728  15.393   8.559  13.398  0.1447  0.2790 -0.0654
30595W        W46729  12.133   1.534   2.172 -0.0527 -0.0108 -0.3299
30596W        W46730  13.247   2.472   3.276  0.3767  0.1609 -0.2288
30597W        W46731   4.922   5.791   5.512  0.0602  0.0506  0.2854
30598W        W46732   8.405  15.044   3.256 -0.0014 -0.0325  0.3819
30599W        W46733  15.507   9.346   2.565  0.4147  0.2968  0.1887
30600W        W46734  15.841   8.853   0.504 -0.0170 -0.1836 -0.1952
30601W        W46735  16.445   6.057   3.574 -0.2113 -0.1888  0.4071
30602W        W46736   8.487   3.677  13.278 -0.0794 -0.0196 -0.2370
30603W        W46737   4.127  13.508   2.253 -0.2535 -0.4300  0.1274
30604W        W46738   2.819  17.512   4.541 -0.1430 -0.0875  0.2275
30605W        W46739  16.331  12.358   1.173  0.0715  0.1033 -0.0563
30606W        W46740   8.753  16.601   1.249  0.0673 -0.2471  0.2050
30607W        W46741   4.046   3.111   4.804  0.0764  0.1496 -0.1925
30608W        W46742  11.967  11.110  13.557 -0.0950 -0.0165  0.2061
30609W        W46743  11.099   2.410   2.076 -0.0829 -0.0251 -0.0507
30610W        W46744   7.837   4.339  13.363  0.0725  0.1811 -0.1965
30611W        W46745   2.950   9.951  11.767 -0.1597  0.0370  0.0484
30612W        W46746   6.585  17.902  13.918  0.1557 -0.0761  0.0629
30613W        W46747   8.006   3.851  13.443 -0.0812 -0.0277  0.0690
30614W        W46748  16.878   2.650   1.529  0.1770 -0.0548 -0.0453
30615W        W46749   7.534   0.067   4.203 -0.1901 -0.0605 -0.0106
30616W        W46750  10.611   4.758  12.729  0.0385  0.1361 -0.0444
30617W        W46751   5.368   9.781  14.863 -0.1313 -0.2936 -0.0251
30618W        W46752   2.693   2.145  14.474 -0.1765  0.0958  0.2891
30619W        W46753   3.646  16.199  14.984  0.0952 -0.0313 -0.1161
30620W        W46754   2.239   0.184   3.937  0.1762 -0.0458  0.0745
30621W        W46755  16.206  17.617   3.597  0.0455  0.4002 -0.0019
30622W        W46756   0.579   9.990   2.331  0.0516 -0.2534 -0.0060
30623W        W46757  14.485  17.179  16.161 -0.1379  0.0376 -0.1585
30624W        W46758   7.110   3.705   0.364  0.0236 -0.0620  0.1803
30625W        W46759  17.381   0.786  12.483  0.0154 -0.0595 -0.0535
30626W        W46760   8.590   3.093   1.676  0.0111 -0.0614 -0.0307
30627W        W46761   6.853  16.506   2.543  0.1379  0.2500 -0.2834
30628W        W46762  15.585   2.745   5.253 -0.0745 -0.2604 -0.3890
30629W        W46763   6.244  17.101  15.983 -0.2202 -0.1210  0.1072
30630W        W46764   6.468  11.817  14.822 -0.3479  0.1857 -0.1918
30631W        W46765  16.496   0.988   4.256 -0.0737  0.1473  0.2019
30632W        W46766   9.957  17.143   1.638 -0.2015 -0.1825 -0.0453
30633W        W46767   1.118   0.589  12.234  0.0270  0.0191  0.3832
30634W        W46768   8.883   3.072  14.812 -0.0245 -0.1629 -0.0364
30635W        W46769  12.804  10.359   1.328 -0.2256  0.0200  0.0441
30636W        W46770  13.919  12.384   5.720  0.1905  0.2197 -0.1824
30637W        W46771  13.625  16.199  10.779 -0.0289  0.1378 -0.0206
30638W        W46772  15.515   7.126   0.655 -0.2458 -0.1241 -0.1016
30639W        W46773  14.441  11.002   2.534 -0.1477 -0.0873 -0.0929
30640W        W46774  17.203   5.419   4.487 -0.2380 -0.0410  0.1564
30641W        W46775   5.954   4.505   3.731  0.0211  0.1142  0.2530
30642W        W46776  14.794  12.961   0.819  0.2690  0.1897 -0.0757
30643W        W46777  17.622   9.649  14.280 -0.1836 -0.1916  0.0813
30644W        W46778  11.098  16.518   0.434 -0.0454 -0.1235 -0.1194
30645W        W46779  11.624   6.706  14.915  0.3350  0.1917  0.1108
30646W        W46780   5.567  10.706   3.618 -0.1298  0.0047 -0.1899
30647W        W46781  10.008   9.258   3.319 -0.0105  0.1012  0.1249
30648W        W46782  16.812  13.630   0.646  0.0850  0.0170 -0.0343
30649W        W46783  15.016   4.277  14.602 -0.0744 -0.3165  0.0981
30650W        W46784  10.631   7.317   2.107 -0.2573  0.2688 -0.2001
30651W        W46785  13.582  12.839   0.618  0.2056  0.3242 -0.0428
30652W        W46786   0.743  14.345  11.660  0.2483  0.1569  0.2065
30653W        W46787  13.799   1.230   0.040  0.0221  0.0684  0.3231
30654W        W46788   0.077   6.087   0.099 -0.0570 -0.4798  0.2908
30655W        W46789   5.062   3.525   4.334 -0.0912 -0.0657  0.1866
30656W        W46790  15.517   1.680  12.246 -0.1489  0.0751  0.0252
30657W        W46791   0.665   4.569   5.030  0.2668  0.0441  0.0395
30658W        W46792  16.245  16.375   4.829 -0.2232  0.0752  0.2328
30659W        W46793   5.272   4.685   4.941 -0.0698 -0.1799 -0.0223
30660W        W46794  12.353   0.020   5.459  0.1482  0.4611 -0.0799
30661W        W46795  16.001   1.182  12.454 -0.1601 -0.0671 -0.0309
30662W        W46796  17.557  10.769  16.179 -0.0969  0.2063  0.1229
30663W        W46797  13.234   6.327  13.182  0.2077 -0.1129 -0.0154
30664W        W46798   4.053   7.491   6.270 -0.0715  0.1281 -0.0078
30665W        W46799   9.641  10.985  16.149  0.0318  0.1419 -0.2727
30666W        W46800  15.807   8.867  14.021  0.0596  0.1863  0.1395
30667W        W46801   4.395   6.329  11.155  0.0376  0.0896 -0.0477
30668W        W46802   7.118   3.810  13.169 -0.0398  0.2002  0.0425
30669W        W46803  15.767   3.595  11.765 -0.1873 -0.2627  0.2134
30670W        W46804   0.119   7.937   1.842  0.2589 -0.1388 -0.1076
30671W        W46805  10.782   7.127   4.127 -0.5307 -0.2415 -0.0489
30672W        W46806  10.931  11.193   2.500  0.0504  0.0869 -0.0926
30673W        W46807   2.482  14.057   2.193  0.0383  0.1959  0.1458
30674W        W46808   4.008   3.802   4.058  0.2808  0.0767  0.0606
30675W        W46809   8.678  15.709  15.370 -0.2047  0.1097 -0.0962
30676W        W46810   1.389   6.741   1.168  0.3505 -0.1506 -0.0862
30677W        W46811   8.455   1.154  13.509  0.0966  0.2600  0.1478
30678W        W46812   5.104   9.246   0.317 -0.0050 -0.1941  0.1579
30679W        W46813  10.633  16.441   0.162 -0.2434 -0.0486  0.0304
30680W        W46814   8.470   6.027   4.296 -0.1831 -0.2139  0.0607
30681W        W46815  10.078   5.472   0.968 -0.2533  0.1840 -0.2529
30682W        W46816   7.137   8.142  14.141 -0.2397  0.0797  0.2812
30683W        W46817  13.529  11.242   1.009 -0.1565 -0.0197 -0.1666
30684W        W46818  14.021   9.932  15.379 -0.1992  0.0243 -0.1361
30685W        W46819   1.827  10.821  12.538 -0.2383 -0.1168  0.1347
30686W        W46820  16.743   6.451  12.537 -0.0554  0.1235  0.1596
30687W        W46821   0.200   0.583   0.336  0.2310  0.1495  0.1106
30688W        W46822   5.035  14.412   1.650 -0.0103  0.1273  0.2007
30689W        W46823   3.747  11.743  12.701 -0.0692  0.1017  0.2310
30690W        W46824   7.198   3.452   2.758  0.0777  0.2510 -0.1803
30691W        W46825   0.406   9.377   5.918  0.0429  0.0595 -0.1115
30692W        W46826  15.524   8.752   3.423 -0.0826  0.4449 -0.0909
30693W        W46827   5.608  12.863   2.041  0.1718  0.2420  0.0191
30694W        W46828   0.553   3.373   3.175  0.2124  0.0866 -0.0380
30695W        W46829  13.979  11.534   0.001  0.0115 -0.1209 -0.2263
30696W        W46830  12.963   4.607  10.412  0.1507  0.2796 -0.1457
30697W        W46831  11.708   1.573   1.480 -0.1756  0.0879 -0.0422
30698W        W46832  11.179   4.430   2.655  0.2151  0.1142  0.1540
30699W        W46833   4.856  14.095   2.045 -0.1720 -0.1667  0.1652
30700W        W46834   5.374   4.788  11.476  0.0563 -0.1080  0.2148
30701W        W46835   1.171   4.067  11.718  0.1401  0.0322  0.3589
30702W        W46836   4.100   2.545  12.518 -0.0148  0.0161 -0.0616
30703W        W46837  10.672   9.999  12.073 -0.0071 -0.3876 -0.1764
30704W        W46838  11.131  12.065   0.055 -0.2493  0.0537  0.1620
30705W        W46839  17.235  16.172  15.799  0.0176 -0.1248 -0.4044
30706W        W46840   5.994  17.818  12.534  0.1586  0.1985  0.1994
30707W        W46841  13.595   7.589  11.815  0.2164 -0.1102 -0.1502
30708W        W46842  16.073   8.831   0.939 -0.2064 -0.0636  0.0551
30709W        W46843   0.679   2.578  16.358 -0.0463 -0.0062  0.1638
30710W        W46844   4.956  12.865  10.204  0.2425  0.3494 -0.3126
30711W        W46845   2.871  15.022   0.129 -0.0475  0.0138  0.0315
30712W        W46846  10.839  15.863   1.992 -0.0531 -0.0426  0.1372
30713W        W46847  14.559   2.028  12.501  0.2274  0.1421  0.3443
30714W        W46848   6.679  13.870   4.825 -0.0971  0.1114  0.1534
30715W        W46849   5.166   5.470   0.966  0.0958  0.0522  0.0675
30716W        W46850   1.714   6.165  11.612  0.2884  0.1384  0.3638
30717W        W46851   2.028   8.026   0.322 -0.0824 -0.1690  0.1066
30718W        W46852   6.931   6.291  14.781  0.0970 -0.0892  0.1068
30719W        W46853  16.067   2.956   1.892 -0.0542  0.1276  0.0135
30720W        W46854  15.413  17.805   3.406 -0.0309 -0.0361 -0.1153
30721W        W46855   5.561   2.144  14.890  0.2124  0.3448 -0.0158
30722W        W46856   6.114  13.683  13.310  0.1351  0.0183  0.5042
30723W        W46857   9.519  12.144  11.210  0.0811  0.0045 -0.0690
30724W        W46858   7.659   4.260  13.917  0.2578 -0.0391 -0.1016
30725W        W46859   8.116   3.317  13.417 -0.1272  0.2194  0.0705
30726W        W46860  15.839  13.807   3.016 -0.1317  0.0962  0.0957
30727W        W46861   4.147  10.238  12.215  0.4338  0.1500 -0.1046
30728W        W46862  17.072  12.864  13.834 -0.2879 -0.2464  0.0518
30729W        W46863   9.261  10.594   5.276 -0.0430  0.0127  0.0140
30730W        W46864   6.958   7.551   5.580 -0.2233  0.0250 -0.0364
30731W        W46865   8.125  14.495  15.075  0.0903  0.0451  0.1472
30732W        W46866   2.378   4.751   1.373  0.0817  0.2711  0.0154
30733W        W46867   6.519   9.865   1.654  0.0865  0.1840 -0.0175
30734W        W46868   7.445   9.338  14.189  0.0123  0.0084  0.2287
30735W        W46869  10.621   9.135   0.299 -0.2065 -0.0312  0.1311
30736W        W46870  10.965   9.808   5.318  0.0461 -0.0498 -0.1356
30737W        W46871  15.865   3.876   3.892 -0.2072  0.1139  0.2587
30738W        W46872   7.752   7.499   5.931 -0.1583 -0.2529  0.2483
30739W        W46873   0.440   4.594   1.406 -0.0472 -0.0577  0.0003
30740W        W46874   5.011  10.467  12.675 -0.0838  0.3293  0.0481
30741W        W46875   5.080  17.146   2.208 -0.0861 -0.1261 -0.2656
30742W        W46876   6.852   0.857  16.311  0.0964  0.0507 -0.2882
30743W        W46877  10.987  12.706   4.884 -0.0974 -0.2847  0.1713
30744W        W46878  12.157  10.972  12.550 -0.0339 -0.0606 -0.0618
30745W        W46879   4.128  14.744  13.408 -0.3652 -0.1505 -0.1750
30746W        W46880   7.471  14.577  11.130 -0.0761  0.0259  0.2412
30747W        W46881   4.863   6.463  12.444 -0.1640  0.1695  0.2040
30748W        W46882  13.301   1.892   0.183  0.2075  0.2250 -0.0437
30749W        W46883   7.433   6.165  14.680 -0.2860 -0.1776  0.0113
30750W        W46884   5.800  10.651   4.429  0.1087  0.0691  0.1055
30751W        W46885   8.880  16.199   4.288 -0.2533  0.0055  0.1312
30752W        W46886  16.041   7.579  12.869  0.0626 -0.0740  0.4232
30753W        W46887  15.538   0.449   4.024 -0.0799  0.1210 -0.0799
30754W        W46888   7.879   9.593  12.959 -0.2971  0.1796  0.1054
30755W        W46889  14.771   8.329   3.614 -0.1523  0.0112  0.0780
30756W        W46890   1.630   4.042   3.243 -0.0341 -0.1840  0.1979
30757W        W46891  12.698  15.118  15.205 -0.0720 -0.0618 -0.4246
30758W        W46892   9.777  10.445  13.671 -0.0691 -0.1248 -0.2250
30759W        W46893   2.676  11.563  14.542 -0.2080  0.1206 -0.1521
30760W        W46894   9.841   8.193  12.817  0.1999 -0.0635 -0.0573
30761W        W46895  14.682   1.998  14.657 -0.0399  0.0287  0.0769
30762W        W46896   7.156  11.735   1.634  0.1012  0.1384  0.1228
30763W        W46897  11.667   3.638   0.691  0.0235 -0.1430  0.0108
30764W        W46898  13.099   6.110   5.453  0.2956 -0.1383  0.0089
30765W        W46899  10.190   7.457   1.197 -0.1091  0.0438  0.1109
30766W        W46900  13.736   9.581  11.721 -0.0047  0.1724 -0.1468
30767W        W46901  15.162   5.612  12.508 -0.1601 -0.0397 -0.0167
30768W        W46902   2.906   6.806  13.998 -0.2026  0.1396  0.2126
30769W        W46903   2.148   6.562  15.262 -0.0250  0.0699 -0.1638
30770W        W46904  16.685   4.574  16.221  0.2199  0.2069  0.1510
30771W        W46905  11.180   4.876  15.059  0.0498 -0.0544  0.0217
30772W        W46906  14.498  14.407   1.597 -0.0173 -0.2531  0.2404
30773W        W46907  17.606  13.809  16.307 -0.2655 -0.1598  0.0534
30774W        W46908   0.785  11.180  11.441  0.1847 -0.1349  0.0981
30775W        W46909   3.025  13.658   5.305  0.1841 -0.0992 -0.0704
30776W        W46910   4.383  12.030  14.996 -0.1485 -0.0752 -0.2212
30777W        W46911   7.327  16.469   1.356 -0.5075  0.0137  0.0559
30778W        W46912   6.881  11.782   6.207 -0.3512  0.0192 -0.0253
30779W        W46913   3.837  11.469  11.695  0.2167 -0.1528 -0.2419
30780W        W46914  10.356   5.565  12.428  0.0078  0.2289 -0.0928
30781W        W46915   0.717  17.807   3.183 -0.0604  0.1765 -0.2822
30782W        W46916   5.895  17.788  14.059  0.2474 -0.0077 -0.0689
30783W        W46917   9.899   8.054   3.968 -0.2149 -0.0206  0.0645
30784W        W46918   8.370   0.495  10.858 -0.4219 -0.2876 -0.1117
30785W        W46919   2.339  14.607  16.109 -0.1050 -0.1767  0.1824
30786W        W46920  14.754  12.824   3.998 -0.2685  0.4390 -0.0893
30787W        W46921   8.822   5.420   4.610 -0.0194 -0.2355  0.3297
30788W        W46922   3.262  10.636  15.576  0.1433 -0.0956 -0.0821
30789W        W46923  16.587   9.298   3.268 -0.2955  0.3380  0.1966
30790W        W46924  10.415   1.478  15.830  0.3836  0.0605 -0.0714
30791W        W46925   0.445  16.904  14.609  0.0644 -0.0749  0.2174
30792W        W46926  12.698   2.377   3.381 -0.2474  0.2741  0.0385
30793W        W46927   1.398  10.260  12.393  0.1381  0.3578 -0.3098
30794W        W46928   1.317  14.992  12.736 -0.2868 -0.1450  0.1211
30795W        W46929   6.114   6.558  12.959  0.1212 -0.1928 -0.0011
30796W        W46930  14.319   7.932   2.356 -0.1057  0.1413  0.0385
30797W        W46931  10.798  16.332  13.049 -0.0996 -0.0121  0.1958
30798W        W46932  17.262   4.304   5.033 -0.1793  0.0069 -0.1516
30799W        W46933  16.490  11.807   1.406 -0.2546 -0.1431 -0.0481
30800W        W46934   9.255  14.331  11.585  0.0987  0.0052  0.1515
30801W        W46935   9.421   7.923   5.474  0.2065 -0.1525  0.2396
30802W        W46936   3.747   5.260  13.729  0.0162  0.0377 -0.0145
30803W        W46937  14.505  10.900  16.214  0.0821  0.0394 -0.1963
30804W        W46938  10.239  13.128   0.586  0.1169 -0.1865  0.2208
30805W        W46939  15.890   4.507  14.669  0.1827  0.2481 -0.0423
30806W        W46940  10.925   1.965   1.875 -0.0814  0.2692  0.1133
30807W        W46941   2.440  11.111  11.772  0.2282  0.0192  0.0149
30808W        W46942   3.428   9.598   0.031  0.1931 -0.0736 -0.1926
30809W        W46943   6.272   5.308   4.326  0.3834 -0.0845 -0.1302
30810W        W46944   5.111   0.461  13.363  0.2555  0.2170  0.0455
30811W        W46945   8.830   2.441   3.295 -0.0339  0.0500 -0.0265
30812W        W46946   1.170  12.791  13.235  0.1276 -0.1952 -0.2642
30813W        W46947   3.553   3.983  12.448 -0.0148  0.0382 -0.1934
30814W        W46948   6.592  17.948  16.197  0.1500  0.0905  0.1614
30815W        W46949  17.116   3.476   6.126 -0.2984  0.1445 -0.1228
30816W        W46950   2.912  18.018  15.830  0.1325  0.0997  0.0910
30817W        W46951   2.749   9.542  13.484 -0.2108 -0.2053  0.0029
30818W        W46952   7.529   6.361   1.717 -0.3793  0.0945 -0.0794
30819W        W46953  13.545   7.317   1.859  0.0761 -0.3260  0.1938
30820W        W46954   8.319   5.367  11.735  0.1322  0.0474 -0.1099
30821W        W46955  17.026   6.665  11.712  0.2679 -0.2643  0.1387
30822W        W46956   8.394   1.786  15.145 -0.0341 -0.0235  0.1520
30823W        W46957  14.145   4.559  15.487  0.1107  0.0998  0.1468
30824W        W46958  18.077   4.203  14.688 -0.1649 -0.1307  0.2915
30825W        W46959   1.981  14.331  13.766 -0.0240 -0.3038 -0.1788
30826W        W46960   9.148   8.934   2.848  0.2675 -0.1510 -0.0276
30827W        W46961  16.633  16.859  15.700  0.0907  0.0554 -0.1227
30828W        W46962  15.226   2.500  15.652  0.0067 -0.2197 -0.0907
30829W        W46963  15.481   2.729  13.375  0.0013 -0.0533  0.2183
30830W        W46964   4.927  15.938   1.166 -0.0014 -0.0133 -0.4253
30831W        W46965  13.258   6.771   1.001  0.0135 -0.0821 -0.1364
30832W        W46966  17.117  15.739   3.083  0.1565  0.0224 -0.0717
30833W        W46967   6.259   7.983   5.918  0.1735  0.0118 -0.0521
30834W        W46968   2.463  11.997  14.439 -0.0312 -0.0803 -0.3774
30835W        W46969  16.619   0.030  16.240  0.1919  0.2662  0.3598
30836W        W46970  13.886   4.337   4.259 -0.0480 -0.2425 -0.5340
30837W        W46971   5.991  14.171   3.516 -0.0431 -0.1490  0.0558
30838W        W46972  10.748   6.285  14.198  0.0283  0.3171 -0.2464
30839W        W46973  10.518   8.929  12.127  0.1773 -0.3437 -0.1632
30840W        W46974   7.319  11.214  13.683  0.2930 -0.1770  0.0663
30841W        W46975  11.831  13.035  15.661 -0.2792  0.0047  0.0685
30842W        W46976  10.901  16.959   4.140 -0.2679 -0.0813  0.0067
30843W        W46977  15.678   8.675  15.273  0.0396 -0.1356  0.1438
30844W        W46978   6.108  14.080  14.116 -0.1637 -0.3301 -0.0014
30845W        W46979  10.714  15.296  13.092  0.2129  0.1707 -0.0525
30846W        W46980  15.492   3.940   1.068 -0.1979 -0.2191 -0.1238
30847W        W46981   1.588  12.636   1.323  0.2657  0.1033 -0.0862
30848W        W46982   6.134  14.453   5.318  0.2843 -0.2577 -0.2122
30849W        W46983   0.094  16.785  14.178  0.2739 -0.2851  0.0688
30850W        W46984  16.213  14.302  12.614  0.1879  0.1468 -0.2234
30851W        W46985   5.447   1.027  15.898  0.1258 -0.0789  0.0807
30852W        W46986   6.567  15.020  15.818 -0.0801  0.0268  0.1071
30853W        W46987  11.374   4.879   2.452 -0.0661  0.0572  0.2107
30854W        W46988   6.102   3.573  13.202 -0.0749 -0.1698 -0.0536
30855W        W46989   8.656  12.928  15.581  0.0027  0.2062 -0.0850
30856W        W46990   1.194  17.944  12.452 -0.0592 -0.1115  0.1952
30857W        W46991   2.170   0.605  13.802  0.0561 -0.0703 -0.0114
30858W        W46992   5.919  17.445   0.001  0.2438 -0.1552 -0.1979
30859W        W46993  13.767   2.521   4.448  0.2204 -0.0473 -0.1974
30860W        W46994   9.320  12.461   4.048  0.1471  0.1444 -0.1962
30861W        W46995  10.526  12.821   4.360 -0.0593 -0.3778  0.1400
30862W        W46996   5.666  16.931   3.895 -0.2676 -0.0162  0.1548
30863W        W46997  17.295  11.851   1.918  0.1323  0.1855 -0.1110
30864W        W46998   8.730   5.604  14.325  0.1868 -0.2030 -0.2263
30865W        W46999   2.763   9.072  13.186 -0.0370  0.1075  0.1638
30866W        W47000   9.453  17.908   2.628  0.0851  0.0179 -0.0134
30867W        W47001   5.001  12.032  13.107  0.1921 -0.1445 -0.2571
30868W        W47002  16.915   2.850   1.988 -0.3015 -0.3401  0.0943
30869W        W47003   0.144   0.153  12.516  0.0613  0.0878 -0.1081
30870W        W47004   2.944  10.284  11.226  0.3309 -0.3310  0.0352
30871W        W47005  11.715   1.423  12.466  0.3618  0.2377  0.0796
30872W        W47006  12.111   1.155  13.205 -0.1385 -0.0225 -0.2689
30873W        W47007  13.663   9.264   4.290  0.0651  0.0390 -0.2191
30874W        W47008   2.019   6.429  11.332 -0.1742 -0.0126  0.0728
30875W        W47009  17.654  13.901   1.370 -0.1345  0.1384  0.0528
30876W        W47010   7.535   8.063  12.079  0.0488  0.0468  0.0641
30877W        W47011  12.811   4.020  14.747  0.0413  0.1189  0.2002
30878W        W47012   8.246  17.396   3.981  0.2621 -0.3006  0.1703
30879W        W47013   0.155   6.600  11.259 -0.2492  0.0897  0.1560
30880W        W47014  13.922   5.370   3.166 -0.0561 -0.1318 -0.2221
30881W        W47015  15.654   1.431  14.750  0.1078 -0.0863 -0.0112
30882W        W47016  10.221  14.818  16.202 -0.0719  0.1271  0.1362
30883W        W47017   7.269   1.014  15.606 -0.0836 -0.1459  0.2077
30884W        W47018   7.555  14.014  13.162  0.0569 -0.1056  0.2164
30885W        W47019   0.631  13.212   3.872 -0.1581 -0.0885  0.1992
30886W        W47020   4.299  14.459   2.963  0.1179 -0.1990  0.1331
30887W        W47021   5.966  10.932   4.966 -0.1149 -0.0376 -0.2781
30888W        W47022   3.908  10.640   4.341 -0.4223  0.0216  0.0938
30889W        W47023   1.510   5.415   5.487  0.1558 -0.1323 -0.2607
30890W        W47024  10.329  15.076   0.975  0.1740  0.0295  0.0926
30891W        W47025   7.490   6.715  14.670 -0.0916 -0.2162 -0.1014
30892W        W47026   3.024  13.905   0.815  0.1853 -0.1703  0.2000
30893W        W47027   3.650   0.288   4.512 -0.0236  0.3296 -0.0608
30894W        W47028  13.980  15.118   0.629 -0.2204 -0.3066 -0.0689
30895W        W47029   2.172   7.945  13.595 -0.1572 -0.0757  0.0805
30896W        W47030   8.257  11.502  14.515  0.2159 -0.0425 -0.1166
30897W        W47031   8.029   4.572  15.166  0.0525 -0.0437  0.3540
30898W        W47032   0.109   7.343  14.260 -0.0688  0.0050  0.1603
30899W        W47033  11.984   0.357  13.298  0.0299 -0.1182  0.2176
30900W        W47034  11.440   4.490   3.906 -0.1111 -0.1701 -0.1271
30901W        W47035  13.963   1.609  15.785 -0.3089 -0.0877 -0.1260
30902W        W47036  12.823  11.681  10.773  0.2237  0.0487 -0.0145
30903W        W47037   0.179   8.910  12.271 -0.0859  0.0743  0.0700
30904W        W47038   8.228  10.950   3.340  0.2196 -0.1167 -0.2008
30905W        W47039  14.221  10.604  14.954 -0.3162  0.3260 -0.1145
30906W        W47040  15.724   2.371  15.668  0.3103  0.0707 -0.1254
30907W        W47041  10.475  12.552   1.483  0.2180  0.3303  0.1624
30908W        W47042   6.708  10.666   4.378  0.0196 -0.2125  0.2408
30909W        W47043   6.186  15.469   3.429  0.2298 -0.1296 -0.0562
30910W        W47044   7.785   0.718   5.158 -0.0817  0.3156 -0.1987
30911W        W47045   2.121  16.685   1.030 -0.2632 -0.0902  0.0020
30912W        W47046  12.515  15.589  15.280  0.0359 -0.0353  0.4722
30913W        W47047   5.078  12.242   1.812  0.0186 -0.3333  0.1655
30914W        W47048   0.753   9.343   3.974 -0.0025 -0.1176  0.1907
30915W        W47049  10.745   2.438   2.759 -0.2878 -0.1453 -0.5910
30916W        W47050  14.195   8.501   0.893  0.3116 -0.1875 -0.2504
30917W        W47051   7.987  11.494  13.586 -0.1435 -0.1006  0.4039
30918W        W47052  13.563  10.986   3.016 -0.3988 -0.0475 -0.1463
30919W        W47053   8.132  16.467  12.992  0.1143 -0.0647  0.0603
30920W        W47054  17.394  17.477  15.240 -0.0039  0.1945  0.4124
30921W        W47055  16.714  14.041   5.628  0.3064  0.0078 -0.0903
30922W        W47056  16.314  11.423  11.007 -0.0934 -0.1833  0.1549
30923W        W47057   4.016  14.979   5.547  0.0810  0.1195 -0.0363
30924W        W47058  10.978   6.107  13.562 -0.0516  0.3032  0.2345
30925W        W47059  15.572   7.648   0.471  0.0810 -0.0325  0.0022
30926W        W47060  13.284   6.027   0.473 -0.1766  0.3283  0.1847
30927W        W47061  15.859  11.418  13.891  0.0269  0.0731 -0.0018
30928W        W47062  12.934  15.917  15.129  0.2436  0.0678 -0.3499
30929W        W47063  15.037   2.218   1.506  0.1405  0.1727 -0.1171
30930W        W47064   3.114  13.332   1.882  0.1546  0.0033 -0.0558
30931W        W47065  11.311  15.821  13.850 -0.0485  0.2784 -0.2569
30932W        W47066   5.402   9.152  12.305  0.0991 -0.1829  0.1498
30933W        W47067  16.299   2.023   1.082  0.1506  0.0177  0.4119
30934W        W47068   7.194   5.109  12.972  0.1705 -0.1250 -0.0633
30935W        W47069   0.798   1.200  11.774  0.0227 -0.0976 -0.2048
30936W        W47070   1.211  11.812  10.177 -0.2481  0.1324 -0.1181
30937W        W47071   2.261  10.414   3.329  0.0541  0.4061  0.3500
30938W        W47072  15.042  10.310  14.233 -0.2247 -0.1228  0.2441
30939W        W47073   4.828   3.774  15.718 -0.1850  0.3779 -0.1211
30940W        W47074   4.122   3.453  12.565 -0.1310 -0.3867 -0.1236
30941W        W47075  13.917  11.448   2.033  0.0602 -0.1215 -0.3468
30942W        W47076  11.551   5.824  12.404 -0.3742  0.2831 -0.1521
30943W        W47077   6.115  13.812   4.005  0.1926  0.1784 -0.3111
30944W        W47078  15.766   0.302  14.338  0.0033 -0.0985  0.1355
30945W        W47079  12.682  10.879  11.315  0.2083 -0.0988  0.0963
30946W        W47080  16.879  11.562   1.101  0.1762 -0.0136  0.0383
30947W        W47081  13.872   3.974  11.953  0.1619 -0.1412  0.0661
30948W        W47082  17.955   1.676  11.946  0.1414 -0.2389 -0.0379
30949W        W47083   2.074   5.195  14.442  0.0048  0.1512  0.0392
30950W        W47084   3.364  15.487   4.207  0.1269 -0.0592 -0.1559
30951W        W47085  12.771   3.076   4.816  0.1906 -0.3638 -0.2952
30952W        W47086  15.085   7.059   2.757  0.2356 -0.2369 -0.0742
30953W        W47087   9.046  11.587  13.517  0.1442  0.2162  0.0471
30954W        W47088   0.495  17.415   4.612 -0.0066 -0.0367  0.1844
30955W        W47089  14.031  12.433   1.921 -0.0888 -0.0567  0.2710
30956W        W47090   8.291  12.264   0.114 -0.0739 -0.1189 -0.3211
30957W        W47091  12.060   3.543  11.790  0.1803 -0.2517  0.2568
30958W        W47092   7.644  14.801   1.475  0.0869  0.2107  0.0286
30959W        W47093   0.452  17.124  14.071 -0.0341 -0.1983  0.0105
30960W        W47094  11.811  13.902  13.930 -0.1042 -0.2171 -0.2352
30961W        W47095  12.591   9.070   1.694  0.0473 -0.0650 -0.2252
30962W        W47096  11.596   2.443   0.857  0.2648  0.1058 -0.0779
30963W        W47097  12.095   3.796   5.321  0.0805  0.1835 -0.0940
30964W        W47098  15.988  17.602  12.691  0.0590  0.0312  0.0331
30965W        W47099   5.140   5.543   3.451 -0.0161 -0.0103  0.1957
30966W        W47100  12.458   5.636  10.266  0.1718  0.2203  0.1079
30967W        W47101  11.076  15.784   5.104  0.0713  0.0769 -0.0555
30968W        W47102  11.868   9.338   5.126 -0.2275  0.0077 -0.3039
30969W        W47103  17.072  13.153   0.719  0.2916 -0.0996 -0.0747
30970W        W47104   2.138   5.640   1.043  0.1845 -0.0804  0.0089
30971W        W47105  13.338  11.701   0.702 -0.1023  0.3163 -0.0534
30972W        W47106  11.023  17.074  11.993  0.2561  0.0119 -0.0376
30973W        W47107  15.896   8.037  12.535 -0.4072  0.2043  0.1147
30974W        W47108   0.972  13.722   4.519  0.0489  0.0407  0.1326
30975W        W47109   2.971  16.897   1.944 -0.3488 -0.0369  0.2677
30976W        W47110   2.052   7.527  11.822  0.1016  0.0060  0.3942
30977W        W47111   1.420  13.446   1.493 -0.2277 -0.0752  0.0067
30978W        W47112  17.313   0.829  10.545 -0.1178  0.0874 -0.2963
30979W        W47113   0.719  10.021   1.839 -0.2166 -0.1844 -0.3148
30980W        W47114   1.160   8.638   4.704 -0.0985 -0.0464  0.2554
30981W        W47115  15.453  12.983  14.368 -0.0620  0.2463  0.0281
30982W        W47116   0.711   2.830   4.986 -0.5342 -0.1816  0.0900
30983W        W47117  17.690   3.541   2.992 -0.0046 -0.1551 -0.4063
30984W        W47118   4.012  15.921  12.676 -0.3853 -0.0818 -0.0798
30985W        W47119  12.729  17.336   4.087  0.0690  0.0534  0.0630
30986W        W47120   1.742  15.402   1.372  0.2038 -0.0702  0.2141
30987W        W47121  12.664   5.323  11.671 -0.0422  0.0397 -0.0956
30988W        W47122  11.322  17.830   1.968  0.1738 -0.1289  0.0762
30989W        W47123  16.880  15.043   3.087  0.0092 -0.1415 -0.0192
30990W        W47124  14.656  17.423   0.135  0.0103  0.3574 -0.3258
30991W        W47125  13.047  11.458  16.260 -0.0823  0.0556 -0.2573
30992W        W47126   3.988   7.234  10.497  0.0688 -0.3719 -0.0306
30993W        W47127   1.337  15.456  13.691 -0.1744  0.0819 -0.2707
30994W        W47128   4.306   7.128  11.386 -0.2753 -0.2116  0.3473
30995W        W47129   1.180   7.608   3.158  0.0095 -0.0944 -0.1736
30996W        W47130   7.607   4.458   1.426 -0.0535  0.1731  0.1325
30997W        W47131  11.425   4.768   0.840 -0.0662  0.2026  0.3637
30998W        W47132   2.906   8.554  15.798  0.0436 -0.0752  0.1980
30999W        W47133  16.174   5.077   3.505 -0.0488  0.1548 -0.0233
31000W        W47134   1.030  14.333  15.729  0.1108  0.1259 -0.0342
31001W        W47135  12.113   1.838   1.299  0.1001 -0.1731 -0.3434
31002W        W47136  10.340  13.416   5.930 -0.3087 -0.0614 -0.2449
31003W        W47137   8.364  12.730   6.050 -0.1773 -0.0613  0.0364
31004W        W47138  13.713  14.798  13.700  0.4799  0.0572  0.0852
31005W        W47139  16.276  10.080  10.336 -0.2662  0.0517 -0.0745
31006W        W47140  13.954   5.263  14.926  0.3159 -0.0416 -0.0196
31007W        W47141   5.935  15.847   4.896 -0.0589 -0.0307 -0.3218
31008W        W47142  12.150  10.444   3.079 -0.1420  0.1061  0.3332
31009W        W47143   2.940  16.186   0.755  0.1705  0.1507  0.0013
31010W        W47144   1.381   7.056  14.957  0.2667 -0.0443  0.0577
31011W        W47145  13.013   3.508   3.914  0.1208 -0.1140 -0.2843
31012W        W47146  10.051  10.992   0.042  0.0615  0.2511 -0.2292
31013W        W47147   6.126  16.104  14.894  0.1507 -0.1680  0.0987
31014W        W47148   3.655  11.479   5.593  0.0921 -0.0522 -0.0351
31015W        W47149   4.919  16.434  11.850  0.3145 -0.1347 -0.0983
31016W        W47150   9.988   3.468  15.616 -0.0300 -0.0247  0.0735
31017W        W47151   3.453   7.927  15.629  0.2301 -0.2262  0.0079
31018W        W47152  13.388   3.844   0.661 -0.2121 -0.0143  0.1345
31019W        W47153  14.079  14.649  15.044  0.0243  0.1411 -0.1466
31020W        W47154   3.122  14.054   2.894  0.2167  0.0160  0.0107
31021W        W47155   9.520   9.525   3.468 -0.2654 -0.1970  0.2525
31022W        W47156   7.693   8.251   2.937  0.1941 -0.2355  0.0593
31023W        W47157  14.932   9.837  12.104 -0.1183 -0.0259 -0.0844
31024W        W47158   9.316  11.104   0.291  0.3686 -0.0419 -0.0323
31025W        W47159   6.030  12.771   2.208 -0.0167  0.0783 -0.0422
31026W        W47160  17.040  11.484  15.107 -0.0139  0.1714  0.1339
31027W        W47161  13.908  14.182   6.075  0.0913 -0.0681  0.5276
31028W        W47162  10.286   8.520   1.614 -0.1043 -0.1773 -0.0059
31029W        W47163   8.524  11.063  13.618  0.2008 -0.0486 -0.2392
31030W        W47164   3.297  14.623   2.830 -0.2113  0.0398 -0.4305
31031W        W47165   5.135  12.672   5.489 -0.0622  0.2998  0.1390
31032W        W47166  14.350   6.310   3.635 -0.2997 -0.0812 -0.1360
31033W        W47167   2.878  14.084  10.621  0.1802  0.0100 -0.2806
31034W        W47168  12.129   3.962  15.787  0.0843 -0.1264  0.1086
31035W        W47169   5.625  11.223  12.114 -0.1018 -0.1778  0.0691
31036W        W47170   4.095   9.477   0.846  0.2972  0.0354 -0.0974
31037W        W47171  15.555  15.035   2.918  0.1670 -0.2125  0.0458
31038W        W47172   8.158  17.526  12.667  0.1865 -0.2591 -0.0012
31039W        W47173   9.741   6.101  15.919  0.0837 -0.0573  0.0509
31040W        W47174   7.725  17.820   1.244  0.0748  0.2923 -0.1988
31041W        W47175   3.335   7.443   2.727  0.2165 -0.2037 -0.0932
31042W        W47176  15.852   3.333  15.372 -0.0317  0.3925  0.1534
31043W        W47177  16.853   1.322  14.972  0.1675  0.1681  0.1714
31044W        W47178  11.098  11.794   0.443 -0.2015  0.0664  0.1425
31045W        W47179   2.189   0.160   1.144 -0.3254 -0.0185  0.1316
31046W        W47180   3.962  17.379   0.294 -0.0989 -0.1007  0.0981
31047W        W47181   0.407  17.470   2.358 -0.0527  0.1220 -0.1791
31048W        W47182  11.190   9.591   1.045 -0.1314  0.2268  0.0068
31049W        W47183  11.410   8.193   1.024  0.0152 -0.1381 -0.2435
31050W        W47184   8.789  15.266   4.147  0.2828 -0.1580 -0.0322
31051W        W47185  12.098   4.990   1.153  0.2543  0.1409 -0.0722
31052W        W47186   9.005  16.105   2.176  0.2821  0.0843  0.2109
31053W        W47187   7.534  17.689  13.310  0.2060 -0.0508  0.0336
31054W        W47188   5.416   5.925  15.721 -0.0158 -0.0715  0.0683
31055W        W47189   4.961   8.489   4.260  0.1942 -0.1019  0.1569
31056W        W47190  12.720   9.362   3.873  0.2582 -0.3334 -0.0101
31057W        W47191   3.932   1.037   1.953 -0.2205  0.1502 -0.2435
31058W        W47192   3.267  15.911   1.062 -0.0772 -0.0385 -0.0326
31059W        W47193  13.586   7.786  15.714 -0.0881 -0.0507 -0.0684
31060W        W47194  12.512  17.543  15.661 -0.0302 -0.0954 -0.0020
31061W        W47195   9.721   8.202   0.840 -0.1031  0.2039 -0.0112
31062W        W47196  14.834   6.636   2.808  0.1976  0.2862  0.0578
31063W        W47197   7.205   3.114   0.767 -0.0547 -0.0575  0.3186
31064W        W47198   7.119  15.465   0.023  0.1112  0.0745  0.1052
31065W        W47199   6.818   8.055  11.747  0.1471  0.0545 -0.2284
31066W        W47200   1.412   6.931  10.929 -0.1284  0.1356  0.2252
31067W        W47201  14.420   7.202   0.601  0.3782 -0.3000 -0.0866
31068W        W47202   0.093   1.481   5.934 -0.3270 -0.5276 -0.0134
31069W        W47203   9.404  12.546   4.611  0.0310  0.0333 -0.0488
31070W        W47204   5.244   1.018   5.469  0.0805 -0.5378  0.1235
31071W        W47205   6.599  11.180  14.376  0.1642 -0.1838 -0.4063
31072W        W47206   8.215   0.845  14.593 -0.0800  0.2883 -0.0196
31073W        W47207   4.329  10.247  15.527 -0.0271  0.0911 -0.0467
31074W        W47208  10.428   7.866   5.917  0.0265 -0.0411 -0.3797
31075W        W47209  16.559  16.400   5.269  0.3488 -0.0602  0.2015
31076W        W47210   3.789  10.141   5.021 -0.1136  0.0371  0.1274
31077W        W47211  17.751   4.584   4.080  0.0395  0.2427 -0.0783
31078W        W47212  11.600  14.617  15.710 -0.2219 -0.0669 -0.1791
31079W        W47213   0.372  14.489   4.581  0.2155  0.1613  0.1539
31080W        W47214   8.206  13.831   5.523  0.2418 -0.0587  0.1923
31081W        W47215  11.977   2.612   3.013 -0.0076  0.1457  0.0835
31082W        W47216  16.655   3.892   2.018 -0.0616 -0.1586  0.0840
31083W        W47217  15.175  13.179   1.249 -0.2225 -0.0973  0.2031
31084W        W47218   4.731  10.552   0.358  0.0027 -0.1508  0.3297
31085W        W47219   6.673  17.004  11.310 -0.1428 -0.0075 -0.3068
31086W        W47220  11.661   8.287  13.252  0.1213 -0.2767  0.1590
31087W        W47221  18.002  13.888  14.045  0.1328 -0.0084 -0.0885
31088W        W47222  12.973  14.140   1.575  0.1098  0.0870  0.0601
31089W        W47223  12.279  16.522   2.256 -0.1043 -0.1590  0.0839
31090W        W47224  10.304   7.348   4.125  0.1378  0.3606  0.0190
31091W        W47225  17.707   1.235   2.210  0.0750 -0.1385 -0.2153
31092W        W47226   7.273   3.502   3.254 -0.1874 -0.2543  0.0385
31093W        W47227  11.427  14.210   2.956  0.0804  0.0133 -0.1345
31094W        W47228   2.823   9.503  10.146 -0.0596  0.1270 -0.2310
31095W        W47229  17.409   4.532   5.481 -0.0274 -0.1856  0.0889
31096W        W47230   3.023   9.496   3.105 -0.0045  0.0599  0.1299
31097W        W47231  15.681  11.416   5.617  0.0498  0.1283 -0.4240
31098W        W47232   0.491  13.469  12.047  0.2076  0.1581  0.0647
31099W        W47233  12.160  12.667  11.126 -0.0176  0.0956 -0.0639
31100W        W47234   1.709  15.449  11.837 -0.2072  0.3924  0.0312
31101W        W47235   5.127   8.873  16.386 -0.1087  0.1603 -0.0527
31102W        W47236  15.997  12.132  13.928 -0.0902 -0.1858 -0.0237
31103W        W47237  14.141  10.404  11.753 -0.2291  0.1534 -0.0196
31104W        W47238   5.011   3.415   4.884  0.2195 -0.1272 -0.0444
31105W        W47239   3.521   8.073  14.223  0.1302 -0.2295  0.0595
31106W        W47240   0.222   4.851   5.854  0.1494 -0.0652 -0.0538
31107W        W47241   8.803  12.199   0.297 -0.3453 -0.0528 -0.1177
31108W        W47242   2.735  10.337   4.849 -0.2272  0.1540  0.1936
31109W        W47243  14.079  15.983  12.063 -0.1274  0.0407 -0.1879
31110W        W47244   1.346   3.045  11.630  0.1856 -0.1376  0.0069
31111W        W47245  15.206  12.443  13.670  0.1401 -0.0006  0.0725
31112W        W47246   1.593  12.526  13.797  0.2114 -0.0790 -0.1740
31113W        W47247   6.521  15.365  16.199  0.0519 -0.0882  0.0218
31114W        W47248   3.786  12.876  14.574  0.0384 -0.0503 -0.0800
31115W        W47249  11.638   1.590  13.697  0.0164  0.1975  0.4546
31116W        W47250   4.464  12.463   0.703  0.0290  0.2371 -0.0006
31117W        W47251  15.281  17.225  11.647  0.0344  0.0277 -0.1514
31118W        W47252   2.246  11.373   3.181 -0.1728 -0.0624  0.0050
31119W        W47253  13.081   2.061   3.571  0.0935  0.0760 -0.1566
31120W        W47254  11.063   8.611  13.237 -0.2416 -0.2637 -0.0833
31121W        W47255  17.763   8.572   0.931 -0.1541 -0.1387  0.0516
31122W        W47256   5.329  13.646  13.905 -0.0954  0.0534  0.0789
31123W        W47257   5.435   0.295  12.608 -0.0125 -0.0486  0.0628
31124W        W47258  14.569  10.608   2.253  0.0385 -0.0604 -0.3715
31125W        W47259   8.332   6.977   1.364 -0.1886  0.1726 -0.2552
31126W        W47260   1.397  15.386  12.391  0.1203  0.0010 -0.0546
31127W        W47261  16.597   4.945   1.969  0.2354 -0.1569  0.0631
31128W        W47262   9.476   9.148  14.230  0.1175  0.0607  0.2021
31129W        W47263  16.044  15.477  13.601 -0.3013 -0.3022  0.1047
31130W        W47264   7.201   3.130  14.263  0.0766 -0.2542 -0.0546
31131W        W47265  17.223   0.800  13.145  0.0075 -0.1765  0.1619
31132W        W47266   0.476  13.488  15.629  0.1710  0.0971 -0.1839
31133W        W47267   7.010  13.253   0.995  0.0265  0.0406  0.4732
31134W        W47268  11.844   4.910  11.864  0.1222  0.0807  0.0875
31135W        W47269   9.864   6.939  16.331 -0.0122 -0.1116  0.0344
31136W        W47270   3.632   3.435   2.849  0.2678 -0.3110  0.1512
31137W        W47271   2.100   8.967  11.848 -0.0971  0.0668  0.0297
31138W        W47272  14.501   5.448  15.037  0.1000 -0.1847  0.0400
31139W        W47273  12.201  14.530   1.296 -0.2054  0.2120  0.0273
31140W        W47274  17.354  16.083  14.913 -0.1387  0.1676  0.0636
31141W        W47275  11.748  16.587   3.504 -0.1223  0.0209 -0.0278
31142W        W47276   7.602   4.245  15.383 -0.1385 -0.2691 -0.1115
31143W        W47277   4.408   3.012   0.754 -0.1998 -0.0042  0.0792
31144W        W47278  14.970  13.087  15.049  0.0514  0.3991 -0.0257
31145W        W47279  16.584  13.477  12.337 -0.1588  0.0255  0.0013
31146W        W47280  17.503  16.722   2.379  0.2376 -0.0832  0.1946
31147W        W47281   7.484  16.387   0.740 -0.2508 -0.0253 -0.2215
31148W        W47282   9.485  15.710   3.741  0.2177 -0.2662 -0.0526
31149W        W47283  12.804   8.465   5.996  0.7239 -0.2273 -0.0012
31150W        W47284   3.016   3.621   0.697  0.0197 -0.2935 -0.0237
31151W        W47285  13.820   2.743   0.368 -0.0218  0.2278  0.0974
31152W        W47286  17.142   4.934  15.644  0.0698 -0.0382 -0.1506
31153W        W47287  11.745  18.072   4.455  0.0732  0.0568 -0.3179
31154W        W47288  13.429   2.688  13.105 -0.2997 -0.0322 -0.0958
31155W        W47289   6.348  15.350  11.126 -0.2533  0.0046 -0.1896
31156W        W47290  17.012   6.897   3.608 -0.1298 -0.0493 -0.1349
31157W        W47291  12.278  11.708   2.096  0.0922 -0.0197  0.3975
31158W        W47292   2.954   6.482  14.762  0.1776  0.1110 -0.0680
31159W        W47293   4.773  17.192   3.865  0.1397  0.1250 -0.2450
31160W        W47294   8.560  12.862  10.478 -0.0339 -0.0734  0.5622
31161W        W47295   4.248  17.089   4.625 -0.3848 -0.0959 -0.0012
31162W        W47296   7.803  14.514  16.162 -0.2370  0.1048 -0.1401
31163W        W47297  17.679   2.582   2.675 -0.1630 -0.0220  0.1581
31164W        W47298  10.189  17.872   2.160 -0.0273  0.0195  0.2101
31165W        W47299  12.069   8.628  14.581 -0.0773  0.1409 -0.1297
31166W        W47300   4.948  16.623   1.389 -0.0326  0.0599 -0.0030
31167W        W47301   4.416   5.105   5.189 -0.0206 -0.0910  0.1068
31168W        W47302  16.019  11.370  14.998 -0.2934 -0.1445  0.2449
31169W        W47303  12.783  10.857   1.426 -0.0435  0.1538  0.2186
31170W        W47304   4.655  10.146  11.865 -0.1059  0.1878 -0.4198
31171W        W47305  12.927  15.397  11.758  0.1420  0.3330 -0.0130
31172W        W47306   9.483   1.803   2.969  0.1514  0.1617 -0.1161
31173W        W47307   5.526  12.857  13.833 -0.2312  0.6260 -0.0271
31174W        W47308  12.343  17.122   2.421  0.0871 -0.0936  0.1732
31175W        W47309   3.832   5.522  10.410  0.0827  0.0792  0.1854
31176W        W47310  16.228   8.548  14.487 -0.3022 -0.2800  0.0469
31177W        W47311   8.181   5.860  11.795 -0.0582 -0.2666 -0.1623
31178W        W47312  17.725  15.848   5.219  0.0831 -0.0191  0.0013
31179W        W47313  17.289   1.371   2.598 -0.0037 -0.0592 -0.0521
31180W        W47314   5.981  11.610  15.068 -0.0809  0.0410  0.0401
31181W        W47315  12.341   2.703  11.416  0.0873  0.0127 -0.1944
31182W        W47316   4.506   2.786   2.509 -0.1209 -0.2235  0.0930
31183W        W47317   7.349   6.696  10.962  0.0682  0.0412 -0.1198
31184W        W47318  17.205  17.718  13.581  0.0589  0.0272  0.0360
31185W        W47319   6.256  12.530   2.554  0.0567  0.1447  0.2634
31186W        W47320  13.324   5.070   2.612  0.1149  0.0184  0.1581
31187W        W47321   4.189  10.441   4.680  0.2097 -0.1214  0.1242
31188W        W47322   5.233   1.086   0.004 -0.1154 -0.1844  0.2763
31189W        W47323  12.931   2.137   2.194 -0.1376 -0.2617  0.0440
31190W        W47324   8.433   5.533  15.834  0.0140 -0.1348 -0.1250
31191W        W47325   6.693   6.154   4.516 -0.0589 -0.3262 -0.2378
31192W        W47326   4.435  13.789  13.277 -0.1716  0.0603  0.0731
31193W        W47327   3.980   8.581  12.907 -0.0918  0.1116  0.4714
31194W        W47328   5.630   2.715  13.655  0.0309  0.1727  0.3453
31195W        W47329   9.968   6.332  12.684  0.0329 -0.0460 -0.1923
31196W        W47330   3.796  11.841   2.405 -0.2274  0.3696  0.2461
31197W        W47331   2.383   7.959   5.013  0.1049 -0.2237  0.0773
31198W        W47332   3.018  13.172  10.831  0.1736  0.0724 -0.2585
31199W        W47333  13.407   8.895   0.988  0.1942 -0.2389 -0.0988
31200W        W47334  14.651  13.573   0.069  0.2259 -0.2569  0.0441
31201W        W47335  13.814   2.836  15.839 -0.2487  0.1957 -0.2133
31202W        W47336   9.289   2.818  11.897 -0.0665 -0.1220 -0.1901
31203W        W47337  13.875  12.919  12.592 -0.0622  0.1507  0.2349
31204W        W47338  16.877  11.027   5.201 -0.0693 -0.1675  0.0530
31205W        W47339   9.764   9.414  15.496 -0.3058 -0.0225 -0.0171
31206W        W47340  13.397   8.112   4.514 -0.0434  0.0427  0.1113
31207W        W47341   7.891  15.460  12.195 -0.0059  0.1126 -0.2815
31208W        W47342   6.471   4.442   1.793 -0.1334 -0.4054 -0.0236
31209W        W47343   7.330  14.627   4.436 -0.0669  0.1988 -0.3329
31210W        W47344  16.996   3.200  13.878 -0.1394 -0.0022 -0.1692
31211W        W47345  14.623   8.117   5.227  0.1032  0.0524 -0.1309
31212W        W47346   6.794  12.569  13.466  0.0180  0.1752  0.1249
31213W        W47347  13.252   6.447   5.100  0.3095  0.0297  0.0603
31214W        W47348  11.461  15.107  11.497 -0.0113 -0.0650 -0.0476
31215W        W47349   2.163   7.222   4.284  0.2175 -0.1466  0.0811
31216W        W47350  16.063   5.815  13.528 -0.1898 -0.1279 -0.1892
31217W        W47351   8.682  15.109  11.285  0.2151 -0.3284  0.1808
31218W        W47352   3.522  12.024  16.088 -0.0198  0.2643 -0.1010
31219W        W47353  16.201   5.376  11.446  0.4511 -0.0197  0.0924
31220W        W47354   7.635   4.041   1.755  0.0618  0.2115  0.0404
31221W        W47355  14.690   2.846  11.722 -0.2959 -0.0265 -0.1827
31222W        W47356  10.297   9.336  12.363  0.0441  0.2418  0.0876
31223W        W47357   5.254   9.002   1.348  0.0412 -0.1887 -0.1074
31224W        W47358   6.022   1.054   5.668 -0.3143 -0.0006 -0.0988
31225W        W47359  17.661   6.612  12.423  0.0778  0.0555  0.2286
31226W        W47360  15.612   9.655  15.579  0.2216  0.1389  0.0872
31227W        W47361   3.474   6.793  14.770  0.0591  0.4567  0.1040
31228W        W47362  10.927  11.359   2.015  0.0731  0.0804 -0.1178
31229W        W47363   7.686   1.284  14.531 -0.0059  0.2048  0.0503
31230W        W47364  11.834   6.199  15.079  0.0664  0.0330 -0.0747
31231W        W47365  16.802   5.452  15.027  0.2450 -0.0060  0.1389
31232W        W47366   6.805  15.448  15.042 -0.1894 -0.1416  0.3900
31233W        W47367   1.539  14.365  15.637 -0.0995 -0.0275  0.1031
31234W        W47368   3.620  11.515   0.796  0.2803  0.1827  0.1601
31235W        W47369   3.414   6.490  15.152  0.0302 -0.4226  0.1227
31236W        W47370   5.721   5.352   3.321  0.0856  0.1809 -0.0699
31237W        W47371   4.864   0.100   4.859 -0.2782  0.5504 -0.3523
31238W        W47372  17.127  12.223  15.551  0.2234  0.1127  0.0944
31239W        W47373  17.361   3.649   1.036  0.0276 -0.3406  0.0703
31240W        W47374  15.062   8.467  12.413 -0.0291  0.0989  0.1134
31241W        W47375   1.402  17.053   0.784  0.2581 -0.3880 -0.1636
31242W        W47376  11.816   0.576  15.099 -0.0866 -0.1559 -0.3179
31243W        W47377  17.252  12.007  16.356  0.0964  0.1342  0.0196
31244W        W47378   3.892  11.023   2.685 -0.0658 -0.2195  0.1270
31245W        W47379   0.887   7.085  14.911  0.0852  0.0691 -0.0385
31246W        W47380   4.766  13.057   1.419  0.2947  0.0167  0.3699
31247W        W47381  13.749   6.612   0.994 -0.1120 -0.3752  0.0694
31248W        W47382   8.920   1.014   1.948 -0.2555  0.1510  0.1322
31249W        W47383   3.592  10.603   5.399  0.0494 -0.1877 -0.0057
31250W        W47384  11.147   2.831  14.149 -0.0727 -0.0562  0.0400
31251W        W47385   9.922  17.517   2.333  0.0921  0.3150  0.1333
31252W        W47386   1.001  14.508   6.071  0.3503 -0.0813 -0.0942
31253W        W47387   5.703   4.817   4.701 -0.0023  0.1386  0.0902
31254W        W47388   5.311  13.685  11.280  0.0349  0.0788 -0.0127
31255W        W47389   9.919   6.246   6.127 -0.0711  0.1181 -0.1718
31256W        W47390   2.279  13.280  12.510 -0.1816 -0.1409 -0.0157
31257W        W47391  15.202   9.402  15.936  0.2239  0.1054  0.2190
31258W        W47392  11.015  13.530   4.100 -0.0754  0.0238 -0.2973
31259W        W47393  15.537   6.295  12.955  0.0487 -0.0064 -0.0355
31260W        W47394  11.271   9.002  13.500  0.0026  0.1384 -0.1704
31261W        W47395  10.566   7.590   0.739 -0.1984  0.2214 -0.2121
31262W        W47396   1.400  13.536  12.854  0.0604  0.1925  0.1140
31263W        W47397   1.939   1.220  12.658  0.1608  0.2025  0.4498
31264W        W47398  14.520  11.782  13.939  0.1350 -0.1654 -0.0072
31265W        W47399  15.689  15.566   4.351 -0.1738 -0.1017 -0.0075
31266W        W47400  17.842  10.313   5.073  0.2613  0.0493 -0.0920
31267W        W47401  15.482   4.188   5.552  0.0470  0.1155 -0.2595
31268W        W47402   3.472   8.530  11.979 -0.2623  0.1960 -0.0717
31269W        W47403   3.523   9.224   4.635  0.2022 -0.0309 -0.0341
31270W        W47404   4.772  10.818   2.190 -0.1156 -0.0156 -0.1421
31271W        W47405   7.770   4.062   5.657 -0.2004 -0.0325  0.0968
31272W        W47406  12.515  14.490  14.972  0.0088  0.2094 -0.1372
31273W        W47407   4.221   7.096   0.929  0.3135  0.0085  0.1333
31274W        W47408   2.644   3.574   3.783  0.3390 -0.0253 -0.0339
31275W        W47409  17.423   3.562  14.556 -0.1048  0.2307  0.1690
31276W        W47410   9.289   4.130   4.396  0.1888  0.2244  0.1346
31277W        W47411  10.715   5.096   3.091 -0.1251 -0.4669 -0.0184
31278W        W47412   0.839   9.558   3.501 -0.0733  0.2159 -0.0259
31279W        W47413   3.745   2.762   4.654 -0.1488  0.4712  0.4025
31280W        W47414  17.442  11.515  16.413 -0.0755 -0.0655 -0.3211
31281W        W47415  14.487   0.378  14.439 -0.0167  0.1548 -0.4065
31282W        W47416  16.517   3.015   0.216 -0.1873  0.1445  0.2950
31283W        W47417  15.873  11.705  14.677 -0.0037 -0.2750 -0.0225
31284W        W47418  12.385   3.090   0.902 -0.1544  0.1396 -0.1625
31285W        W47419   5.877   8.342   5.655 -0.2675  0.2090 -0.0369
31286W        W47420  13.936   9.419   4.661  0.0979  0.2249 -0.0772
31287W        W47421  10.517  13.959  14.176 -0.1791  0.3737 -0.0122
31288W        W47422   2.414  16.218   3.543 -0.0936 -0.1494  0.0666
31289W        W47423   4.106  15.995  16.324  0.0179 -0.0471  0.1139
31290W        W47424  11.329   2.073  10.968 -0.0113  0.1332 -0.2267
31291W        W47425   5.269  11.984   5.869  0.0542  0.1042 -0.0393
31292W        W47426  11.870   8.037  15.331 -0.0694 -0.4623 -0.3210
31293W        W47427   1.662   2.212   3.470  0.0713  0.2441 -0.2937
31294W        W47428  16.300   9.939   4.285 -0.3344  0.0983  0.0400
31295W        W47429  12.678  10.997   2.501 -0.2114 -0.0528  0.0679
31296W        W47430   4.196  11.675   2.073  0.1975 -0.0410 -0.0954
31297W        W47431  16.868  17.535   1.174 -0.1329  0.4251  0.0505
31298W        W47432   1.907   9.850   4.684  0.0100  0.2841 -0.1384
31299W        W47433  13.278   0.990  14.234  0.2205  0.0082  0.1051
31300W        W47434   9.456   4.562   4.473 -0.3086  0.0532  0.1559
31301W        W47435  13.825  16.573   0.300 -0.0079 -0.1042  0.0890
31302W        W47436   5.448  11.042   0.194 -0.0321 -0.3016 -0.2471
31303W        W47437   6.188  14.010  16.063 -0.2148  0.4203 -0.1342
31304W        W47438   4.555   6.802   1.811  0.1141  0.0472 -0.0779
31305W        W47439  16.132   6.171   2.046 -0.1005  0.2570 -0.0842
31306W        W47440   7.323   2.065   0.221 -0.1452  0.2375 -0.1732
31307W        W47441  11.827  17.160   0.835  0.1702 -0.2941  0.0599
31308W        W47442  10.373   8.171   5.256  0.0968 -0.0496 -0.0837
31309W        W47443   2.321   5.961  12.800  0.0558 -0.6244 -0.0185
31310W        W47444  11.381  15.781  16.034  0.1371 -0.2821  0.1979
31311W        W47445  14.414  17.834  13.740 -0.1344 -0.0035  0.0676
31312W        W47446   0.087   9.011   2.335 -0.1135  0.0708 -0.0639
31313W        W47447  12.538   2.674  14.131 -0.1899  0.0651  0.0961
31314W        W47448   0.453  14.232  12.727 -0.0858 -0.1085  0.1436
31315W        W47449   7.900  16.958  10.260  0.3698  0.0198 -0.1670
31316W        W47450  16.483  17.247   3.151 -0.1473 -0.3109 -0.1342
31317W        W47451   4.072   7.803   0.365 -0.2034  0.0673 -0.1583
31318W        W47452  16.531   8.838   4.540 -0.2859  0.0077 -0.0446
31319W        W47453   9.844   4.207   1.127 -0.1158 -0.0592 -0.2131
31320W        W47454  16.796  18.003  13.395 -0.0167  0.0299  0.1155
31321W        W47455   1.410   4.706  10.884 -0.0423  0.1372 -0.1072
31322W        W47456  10.892   8.234   0.213  0.1745 -0.0578  0.0323
31323W        W47457   4.198  14.044  15.874 -0.3382  0.4746 -0.0379
31324W        W47458  16.936   2.773  15.886 -0.0312  0.0330  0.1520
31325W        W47459   4.298   6.441  16.273  0.2898 -0.2715  0.1642
31326W        W47460  15.258  14.408  14.895  0.1847  0.0923  0.1621
31327W        W47461   4.992  16.067   3.515  0.2876 -0.0074  0.0896
31328W        W47462  11.190   3.803  14.216  0.1691  0.2235  0.2762
31329W        W47463   5.075   2.667   0.240  0.1698 -0.0024 -0.0632
31330W        W47464   3.707  12.589   3.972 -0.1840  0.0950 -0.2383
31331W        W47465   3.495   3.555  11.988 -0.2139 -0.1283 -0.2069
31332W        W47466   2.993   1.002   1.687 -0.1473 -0.1582  0.2966
31333W        W47467  11.857  14.472  14.595  0.0958 -0.1186 -0.0795
31334W        W47468  14.863   6.143   4.527  0.0917  0.3744 -0.1751
31335W        W47469  17.659  17.124  12.180 -0.2286 -0.0350 -0.1389
31336W        W47470   3.542  15.801   3.057 -0.1111 -0.0877  0.0149
31337W        W47471   2.224   4.684   0.891 -0.1855 -0.0090 -0.0495
31338W        W47472  13.462  12.825   0.062  0.1843 -0.2659 -0.0099
31339W        W47473   1.494  14.969  13.587 -0.0020  0.2135  0.0990
31340W        W47474  15.340   7.773   1.356  0.2614  0.4946 -0.1166
31341W        W47475  11.357  11.468  14.427  0.2258 -0.0181 -0.1980
31342W        W47476  12.487   9.499   5.200  0.1368 -0.0216 -0.4255
31343W        W47477   4.200   9.014  15.738 -0.1968  0.3169  0.0713
31344W        W47478   3.031   4.176  14.281  0.2897 -0.1217  0.0726
31345W        W47479   2.119  13.360  14.663  0.1761 -0.2004 -0.0206
31346W        W47480  17.129  16.131   5.518 -0.0355 -0.0834 -0.1327
31347W        W47481  12.287   1.833   1.782 -0.1736  0.3184 -0.0701
31348W        W47482  16.419  13.128   2.366  0.0304  0.1059  0.1376
31349W        W47483   0.382  15.522   3.298 -0.0103 -0.0909 -0.1576
31350W        W47484   7.328   5.443  12.578  0.0548 -0.0398  0.2898
31351W        W47485   9.254  15.851   3.236 -0.0751  0.1752  0.2227
31352W        W47486   9.111   8.881   1.357 -0.0194  0.1701  0.3809
31353W        W47487  11.913  14.553   2.971 -0.1027  0.0959  0.3155
31354W        W47488  13.642   3.940  15.002  0.1885 -0.0521 -0.1758
31355W        W47489   7.754   6.528   0.336 -0.1798  0.1389  0.0759
31356W        W47490  17.139   6.664  12.235 -0.1263  0.0586 -0.2413
31357W        W47491   2.106   7.469   5.565  0.0024 -0.0153  0.0910
31358W        W47492   0.280  15.641  11.688 -0.0289 -0.2770  0.0342
31359W        W47493  10.352   4.496   4.859  0.1206  0.0092 -0.0674
31360W        W47494   5.459  12.065  11.858 -0.1206 -0.1640  0.1091
31361W        W47495  15.283  15.197   3.285 -0.0073 -0.0358  0.2195
31362W        W47496   1.620   1.453   0.318 -0.0362  0.2206 -0.1557
31363W        W47497  12.100   0.970  11.753  0.0655 -0.0796 -0.0708
31364W        W47498   0.103   8.293   3.065 -0.0470  0.0578 -0.0375
31365W        W47499  10.326   5.391   1.549 -0.0573  0.0158  0.2125
31366W        W47500  12.507  13.402  14.084 -0.0848 -0.1241  0.2223
31367W        W47501   1.370  15.658   0.881  0.0789 -0.4064 -0.0284
31368W        W47502  10.277  13.601   0.406 -0.0999 -0.0641 -0.1592
31369W        W47503   2.497  17.190  12.285  0.2118  0.1427  0.2469
31370W        W47504  13.481   2.545   5.466 -0.5790  0.1478  0.0910
31371W        W47505   1.194   1.208  14.753 -0.4431 -0.0392  0.2272
31372W        W47506   0.801  16.287   3.194 -0.1263 -0.0357 -0.0638
31373W        W47507   4.186  12.134  10.473  0.1060 -0.2043 -0.4631
31374W        W47508  12.273   2.439  15.038 -0.0045 -0.2414 -0.0901
31375W        W47509   1.544   6.720  10.292 -0.0995  0.0237  0.2359
31376W        W47510   4.867   7.156   0.186 -0.2106 -0.2043 -0.2735
31377W        W47511  16.872   9.410  14.482 -0.2250  0.1358 -0.2588
31378W        W47512  14.143   3.361   9.656 -0.1185  0.0244  0.2582
31379W        W47513   0.571   0.847  15.553 -0.0080  0.0372 -0.2617
31380W        W47514   7.903  13.651  11.536  0.1190 -0.3252 -0.0734
31381W        W47515  14.136   2.575  14.707  0.3407  0.1452  0.2241
31382W        W47516   8.775  14.352   4.388 -0.1395  0.0650 -0.0897
31383W        W47517  10.937   3.441   3.140  0.2963  0.3599 -0.2528
31384W        W47518   0.683   0.333  15.643 -0.0283  0.4567 -0.1171
31385W        W47519  10.478   5.946   1.460  0.2539 -0.0457 -0.0217
31386W        W47520  17.111  12.126   4.032  0.4290 -0.2627  0.1457
31387W        W47521   9.478   7.201   4.094  0.1152 -0.1384  0.2148
31388W        W47522  17.784   8.948   3.128  0.1969  0.5897 -0.1432
31389W        W47523   2.530   3.788   0.819 -0.1052  0.2231  0.1034
31390W        W47524   6.275   0.660   1.084 -0.2440 -0.0694  0.1251
31391W        W47525   3.768   3.893   3.057 -0.2097  0.1874 -0.1865
31392W        W47526  14.731  12.473   5.211 -0.3633 -0.0970 -0.3032
31393W        W47527   6.288  16.223   2.669  0.0124  0.1012 -0.1576
31394W        W47528   9.130  16.124  15.650  0.1890  0.0333  0.0387
31395W        W47529   1.844   7.079  11.665 -0.0939  0.1247 -0.3165
31396W        W47530  11.180  12.854  12.667  0.2033 -0.3997  0.0544
31397W        W47531   7.003   3.863   3.486  0.0195 -0.0872 -0.0679
31398W        W47532   1.171  13.900   0.633 -0.1361 -0.3183  0.1295
31399W        W47533   8.930   6.028   3.458  0.1429 -0.1494 -0.2378
31400W        W47534  11.747   4.577   1.804  0.0048  0.0335 -0.1879
31401W        W47535  15.166   4.973   3.374 -0.1694 -0.1710 -0.1686
31402W        W47536  16.496   0.101   4.157 -0.1545 -0.0014 -0.0876
31403W        W47537   9.310  10.216   0.991 -0.1507 -0.0509  0.1563
31404W        W47538  17.123  16.269  11.339 -0.0324 -0.0914 -0.0581
31405W        W47539  13.753   1.510   4.021 -0.1512 -0.0853  0.3726
31406W        W47540   5.619   0.294   0.503 -0.2418  0.2224 -0.0852
31407W        W47541  11.485   2.994  11.173  0.0890 -0.0798  0.1084
31408W        W47542   0.511  12.292  15.452 -0.2020 -0.0727  0.1098
31409W        W47543   1.983  13.649   4.915 -0.2312 -0.0795  0.0087
31410W        W47544   3.511   3.175   4.707  0.0019  0.0280 -0.1249
31411W        W47545   8.214  11.583   3.457  0.3419  0.2390  0.0691
31412W        W47546  11.479   7.603  10.512  0.1950  0.0642  0.0946
31413W        W47547  11.313  16.209  15.184  0.1644  0.1882  0.0332
31414W        W47548  14.341   4.464  12.916  0.1225 -0.1122 -0.0349
31415W        W47549  10.988   7.346   3.604  0.0805  0.2067  0.0986
31416W        W47550   7.573  15.484  10.815 -0.0932  0.0165 -0.0363
31417W        W47551  17.244  13.291   6.202  0.1571 -0.1479 -0.1198
31418W        W47552   0.739  13.793   0.948 -0.0631  0.1002 -0.0530
31419W        W47553  14.792   2.538  11.197  0.1186 -0.0277 -0.0788
31420W        W47554  16.371  15.131   3.763 -0.1737  0.1725  0.0374
31421W        W47555  14.594  13.940  13.374  0.1261 -0.1142  0.0256
31422W        W47556  13.268   0.372   2.971  0.2773  0.1607 -0.0284
31423W        W47557  13.472  14.951   0.958 -0.4507 -0.2525  0.1191
31424W        W47558  10.764  13.503   2.862 -0.1696  0.1534  0.0456
31425W        W47559  13.595   9.731   3.970  0.3402 -0.1123  0.3945
31426W        W47560  10.266  17.176  14.021 -0.0401  0.3016 -0.1664
31427W        W47561  11.701   1.910   3.428  0.3413  0.2452  0.0556
31428W        W47562   8.891   3.756  14.713  0.0849  0.0003 -0.2896
31429W        W47563  16.418  10.069  16.006  0.0776  0.1227 -0.0213
31430W        W47564  14.908   9.687   1.183  0.0777 -0.0373 -0.0087
31431W        W47565  15.402  17.886  16.042 -0.4548 -0.1439 -0.0521
31432W        W47566  15.430  16.643   0.571  0.1365 -0.1969  0.0520
31433W        W47567   1.874  16.368  11.617 -0.2359  0.4823 -0.2964
31434W        W47568   9.889   7.313   4.879 -0.2373  0.0766 -0.0141
31435W        W47569   1.254   8.511   4.152 -0.0542 -0.0923  0.2618
31436W        W47570   6.128   6.337   2.949 -0.0878  0.0950 -0.0233
31437W        W47571   3.279  16.197   1.519  0.1147  0.1250  0.4304
31438W        W47572   3.326  10.173   1.685 -0.0142  0.2262 -0.2408
31439W        W47573  10.888  12.191  11.274 -0.4278  0.0821 -0.0806
31440W        W47574   7.223   1.718  12.430  0.0886  0.0928 -0.1696
31441W        W47575   9.979   0.871   2.927 -0.0511  0.0957  0.1011
31442W        W47576   7.226   1.044   1.212  0.1640  0.2180 -0.1548
31443W        W47577   0.017   3.314   3.227 -0.0086 -0.1074 -0.0755
31444W        W47578  17.539   7.853   2.404 -0.1900  0.1269 -0.4428
31445W        W47579   3.569  17.670   0.029 -0.0475  0.0202  0.0064
31446W        W47580   8.318   3.213   4.178  0.1444 -0.1394  0.1341
31447W        W47581   9.580  16.474   3.800 -0.0364  0.0439 -0.0931
31448W        W47582  14.304  10.016   5.115  0.0936  0.1091 -0.0875
31449W        W47583  10.315  16.771   0.041  0.0881 -0.0432 -0.3314
31450W        W47584   6.931  13.024   0.135 -0.0333 -0.2017  0.0568
31451W        W47585  14.300   4.183   4.001 -0.0084 -0.1094 -0.0228
31452W        W47586   0.795  16.961   5.297 -0.0760  0.1498  0.0118
31453W        W47587   9.058  13.420   5.280  0.2775  0.2064  0.3837
31454W        W47588  10.200  16.684  14.025  0.2563 -0.3869  0.5109
31455W        W47589   2.110   4.586  14.342  0.1881  0.0967 -0.0965
31456W        W47590  14.082  12.981   1.590 -0.1100  0.0959  0.1412
31457W        W47591   4.252  12.786   3.782  0.2209 -0.1928  0.2484
31458W        W47592   1.175  15.374   0.529  0.0824 -0.2137 -0.0042
31459W        W47593  17.919   1.586  14.119 -0.2449  0.0362  0.1589
31460W        W47594  13.156   0.713  15.911  0.0525  0.0626 -0.1106
31461W        W47595   5.532  15.145  16.401 -0.2659  0.0473 -0.1547
31462W        W47596  12.567  17.300   5.926 -0.0326 -0.1880 -0.1173
31463W        W47597  15.697  11.122   2.095  0.1025 -0.0800 -0.2490
31464W        W47598   8.990  12.590  12.616 -0.0063 -0.0829 -0.0086
31465W        W47599   3.495   9.736   4.801  0.1145 -0.2384  0.0822
31466W        W47600  17.144  18.059   3.770  0.0734 -0.1339 -0.1231
31467W        W47601   3.636   4.479   5.295  0.4381 -0.3988  0.0747
31468W        W47602  11.168  10.594  13.906 -0.0861  0.0795  0.2889
31469W        W47603  14.273   4.946  15.023 -0.0937  0.2046 -0.0350
31470W        W47604  17.011   1.920   2.573 -0.1732 -0.2251  0.0977
31471W        W47605   7.481  15.443   1.211  0.1629  0.3507 -0.0743
31472W        W47606   0.762  16.131   4.713  0.1648  0.2757  0.1079
31473W        W47607  13.123   2.095   1.577  0.2813 -0.4982 -0.2938
31474W        W47608  14.607   3.881  14.604 -0.3233  0.0476 -0.2112
31475W        W47609   4.729   6.125   3.644 -0.0715 -0.0924 -0.0435
31476W        W47610  16.882   9.301   4.556  0.1751 -0.2581 -0.0265
31477W        W47611   3.284   9.316  16.095  0.4180 -0.1738 -0.0201
31478W        W47612   4.357   0.362   3.244  0.2114 -0.1061  0.1234
31479W        W47613  15.038  12.693  11.499  0.1051  0.1638 -0.1971
31480W        W47614   0.576  11.618  14.980  0.3556  0.1780  0.2007
31481W        W47615   4.780   5.219   1.290  0.2928  0.3320  0.1721
31482W        W47616   5.260   1.184   1.343  0.1540  0.2664 -0.2302
31483W        W47617  11.105   8.806  15.338 -0.1152  0.0616 -0.1030
31484W        W47618   5.334   6.969  13.805 -0.0073  0.0904 -0.6270
31485W        W47619  11.951  12.613   2.870 -0.0758  0.1477  0.0685
31486W        W47620   3.659  17.356  12.039  0.0567 -0.2959 -0.1666
31487W        W47621   6.322   7.408  13.420 -0.0528  0.0846  0.2051
31488W        W47622   6.089   2.557   5.076  0.0553 -0.0138 -0.1729
31489W        W47623  14.794   2.355  14.173 -0.1121  0.0131  0.0835
31490W        W47624  12.183  10.910  14.532 -0.1323 -0.0839 -0.1576
31491W        W47625   5.868   3.845  14.479  0.0997  0.2051 -0.2253
31492W        W47626  12.874   7.023  11.583 -0.0451 -0.1641 -0.1264
31493W        W47627   2.626   8.604   0.785  0.2435  0.0371 -0.2266
31494W        W47628   0.744   5.943  11.009  0.0076  0.3044  0.1818
31495W        W47629   8.364   5.236  12.999  0.0013  0.1647  0.1052
31496W        W47630   8.498   2.220   4.682  0.1261 -0.2777  0.3119
31497W        W47631   6.896   2.970  13.245 -0.0305 -0.0133 -0.0841
31498W        W47632   9.460  10.704  15.698  0.0048  0.4649  0.3518
31499W        W47633  14.000   2.937   3.507 -0.0804 -0.0111  0.1427
31500W        W47634   9.361   5.050   0.630 -0.1386 -0.1110  0.1845
31501W        W47635   7.117  14.299  15.440 -0.0890 -0.2267  0.1850
31502W        W47636   4.068   9.830   1.758  0.2953  0.2599  0.0409
31503W        W47637   4.095   1.383  13.269 -0.4095  0.0519  0.0941
31504W        W47638  11.366  13.605   6.469  0.1582  0.2363 -0.1513
31505W        W47639  13.282  13.467   0.164 -0.3006 -0.1902 -0.2803
31506W        W47640   7.722   9.234  13.359  0.2982  0.0617 -0.0082
31507W        W47641   6.139   7.697   2.420 -0.0483 -0.2235  0.3216
31508W        W47642   3.125   5.530   0.910  0.0901  0.3951 -0.0415
31509W        W47643  16.742  10.071   0.433  0.0785 -0.2107  0.0402
31510W        W47644  17.740  15.897   0.428 -0.2387 -0.0316 -0.0155
31511W        W47645   4.190  14.749  14.225 -0.1565  0.0930 -0.1528
31512W        W47646  12.515   5.796   1.159  0.0256  0.0121 -0.1608
31513W        W47647   4.434  10.167   0.465  0.1312 -0.1169 -0.1394
31514W        W47648   7.286   9.618   4.058  0.1478  0.2591  0.0716
31515W        W47649   1.062  12.537  11.914  0.0331 -0.1096 -0.2191
31516W        W47650  17.326   6.590   4.980 -0.1471 -0.3035  0.2701
31517W        W47651   2.303   0.750  15.511 -0.0305  0.1279 -0.0276
31518W        W47652   0.975  12.730  12.351 -0.2638 -0.0230  0.1728
31519W        W47653  13.073   2.934  12.344  0.4348  0.0469  0.1279
31520W        W47654  16.552   7.313  14.585 -0.0501 -0.5976 -0.0553
31521W        W47655  13.796  12.292   4.308 -0.0290 -0.1573 -0.1308
31522W        W47656   1.750   9.564   4.203 -0.3030 -0.0703 -0.0642
31523W        W47657   0.990   5.681   4.451 -0.1070  0.0707  0.0171
31524W        W47658  16.765  10.396  12.774  0.0475  0.2054  0.3063
31525W        W47659  12.701   6.530  11.611 -0.1697 -0.0337 -0.0676
31526W        W47660  17.323   0.606   2.378 -0.2515  0.0045  0.0939
31527W        W47661   7.126  11.077  13.116  0.0484 -0.3313 -0.1087
31528W        W47662   0.043  13.250   2.939  0.0427 -0.0024 -0.0378
31529W        W47663   6.852  16.605   3.313  0.0217  0.1579  0.0139
31530W        W47664   6.473  14.045   5.300  0.0353 -0.1639 -0.0508
31531W        W47665   4.561  13.884  16.307 -0.1029  0.0455 -0.1892
31532W        W47666  16.160  16.159   2.162  0.3145 -0.2645  0.2764
31533W        W47667  13.518  10.522   2.818  0.0711  0.1326  0.4136
31534W        W47668   0.070  15.839  12.176  0.2273  0.0475  0.0319
31535W        W47669   3.937   1.822   2.147  0.0339  0.0566 -0.2413
31536W        W47670   6.091   8.777  15.925  0.0843  0.0816  0.3844
31537W        W47671   2.607   9.168   2.128 -0.5190  0.4295  0.1998
31538W        W47672   9.584   6.062  12.517 -0.0445 -0.0245 -0.0803
31539W        W47673   9.649  16.789  11.256  0.0900 -0.0158 -0.2211
31540W        W47674  17.619   2.180  12.190 -0.1149 -0.0917  0.3970
31541W        W47675  11.257  13.524   4.588  0.3018  0.0856 -0.0535
31542W        W47676   2.979   2.691  14.679 -0.2840  0.2065  0.0802
31543W        W47677  14.663   6.015   1.979  0.0188 -0.0142  0.1086
31544W        W47678  11.291  11.952  12.417 -0.1434  0.1111  0.0500
31545W        W47679  11.853   5.513   4.121 -0.0618 -0.1219 -0.0638
31546W        W47680  17.167  11.406   3.649 -0.1846 -0.0127 -0.3460
31547W        W47681  15.906  16.562  14.948  0.4437 -0.0859  0.2022
31548W        W47682  14.924  12.049  11.568  0.0137 -0.2397  0.1306
31549W        W47683   1.981  13.028   2.572 -0.0822  0.0164 -0.0373
31550W        W47684   1.762  17.490  12.734 -0.0572 -0.0831 -0.1117
31551W        W47685  10.067  11.313  13.517  0.0620  0.1224  0.0380
31552W        W47686   8.493   3.627  12.002  0.0514  0.0200  0.1873
31553W        W47687   3.056  14.420   0.956 -0.2567  0.0995  0.4181
31554W        W47688   9.315   7.474   1.831 -0.0770  0.3375 -0.2280
31555W        W47689  17.955   3.445  11.833  0.0963  0.0192 -0.0981
31556W        W47690   7.205  12.673  15.063  0.0667 -0.1464 -0.1535
31557W        W47691  13.195   5.704  15.633  0.2051  0.2393  0.0684
31558W        W47692  17.098   7.554  15.798 -0.0810  0.0707 -0.0419
31559W        W47693  14.056   0.013   2.518 -0.1747  0.2586 -0.1668
31560W        W47694   8.201  15.260  13.121  0.0746 -0.1873 -0.4757
31561W        W47695   8.430   6.588  12.630  0.1356 -0.2172  0.0091
31562W        W47696   4.168   1.487   1.895 -0.3650 -0.0058  0.1648
31563W        W47697  17.350  12.112  15.106  0.0272 -0.1716 -0.0906
31564W        W47698   0.425  15.101  14.560  0.1240 -0.4084 -0.0376
31565W        W47699   5.305  10.339   5.812  0.0732 -0.0514  0.3194
31566W        W47700  17.623  10.363  12.890  0.0962  0.0612  0.2347
31567W        W47701  14.631  14.926   0.178  0.0775  0.1489 -0.4428
31568W        W47702  17.145   0.382   0.408 -0.2046  0.3292 -0.1274
31569W        W47703   7.970   4.288  14.280  0.1177  0.1921 -0.1578
31570W        W47704   3.846   6.819   3.510 -0.0792 -0.1470 -0.1146
31571W        W47705   7.461  14.972  11.622 -0.1330  0.0427 -0.1593
31572W        W47706   5.127  17.812  15.971  0.0642  0.0294  0.2316
31573W        W47707  14.543   0.132   5.501 -0.0450 -0.1046  0.0150
31574W        W47708   2.165  10.659  11.835  0.2131  0.1330 -0.1193
31575W        W47709   3.626   8.171   3.008  0.2030 -0.2589 -0.2017
31576W        W47710  13.834  12.065   0.007 -0.1934  0.1832  0.1728
31577W        W47711   2.394   7.019  14.183 -0.2359 -0.2568  0.1202
31578W        W47712   4.786  16.232  12.346  0.0851  0.3701  0.0603
31579W        W47713   5.910  11.998   2.669  0.2102 -0.0583  0.3231
31580W        W47714   1.551  17.459   3.441 -0.1105  0.0119  0.3808
31581W        W47715  12.248   6.260   4.656 -0.2411  0.1809 -0.0587
31582W        W47716   8.517  16.627  12.588  0.0144  0.1665  0.0556
31583W        W47717   1.032  12.283  15.459  0.5161 -0.1500  0.1029
31584W        W47718  13.873  15.243   2.139  0.2947  0.0726 -0.0969
31585W        W47719   7.909   9.196  11.435 -0.2497  0.1376  0.2081
31586W        W47720  17.720  11.628   1.404 -0.4736  0.0958  0.1751
31587W        W47721   0.230  13.748   3.067  0.3177  0.1785 -0.2967
31588W        W47722  11.950   3.406  14.764 -0.1084  0.1507  0.2971
31589W        W47723   1.365  11.614   0.643  0.2859  0.1319  0.0087
31590W        W47724   7.398  11.517  11.806 -0.1331  0.1259  0.0405
31591W        W47725  15.016  17.677  15.442  0.6449  0.3385  0.1525
31592W        W47726   7.445  16.396   3.250 -0.2924  0.0026 -0.2077
31593W        W47727   3.761  14.949   0.455 -0.0434  0.1981 -0.1055
31594W        W47728  13.131   7.619   4.381  0.1299  0.0462 -0.1480
31595W        W47729  11.955   0.953  13.946 -0.0983 -0.0075  0.4824
31596W        W47730  14.603   3.777   1.250 -0.0454  0.1797  0.4506
31597W        W47731  16.809  12.079  14.897 -0.3296  0.0785 -0.1982
31598W        W47732  17.689  17.067   3.600 -0.0282 -0.0209 -0.2634
31599W        W47733   1.196  17.739   5.900 -0.2041 -0.1639 -0.1039
31600W        W47734  16.872  15.781  15.659 -0.2178 -0.1762  0.2249
31601W        W47735   5.663   3.263   4.470  0.2924  0.0759  0.1081
31602W        W47736   0.021   5.060  15.870  0.3226 -0.0811 -0.1973
31603W        W47737  14.716  11.312   6.078  0.2039  0.1168 -0.0030
31604W        W47738   1.600  16.973   4.230 -0.0242  0.1510 -0.2257
31605W        W47739  17.660   7.083   4.440  0.0545 -0.0246 -0.3030
31606W        W47740   3.906  10.484   3.832  0.1693 -0.0344  0.0207
31607W        W47741   0.217   2.170   1.124  0.0140 -0.1560  0.0075
31608W        W47742  14.564   2.911  15.192  0.0034  0.1335  0.1158
31609W        W47743  13.099  14.745   6.293  0.2933  0.4658  0.0138
31610W        W47744   2.587  17.596   0.187 -0.1422 -0.0769 -0.0540
31611W        W47745   6.929   1.874   3.566  0.4313 -0.2300  0.0196
31612W        W47746  16.360  17.698  15.925  0.0529 -0.2375 -0.3050
31613W        W47747  16.494   8.301   4.025  0.0100  0.0388  0.1873
31614W        W47748   7.340   4.654   0.975  0.0681  0.0314  0.0290
31615W        W47749  10.048   1.071   4.162  0.1429 -0.0765 -0.1407
31616W        W47750   5.615   1.724  12.416 -0.0749  0.3434  0.2539
31617W        W47751   0.698   0.803   0.556  0.0642  0.4546 -0.0373
31618W        W47752  17.517  12.039  11.127 -0.4496  0.1270  0.3695
31619W        W47753   5.315   5.215  15.091 -0.0290  0.0497  0.0420
31620W        W47754   6.862  15.147   0.487  0.0133 -0.0195  0.0866
31621W        W47755   5.766  16.040   0.534  0.1008  0.3520 -0.0250
31622W        W47756  10.684   9.536  10.372 -0.0465  0.0595  0.1207
31623W        W47757   2.104   1.709  12.716 -0.0949  0.1856 -0.2888
31624W        W47758   6.446   0.575  13.610  0.2127 -0.0109 -0.0290
31625W        W47759   7.548   0.325  15.983  0.0247  0.2018  0.1027
31626W        W47760   1.438   3.932  12.545  0.3721  0.2224 -0.2060
31627W        W47761   5.791   7.697  14.251  0.2744  0.3914 -0.0878
31628W        W47762   6.517   3.552  11.066 -0.0679  0.3429 -0.1065
31629W        W47763   2.903  14.902  14.152  0.1112 -0.1038 -0.2757
31630W        W47764  14.060   5.778   0.152 -0.0459 -0.1582  0.0338
31631W        W47765   1.175  11.633  16.054 -0.1777  0.4010  0.1640
31632W        W47766  16.848   1.384  16.042  0.1810  0.2807 -0.1534
31633W        W47767  15.934  11.203   1.584  0.0140 -0.4977  0.1402
31634W        W47768  11.857   0.016   5.571  0.3052  0.3884  0.2197
31635W        W47769  17.806  13.930   0.883  0.2090 -0.1710 -0.3126
31636W        W47770   1.082  15.029   4.768 -0.2191 -0.0069  0.1863
31637W        W47771  13.226   3.403   0.816  0.1298 -0.1143 -0.0244
31638W        W47772   4.987   9.582  10.706 -0.3664 -0.2235  0.1074
31639W        W47773   9.489   3.537  15.337 -0.1843 -0.1541  0.1156
31640W        W47774   9.990  14.888  13.349 -0.1775 -0.2582  0.0312
31641W        W47775  12.269   7.595  10.967 -0.1582  0.2164  0.0966
31642W        W47776  17.296   0.561   3.757 -0.3422  0.0616  0.1202
31643W        W47777   7.740   1.146  11.787  0.1342 -0.1207 -0.0340
31644W        W47778  14.385  12.676   4.892  0.0394  0.2971  0.1332
31645W        W47779  17.632  12.056  12.831 -0.1285  0.2636 -0.0745
31646W        W47780   6.593  12.566   0.885  0.1509  0.1589 -0.1595
31647W        W47781   5.502   7.173  12.816  0.1796 -0.3316 -0.1017
31648W        W47782  10.295  12.328   5.765 -0.1002 -0.1051 -0.0572
31649W        W47783  12.136   8.631   0.485  0.1729 -0.1823  0.0226
31650W        W47784   8.303  13.311   5.465 -0.1030  0.0878 -0.0211
31651W        W47785  11.727  11.769   3.781 -0.0470 -0.1110 -0.1309
31652W        W47786   1.411   3.162  11.105  0.2168 -0.0534 -0.3135
31653W        W47787   7.923   8.472   2.539 -0.0660  0.1471  0.0129
31654W        W47788  10.121   7.530  14.381 -0.1038  0.0343 -0.1216
31655W        W47789  12.691  16.031  15.550 -0.1270  0.0165  0.0796
31656W        W47790   7.712   5.903   5.883 -0.1910 -0.0557  0.2298
31657W        W47791   7.120   7.394  11.547  0.2694 -0.1668  0.0239
31658W        W47792   2.855  14.096  14.934  0.0003  0.3693 -0.1561
31659W        W47793   0.554   6.813   0.661 -0.0620 -0.0283 -0.1485
31660W        W47794  17.842   3.527   2.524  0.1657  0.2487  0.4062
31661W        W47795   1.174  10.557  13.719 -0.2379 -0.3206  0.1498
31662W        W47796   6.489   0.750   0.224 -0.1877  0.0165  0.0051
31663W        W47797  10.464   3.292  12.239  0.1995  0.1489 -0.0756
31664W        W47798  17.075  13.693  12.340  0.0458  0.0121  0.0229
31665W        W47799   4.922   9.993   0.574  0.0580 -0.0339 -0.0120
31666W        W47800   3.835   6.602   1.042 -0.0102 -0.1886  0.1003
31667W        W47801   7.908  12.666   4.169  0.0816  0.1469  0.0952
31668W        W47802  16.246  14.946  15.002 -0.4714  0.0543  0.1166
31669W        W47803  14.609  15.098   5.832  0.0414  0.1054  0.1106
31670W        W47804   5.238  13.928   1.166  0.1371  0.0304 -0.1474
31671W        W47805   5.691   1.580  11.629  0.0832  0.1006 -0.0737
31672W        W47806  14.870   3.363  13.700  0.2614 -0.2196 -0.0279
31673W        W47807  14.819   4.514   4.089 -0.1435  0.0806  0.0774
31674W        W47808  13.351  17.894   0.356 -0.0598  0.0527 -0.0667
31675W        W47809   5.391   8.285  11.809  0.1176  0.0611  0.2041
31676W        W47810   0.107   2.378  15.556  0.0912  0.1143  0.0735
31677W        W47811   2.496   2.934   4.909 -0.1879  0.0499 -0.0682
31678W        W47812   6.110   6.210  11.361  0.2322 -0.0000 -0.0835
31679W        W47813   9.128  15.599  15.568  0.1054  0.1362 -0.0642
31680W        W47814   0.740   4.301   2.306 -0.1480  0.1627  0.0628
31681W        W47815  15.004   2.959  14.805 -0.1740  0.0584  0.3021
31682W        W47816  11.008  10.313   5.174  0.1367 -0.0915  0.0573
31683W        W47817   2.739  13.761   2.740  0.0209 -0.3512 -0.0217
31684W        W47818   7.477   1.345  12.197 -0.2349 -0.2136  0.0243
31685W        W47819  15.154  17.317   4.248  0.0926 -0.0043  0.1230
31686W        W47820  16.414   0.360  11.567  0.0614 -0.2502 -0.2043
31687W        W47821  13.408   1.406  14.611 -0.0362 -0.3577  0.0786
31688W        W47822  13.543  13.497  15.766  0.1617 -0.1108 -0.0370
31689W        W47823   8.582  11.257  15.486 -0.1733  0.2349  0.2272
31690W        W47824  17.874   6.827   3.575 -0.2499 -0.0490 -0.1565
31691W        W47825   1.671   0.062  13.290  0.1957  0.0508 -0.1005
31692W        W47826   8.449   3.919  14.976 -0.1338  0.0992  0.0577
31693W        W47827  15.323   1.240  15.050  0.1261 -0.0829 -0.0109
31694W        W47828  14.332  15.627  15.808  0.0869  0.0900 -0.1469
31695W        W47829   7.337   5.413  11.774 -0.2497  0.0581 -0.0657
31696W        W47830  15.183  11.875  15.107 -0.0898 -0.2034  0.0829
31697W        W47831  10.084   5.077  11.481 -0.3687  0.0408 -0.3312
31698W        W47832  16.084  13.891  14.689 -0.0737  0.0074  0.2298
31699W        W47833   8.129   9.208  14.906  0.0421  0.0437 -0.1606
31700W        W47834  16.019   9.099   4.263 -0.1692 -0.0392  0.2203
31701W        W47835   3.484  13.333   4.753  0.1600  0.0958 -0.0720
31702W        W47836   0.705   0.174  14.794 -0.1337  0.0783  0.0396
31703W        W47837   4.579  15.186  15.256 -0.0075  0.1304  0.0938
31704W        W47838   6.874  14.334  11.791  0.0473 -0.0892  0.1155
31705W        W47839  15.082  12.809  15.756  0.0198  0.0450 -0.0674
31706W        W47840  16.644   7.321  11.168  0.0384  0.2221 -0.2425
31707W        W47841   0.914  12.425  12.965 -0.1212  0.1051 -0.0662
31708W        W47842   5.551  17.631   3.523  0.1468 -0.1364 -0.1879
31709W        W47843  15.200  11.274  14.647 -0.1357 -0.0483 -0.3629
31710W        W47844   1.839   2.508  14.344 -0.1707  0.1532 -0.1088
31711W        W47845  10.773  17.167   1.146  0.2985 -0.0573 -0.2283
31712W        W47846   7.242  12.846  13.617  0.1751  0.2124 -0.0207
31713W        W47847   2.563  15.765   4.581  0.2049 -0.0920  0.3578
31714W        W47848  10.926   4.121   0.200 -0.7593  0.0641 -0.1923
31715W        W47849   5.693  14.654  15.208 -0.0257  0.1574 -0.2475
31716W        W47850  10.142   9.064   4.376  0.2594 -0.0749  0.1801
31717W        W47851   3.263  17.414   4.372  0.2596 -0.0681 -0.1307
31718W        W47852  14.637   3.254   4.313 -0.0234 -0.0716 -0.0298
31719W        W47853   8.107   1.258  12.746 -0.0429 -0.1087  0.1220
31720W        W47854   0.055   2.684  10.396  0.0609 -0.1557  0.0921
31721W        W47855  15.306   1.787  15.775  0.1538  0.1268  0.0603
31722W        W47856   1.648   9.655  15.579 -0.0882  0.0110  0.0729
31723W        W47857   0.530   3.796   5.602  0.0928  0.0737 -0.0124
31724W        W47858  11.876   4.807   0.558  0.0559  0.0063 -0.2038
31725W        W47859   8.038   9.972   4.109  0.1189 -0.0908 -0.1002
31726W        W47860   5.442  17.564   0.179  0.2394  0.0928 -0.0910
31727W        W47861   6.569   9.266  13.233  0.0926  0.0042 -0.0748
31728W        W47862  13.369  15.289  14.197 -0.1270 -0.1970  0.0748
31729W        W47863   7.875   5.666  13.643  0.2204  0.0146 -0.0841
31730W        W47864  17.784  15.517  16.043  0.0721  0.1715  0.1271
31731W        W47865   1.933   3.754   3.480  0.1891  0.1261 -0.0621
31732W        W47866   3.349   2.081   2.316  0.0144  0.0888 -0.2010
31733W        W47867  15.548   3.568   4.293  0.0426  0.0259  0.2123
31734W        W47868  15.979   8.975   3.787 -0.0982 -0.1866 -0.0655
31735W        W47869  10.744   6.224   0.482  0.0114  0.0108 -0.1501
31736W        W47870  16.277   5.455   0.653  0.0231 -0.1796  0.0781
31737W        W47871  13.732   1.262   3.086  0.2789 -0.1448 -0.1000
31738W        W47872  14.146  16.094  11.144 -0.2712  0.1063  0.2767
31739W        W47873   6.770  13.471  15.206 -0.0488 -0.2051  0.1881
31740W        W47874   4.542  17.742  15.125 -0.2652  0.0404  0.0457
31741W        W47875   1.787   0.055  14.421  0.2847 -0.2280  0.1799
31742W        W47876   4.773   8.807  14.584  0.1082 -0.1255  0.0886
31743W        W47877   7.354   9.396   3.115 -0.1747  0.0126 -0.0307
31744W        W47878   7.221   0.676  12.903 -0.1655  0.0967  0.0872
31745W        W47879   4.940  15.579  15.148 -0.4876 -0.0626  0.0381
31746W        W47880   4.057   1.538  15.754 -0.0054  0.0090 -0.1713
31747W        W47881  16.695   6.462   3.754 -0.1110  0.1076  0.0285
31748W        W47882  18.011  11.088  11.619  0.1879 -0.0962 -0.0987
31749W        W47883   3.001   6.451  11.884  0.3679  0.1662 -0.1831
31750W        W47884   9.445   2.508  14.554 -0.5059 -0.0082  0.2598
31751W        W47885  10.078  16.807   2.941  0.2506  0.1488 -0.1991
31752W        W47886  16.536   1.502   3.722 -0.0545 -0.4317 -0.1518
31753W        W47887   2.952   5.437   4.380  0.1333 -0.0667  0.0112
31754W        W47888  12.395  11.436  16.077 -0.2100  0.2673  0.0474
31755W        W47889   0.411  11.760   0.795  0.0004 -0.0140 -0.1610
31756W        W47890   3.864   8.700   2.300 -0.0327 -0.0219  0.3332
31757W        W47891  15.580   0.712  13.284 -0.1487 -0.3577  0.1431
31758W        W47892   0.243  14.239  14.187 -0.0126 -0.2086  0.2325
31759W        W47893  18.086   7.565   4.426 -0.0599  0.0367 -0.0988
31760W        W47894  11.520   3.418   4.770 -0.0168  0.1769 -0.3284
31761W        W47895  11.862   5.626  11.979 -0.2543  0.0613  0.1283
31762W        W47896   9.217   2.504  13.313  0.0589 -0.0221  0.2116
31763W        W47897  15.541  12.311   1.487 -0.2156 -0.3671  0.0511
31764W        W47898   5.173  13.583   2.102  0.0199 -0.3034 -0.1831
31765W        W47899  12.062   7.432   0.698 -0.2115  0.1953  0.0177
31766W        W47900  17.317   7.561   2.798 -0.0747  0.0281  0.0698
31767W        W47901   4.602   5.365   5.763  0.3540 -0.2233  0.1356
31768W        W47902  13.211  16.346   4.453 -0.1378 -0.2080  0.0072
31769W        W47903  14.191   3.329   1.277  0.3541 -0.1249  0.0989
31770W        W47904   6.116   1.885   2.215  0.1540 -0.0674  0.1518
31771W        W47905  11.677   1.857   0.020  0.5931 -0.0647 -0.0376
31772W        W47906  17.235  12.103  10.621 -0.1767 -0.1028  0.1753
31773W        W47907  17.967  11.983  11.176  0.0592 -0.1845  0.0991
31774W        W47908  12.905  12.822  15.200 -0.2831  0.0357 -0.0691
31775W        W47909   5.568   9.679  13.144  0.1137  0.1747 -0.3434
31776W        W47910   5.491   4.139  16.302  0.2345  0.3071  0.1937
31777W        W47911   1.283  10.819   0.186  0.0411 -0.1448 -0.0447
31778W        W47912   7.354  11.147   2.457 -0.0275  0.0114 -0.1382
31779W        W47913   7.811  11.868  12.412 -0.0382 -0.1547 -0.1297
31780W        W47914   6.604  15.808   0.424  0.0237  0.2719 -0.0880
31781W        W47915   4.330  17.897   0.696 -0.0479 -0.3381  0.0421
31782W        W47916   5.784   2.375  14.049 -0.1179 -0.1861  0.1998
31783W        W47917   3.110   6.182  15.759  0.3170 -0.0159 -0.0683
31784W        W47918  16.627  15.939  14.568  0.1560 -0.0396  0.0321
31785W        W47919  16.617   7.120   1.615  0.0759  0.2404 -0.1170
31786W        W47920   2.869   2.137  11.803  0.1404 -0.1170 -0.1541
31787W        W47921  11.642  15.835  12.825 -0.0634 -0.4846  0.0189
31788W        W47922  10.335   4.763  13.469  0.2542 -0.2138  0.1897
31789W        W47923  11.334   1.977  15.916  0.0415 -0.0993  0.2365
31790W        W47924   4.276   3.024  12.260  0.2288  0.3033 -0.0422
31791W        W47925  16.958   4.337  13.630  0.3239  0.1574  0.3598
31792W        W47926   6.198  17.284  13.944  0.1464 -0.1413 -0.3456
31793W        W47927   1.725  16.870  15.350  0.1206  0.0702  0.1037
31794W        W47928  16.928  17.688   1.909 -0.0679  0.0597  0.0525
31795W        W47929  17.924  14.627   3.426 -0.0916 -0.1173 -0.0136
31796W        W47930   7.571  17.120   0.301 -0.0045  0.1325 -0.1786
31797W        W47931  14.453  14.810   0.718 -0.1209  0.2855  0.2833
31798W        W47932   6.289  14.627   1.931  0.0736 -0.0077 -0.0120
31799W        W47933  15.379  14.399   4.818 -0.0432 -0.3330  0.1475
31800W        W47934  15.925  12.564  11.567 -0.0957  0.1832 -0.0051
31801W        W47935  16.510   9.041  14.740  0.0062 -0.1367  0.1039
31802W        W47936   2.730   3.647  15.695 -0.4132 -0.0441 -0.2956
31803W        W47937  10.100   8.691  12.962  0.0917 -0.2073 -0.0159
31804W        W47938   5.075  16.756   5.044 -0.1547  0.0121  0.2627
31805W        W47939   0.783  12.288   5.042  0.1029  0.0529  0.0521
31806W        W47940   3.896  15.254  15.802 -0.0868  0.0055 -0.1750
31807W        W47941   1.244   6.970  13.981 -0.1533  0.1314  0.1976
31808W        W47942   1.552   2.723   6.003  0.0426  0.2572  0.0502
31809W        W47943  16.452  12.067  13.397 -0.0438 -0.2324 -0.2278
31810W        W47944  14.515   2.433  12.135 -0.3037 -0.2724 -0.2867
31811W        W47945   5.285  12.412   3.252  0.1445 -0.0422 -0.0251
31812W        W47946   9.457  16.256   1.442 -0.0364  0.0677  0.0488
31813W        W47947  12.503  11.050   0.002 -0.1718 -0.0200  0.1461
31814W        W47948   0.741  15.033   1.985 -0.2217 -0.1977  0.0337
31815W        W47949   5.196   4.515   1.535 -0.0162 -0.4778  0.0537
31816W        W47950   6.061   8.802  14.748  0.1787 -0.2806 -0.0057
31817W        W47951  10.448  14.111   2.922  0.0747 -0.0513 -0.0333
31818W        W47952   3.224  16.444   5.942  0.1503 -0.0179 -0.0731
31819W        W47953   3.004  11.149   2.150  0.0041 -0.1726 -0.1637
31820W        W47954  17.870  14.429   4.435 -0.0281  0.1551  0.0453
31821W        W47955  16.838  15.361  13.024 -0.3969  0.0122  0.2566
31822W        W47956   3.276  17.867   5.493  0.3744  0.0386 -0.1885
31823W        W47957  13.358   6.128  15.871 -0.0549  0.2375 -0.5956
31824W        W47958  14.212  10.379  13.643  0.0271  0.0686  0.1085
31825W        W47959   0.733  15.691  11.925 -0.2729  0.1917 -0.4492
31826W        W47960  11.572   2.251   3.055  0.1450  0.0765  0.1120
31827W        W47961  10.715  13.144   0.799  0.0366  0.0802  0.4770
31828W        W47962   2.760   5.495   5.366 -0.2045 -0.3140 -0.2643
31829W        W47963   5.525  17.219   1.389 -0.2741 -0.0383 -0.1453
31830W        W47964   6.068   4.564   1.538  0.2406  0.2381 -0.2363
31831W        W47965  14.399   7.270   3.215  0.0590 -0.2071 -0.2879
31832W        W47966  14.337   1.370   2.718 -0.0454  0.0680 -0.1473
31833W        W47967  12.087   1.374  13.694 -0.0861  0.2435  0.1237
31834W        W47968   3.350   4.944  14.537  0.1752 -0.0604  0.0274
31835W        W47969  11.314   6.856  14.245 -0.1686 -0.4612 -0.0595
31836W        W47970   2.910   9.283  14.532 -0.2685  0.0924  0.0513
31837W        W47971   2.335  17.686   1.101  0.1651 -0.2211 -0.1656
31838W        W47972  16.879   1.256   4.107  0.1414 -0.1786 -0.1116
31839W        W47973   4.060   0.934  14.476 -0.0206 -0.1648 -0.0113
31840W        W47974   5.792  10.340   5.837  0.0156  0.1380  0.1149
31841W        W47975  15.823   1.913  11.909  0.1688  0.1501  0.2222
31842W        W47976  15.307  12.492  13.190 -0.0744 -0.2397  0.0574
31843W        W47977   2.457   4.547  12.866  0.1588  0.0121 -0.0900
31844W        W47978   8.504  15.720  14.886  0.1740  0.0070 -0.2558
31845W        W47979  12.267   9.839   5.559  0.1322 -0.1506  0.3314
31846W        W47980  16.853   9.903   2.538  0.2503  0.3691  0.0141
31847W        W47981  14.640   4.271   1.029  0.0492 -0.1215  0.2762
31848W        W47982   7.881   6.443  15.342  0.3106 -0.2417 -0.2715
31849W        W47983   1.212  17.763  11.968 -0.0538 -0.1534  0.0262
31850W        W47984   9.776   9.352  16.161  0.2468  0.0977  0.0220
31851W        W47985  14.992  13.295  15.514 -0.1102  0.0613 -0.2245
31852W        W47986  10.919   4.712   5.410  0.0645 -0.0625 -0.0212
31853W        W47987   0.453   1.225  13.030  0.0226 -0.2443  0.2151
31854W        W47988   1.018   4.620   4.355  0.1334 -0.0896  0.0331
31855W        W47989   8.878   3.359  16.057  0.1665  0.1712  0.0762
31856W        W47990  15.482  16.144  16.161  0.3107 -0.0465 -0.0988
31857W        W47991   5.149   8.966   3.458 -0.1848  0.1233 -0.0456
31858W        W47992  10.611  15.425   1.270  0.3126 -0.0563  0.0435
31859W        W47993  14.252   8.438   3.424 -0.0616 -0.2438  0.0806
31860W        W47994   9.329   0.856   1.649 -0.0952 -0.0242 -0.3703
31861W        W47995  15.587  17.562  11.770  0.0083  0.0635  0.0525
31862W        W47996  15.579   0.616   2.862 -0.1738  0.1672  0.0143
31863W        W47997  13.596  15.933  16.227  0.0939  0.0659  0.1303
31864W        W47998  15.560  10.520  11.867  0.0750  0.1081  0.2375
31865W        W47999   0.426   1.319  15.352  0.1492  0.1157  0.4261
31866W        W48000  11.719   9.351  15.244  0.1028  0.2263 -0.0241
31867W        W48001  17.507   0.672  15.135 -0.2520  0.0868 -0.0682
31868W        W48002   8.650  14.363  15.076  0.1458  0.2613 -0.2713
31869W        W48003   4.714   6.105   2.753 -0.0071  0.1446 -0.1554
31870W        W48004  11.697  17.736  12.172 -0.0484  0.1398 -0.0572
31871W        W48005   3.975   2.158   3.006  0.1032 -0.1975 -0.1728
31872W        W48006  17.957   9.877   4.155 -0.2227 -0.0092  0.1140
31873W        W48007   8.882   1.572   2.883  0.1277  0.2036 -0.1331
31874W        W48008   8.054  16.515  15.970 -0.1785  0.1892 -0.0721
31875W        W48009  13.020   5.464   0.471 -0.0687 -0.0897  0.3699
31876W        W48010   1.096  12.586  13.738 -0.2033  0.3658 -0.1627
31877W        W48011  16.029  17.109   3.518 -0.0117 -0.0716 -0.3237
31878W        W48012  10.515  13.493   2.331  0.0303 -0.0517 -0.0158
31879W        W48013  15.109   0.276   4.290  0.1266  0.5460  0.0176
31880W        W48014   2.489  17.107   1.063 -0.1214 -0.0990  0.0504
31881W        W48015   8.145  13.600  14.819 -0.1977 -0.1421  0.0069
31882W        W48016   8.108  11.559   1.192  0.0646  0.4580 -0.2833
31883W        W48017  13.952   6.843   0.519 -0.0738 -0.1352 -0.0883
31884W        W48018   0.458  12.153  12.818  0.1158  0.0939 -0.1142
31885W        W48019  13.762   6.184   0.326  0.1531 -0.3051  0.1624
31886W        W48020   6.388  15.808   5.918 -0.0060 -0.2335 -0.0359
31887W        W48021   3.033  16.372  16.065  0.0498  0.2258 -0.1262
31888W        W48022   4.169  11.276  13.734 -0.4077 -0.0262  0.5482
31889W        W48023   4.651  10.691  16.256 -0.1631  0.0844 -0.0376
31890W        W48024  14.300  11.749   2.338 -0.0223  0.5165 -0.0436
31891W        W48025   3.867  14.508  11.603  0.0058  0.0573 -0.0738
31892W        W48026  10.796  10.376   2.808 -0.0375 -0.2837  0.4020
31893W        W48027  17.231  12.330  14.027  0.0206  0.1607  0.1455
31894W        W48028  13.967  13.013  16.340 -0.1144 -0.1078 -0.1119
31895W        W48029   1.770  16.984   0.443  0.1496  0.2788 -0.0405
31896W        W48030   2.060  10.961   3.378  0.1222  0.0854  0.1018
31897W        W48031  12.278   8.166   3.529 -0.1577 -0.2809  0.0729
31898W        W48032  12.120   3.843  13.952 -0.0197 -0.0877  0.1404
31899W        W48033   0.145  14.061  10.987  0.0328 -0.0375  0.0694
31900W        W48034   7.636   7.688  13.782 -0.0247  0.0331 -0.0212
31901W        W48035   8.529   2.741   3.524 -0.0545  0.0599 -0.2066
31902W        W48036  13.229   3.214   2.595  0.1946 -0.2364 -0.0273
31903W        W48037   2.028  10.992  14.059 -0.0918 -0.0961 -0.0415
31904W        W48038   8.999  10.071   0.460 -0.1864 -0.0562 -0.0388
31905W        W48039  14.174  11.737   5.065 -0.1451  0.2864 -0.0280
31906W        W48040   5.732  14.296   3.123  0.3114 -0.0619 -0.0005
31907W        W48041   2.027  12.255  15.127 -0.3486 -0.0003 -0.2859
31908W        W48042   2.308   3.464  14.517 -0.1620 -0.1066 -0.0297
31909W        W48043  10.454   0.197   3.126 -0.1145  0.1529 -0.4620
31910W        W48044  17.918  16.526   1.069  0.2767  0.3478  0.0347
31911W        W48045  14.876   7.146  14.376  0.2987  0.0383 -0.0106
31912W        W48046  12.608   7.925  13.287 -0.0966  0.1173 -0.0463
31913W        W48047   4.985  13.759   0.126  0.0591 -0.0581 -0.0614
31914W        W48048  13.879   7.069   2.391 -0.2601  0.1126  0.0930
31915W        W48049   1.991  17.402   2.787 -0.0944  0.1397 -0.0367
31916W        W48050  15.553  12.617  11.973 -0.1478  0.0659  0.1628
31917W        W48051   3.925   9.066  14.094  0.1300  0.0895 -0.0621
31918W        W48052   6.737  15.566  11.341  0.3605 -0.0850 -0.1823
31919W        W48053   5.659   3.782   1.244 -0.2645  0.0879  0.0352
31920W        W48054   4.540  10.082   0.970  0.0277 -0.1854  0.2217
31921W        W48055   4.404   3.328  14.507  0.2445  0.0142 -0.1806
31922W        W48056   0.929  17.366  11.827  0.2087  0.4183  0.2615
31923W        W48057  13.124   3.962  16.194 -0.0957  0.0656 -0.1157
31924W        W48058   5.659   6.078  14.882  0.0260 -0.1187  0.2995
31925W        W48059   7.807   3.617  16.127 -0.2772 -0.2945 -0.1161
31926W        W48060  14.601   3.663   2.616  0.4562 -0.2383  0.2821
31927W        W48061   0.010   5.849  12.015  0.1702 -0.1208 -0.3511
31928W        W48062  16.638  12.246   0.636 -0.1256 -0.1461 -0.1679
31929W        W48063  17.156  10.505  16.218  0.0937 -0.0692  0.1074
31930W        W48064  12.466  12.451   5.249 -0.1027  0.2572  0.2759
31931W        W48065   2.960   9.800  16.166  0.0260 -0.0991 -0.1546
31932W        W48066  11.532  14.009   4.595  0.1163  0.0102  0.0940
31933W        W48067  16.711  16.799   3.599 -0.1611 -0.0447  0.2490
31934W        W48068   8.170   3.878  15.923 -0.0028 -0.2233  0.0120
31935W        W48069  12.494  17.463  11.216 -0.1264 -0.0127 -0.2044
31936W        W48070  15.470   4.236  14.955  0.0570 -0.0778 -0.2009
31937W        W48071   6.674   3.136  14.350  0.1883 -0.0778  0.2511
31938W        W48072  16.784   3.107   4.807 -0.1537  0.0494 -0.2512
31939W        W48073   5.451   6.957   1.580 -0.2637 -0.1130  0.0398
31940W        W48074   2.505   3.580   5.573 -0.0587  0.1196 -0.1521
31941W        W48075  11.395   7.602   2.825 -0.1510 -0.1327 -0.1979
31942W        W48076  10.486  13.613  11.915  0.3837 -0.3495 -0.2119
31943W        W48077  17.319  10.134   1.154  0.3968 -0.0529  0.1574
31944W        W48078  12.641   4.864  15.996 -0.0763 -0.0654 -0.2115
31945W        W48079  13.053  17.704   3.935  0.1418 -0.0443 -0.0367
31946W        W48080   1.965   0.417   3.104 -0.1765  0.3538 -0.1925
31947W        W48081  11.653  17.216   4.720 -0.0882  0.0227 -0.0604
31948W        W48082   2.185  17.715   4.632 -0.0596 -0.0352 -0.0600
31949W        W48083  15.614  10.651  12.998  0.0226  0.1110  0.0890
31950W        W48084   8.749   6.295   5.544  0.1173  0.0219  0.1742
31951W        W48085  12.493  16.501  16.309  0.1428  0.0493  0.0354
31952W        W48086  12.408   4.182  15.453  0.1897  0.0467  0.1517
31953W        W48087  15.027   2.125  14.962 -0.2796 -0.2086  0.2302
31954W        W48088  17.004   5.205   5.463 -0.0251 -0.0613  0.3589
31955W        W48089   9.106   3.585   0.715  0.2116  0.0467  0.1019
31956W        W48090  12.548  16.066   2.388  0.1810  0.0817 -0.1036
31957W        W48091   4.825   3.198  13.447 -0.3503 -0.0009  0.0884
31958W        W48092  14.776   0.059  15.775 -0.0583  0.0955 -0.1437
31959W        W48093  16.805   7.836   2.756  0.3114  0.0337  0.1081
31960W        W48094  11.544   0.661   0.665  0.1826 -0.3252 -0.0905
31961W        W48095   4.706  10.229  12.950 -0.0693  0.2271 -0.0189
31962W        W48096   7.289  14.942   1.195 -0.1704  0.1010  0.4741
31963W        W48097   0.329   9.114   0.637  0.1650  0.2204  0.1716
31964W        W48098   6.416   9.849  13.669 -0.0929 -0.0781 -0.0465
31965W        W48099  16.664   5.290   4.367  0.0318  0.1322 -0.1924
31966W        W48100  15.459   5.431  13.164  0.1453 -0.2253 -0.0019
31967W        W48101   4.181   7.999   1.295 -0.1391  0.1995  0.0313
31968W        W48102  13.321   7.709   4.819  0.2518 -0.1867  0.0024
31969W        W48103  12.014  17.628   4.838 -0.0438 -0.1169 -0.2950
31970W        W48104  15.134  13.652   5.098 -0.1533 -0.0363  0.1112
31971W        W48105  15.612   1.168   1.332 -0.0532 -0.0419 -0.1217
31972W        W48106  12.540  10.516   0.571 -0.1937  0.1208  0.2677
31973W        W48107  15.853  13.924   3.506 -0.1124  0.0126 -0.1977
31974W        W48108   9.907  13.727  14.600  0.1801 -0.1125 -0.0861
31975W        W48109   1.125   9.194   2.225  0.0628  0.0493 -0.0889
31976W        W48110   3.343  15.586   4.961  0.0763 -0.3438 -0.2680
31977W        W48111  13.600   5.680   4.138  0.4166 -0.1016 -0.2939
31978W        W48112  13.872   0.478  11.556 -0.1298 -0.1586 -0.0604
31979W        W48113  12.905   8.412   5.011 -0.0524 -0.1898  0.0954
31980W        W48114   8.671   2.912  16.217  0.0036  0.0318  0.2258
31981W        W48115   9.227   8.329   0.725 -0.1868 -0.1833 -0.0451
31982W        W48116   1.305   7.478  16.395  0.0490 -0.1533 -0.1425
31983W        W48117   0.918   9.712   4.655 -0.1234 -0.0157 -0.1025
31984W        W48118  14.973   0.599  12.776 -0.0062 -0.0361  0.0925
31985W        W48119   6.566   2.783  13.663  0.0320  0.0649 -0.0043
31986W        W48120  14.572  11.958   3.121 -0.0578 -0.0920  0.2179
31987W        W48121  11.396  12.341   0.419 -0.2526 -0.2977 -0.1594
31988W        W48122   6.930   5.516   0.461  0.0930 -0.0346 -0.1776
31989W        W48123   3.205  14.538   4.685  0.2965 -0.0296  0.1363
31990W        W48124   7.877   0.031   0.310  0.0665 -0.0003 -0.0222
31991W        W48125  12.975   0.640  11.494 -0.1914 -0.1037  0.0428
31992W        W48126   2.488  14.979  11.363 -0.2614 -0.0526 -0.2524
31993W        W48127  18.037   8.552  16.174  0.0802 -0.0959 -0.0653
31994W        W48128   8.388  17.048  13.469 -0.0076 -0.0751  0.2707
31995W        W48129   6.028   5.110   1.279  0.0473  0.0407 -0.1229
31996W        W48130  16.505  12.037   5.829 -0.0820 -0.0967  0.2919
31997W        W48131  14.626  10.074  13.689 -0.0692  0.0805 -0.1485
31998W        W48132  12.113   5.795  15.938 -0.0279  0.1427  0.0366
31999W        W48133  16.026   9.810   0.987 -0.1517  0.0923  0.0256
32000W        W48134   0.190   3.721   2.958 -0.0494  0.1028 -0.2493
32001W        W48135  14.759  16.583   3.037 -0.0951 -0.0894  0.4359
32002W        W48136  11.731   4.198  13.927  0.1921 -0.1598 -0.1370
32003W        W48137   9.071   2.704  11.461 -0.0733  0.1180  0.2554
32004W        W48138   4.378  17.880  11.806  0.0989 -0.4279  0.2025
32005W        W48139   4.455   0.917  11.362  0.0645 -0.3260  0.0960
32006W        W48140   4.922   2.236   5.075 -0.1549 -0.2667 -0.1774
32007W        W48141  18.080   8.864   0.145  0.0944 -0.0260 -0.1827
32008W        W48142  14.694   5.665   0.384 -0.2003  0.0123  0.0974
32009W        W48143  12.221  10.945   0.786  0.0752  0.2670 -0.2355
32010W        W48144   3.911   0.966   4.352 -0.0217 -0.1246  0.0649
32011W        W48145   9.492   6.524  12.704 -0.3345 -0.0931  0.1632
32012W        W48146  14.189  11.343  13.019  0.3062 -0.1353  0.1380
32013W        W48147   4.778   6.712  14.542  0.0455  0.1637 -0.1406
32014W        W48148   0.489  11.187  12.495 -0.0412  0.2041 -0.2161
32015W        W48149  15.512   8.638   1.886 -0.3200 -0.1441  0.1749
32016W        W48150   1.137   0.346   0.819 -0.1224  0.0037  0.1534
32017W        W48151   3.549   9.742   1.586  0.1045 -0.1137  0.1671
32018W        W48152   0.483  13.082   1.863  0.2952 -0.0764  0.0168
32019W        W48153   0.676   2.260   1.156 -0.0735  0.0355  0.3231
32020W        W48154  16.052   9.172  15.871 -0.0197 -0.2214  0.2353
32021W        W48155   5.795   1.652   5.335 -0.1488  0.0528 -0.2213
32022W        W48156  12.926   4.686   3.575 -0.1986  0.3055  0.0601
32023W        W48157   4.580   6.204   1.267 -0.0956 -0.0099 -0.1118
32024W        W48158  10.265  14.418   3.817  0.0408 -0.0642  0.0496
32025W        W48159  14.401   9.663  14.519 -0.1160 -0.1819  0.0674
32026W        W48160  10.660   3.662   0.871 -0.2521  0.3063 -0.3120
32027W        W48161  17.135   0.219   1.115  0.1302 -0.0924 -0.0869
32028W        W48162   3.666   8.055  12.138  0.0411  0.0691  0.1691
32029W        W48163  15.869   9.330   4.907  0.1593 -0.0611 -0.1162
32030W        W48164   0.565  12.970  15.972  0.1367  0.1865 -0.2280
32031W        W48165  13.683   4.185   3.766  0.0386 -0.0148 -0.1181
32032W        W48166  17.387   6.922   1.161  0.3051  0.0034  0.1480
32033W        W48167   4.040  13.324   4.107  0.2051  0.1251  0.0924
32034W        W48168  16.274   3.534   1.980 -0.1084 -0.3440  0.0068
32035W        W48169   2.777  10.678   0.021 -0.1114 -0.0077 -0.1334
32036W        W48170   0.407   3.857  15.557  0.3440 -0.1046 -0.2842
32037W        W48171   1.161  12.315   2.323  0.1025 -0.1242 -0.1446
32038W        W48172   3.846   2.822  13.890  0.0642  0.1554 -0.0342
32039W        W48173   2.165  11.835  12.419 -0.0580  0.2323 -0.0641
32040W        W48174  17.899  14.864   3.927 -0.1008 -0.2378 -0.0243
32041W        W48175  13.768   4.765  14.878  0.0051 -0.0855  0.1604
32042W        W48176  10.325  15.498   0.427 -0.0809  0.2539 -0.1025
32043W        W48177  15.055  15.245   6.065 -0.1060  0.0590 -0.1449
32044W        W48178   8.775   1.082   2.923 -0.4049 -0.3190 -0.0325
32045W        W48179   6.622  11.345   3.529 -0.0777 -0.0125 -0.0958
32046W        W48180   7.694  14.467  15.281 -0.1079  0.1239 -0.2224
32047W        W48181   4.827   7.160   2.097 -0.2274 -0.2560  0.1399
32048W        W48182   1.885   6.939   3.188 -0.1825 -0.2154  0.0263
32049W        W48183  11.840   4.236   5.084  0.3505  0.1119 -0.2495
32050W        W48184   8.410   0.842  11.231  0.2147 -0.1501  0.0298
32051W        W48185   7.552  10.882   4.400  0.0973  0.2113  0.0626
32052W        W48186  11.343  17.342  11.295 -0.2963  0.2077 -0.1546
32053W        W48187   9.402   9.888  16.008 -0.1861  0.1103 -0.1260
32054W        W48188  17.428   1.119   3.796  0.1238 -0.1583 -0.1192
32055W        W48189  14.078  17.237  10.977 -0.2597  0.0007  0.0644
32056W        W48190   1.371   7.691  13.143  0.0537  0.0182  0.0711
32057W        W48191  12.243  10.133   3.861 -0.0650 -0.1723  0.0069
32058W        W48192   2.647   0.235  13.465  0.0543  0.1039 -0.0050
32059W        W48193  10.762  12.480   2.796  0.0621  0.0338  0.1971
32060W        W48194  15.617  14.880   1.125  0.2682 -0.1173 -0.0052
32061W        W48195  16.344   9.945  11.912  0.1005 -0.0079  0.1886
32062W        W48196  17.401  12.943   3.380  0.1742 -0.3452 -0.1300
32063W        W48197   0.104  15.736   1.870 -0.1182  0.0316 -0.1920
32064W        W48198   8.880  13.076  11.218 -0.0335  0.2402  0.0832
32065W        W48199   7.031   4.600   1.433 -0.3034 -0.1725  0.2486
32066W        W48200   2.835  13.609  15.071 -0.1481  0.0260 -0.0485
32067W        W48201   6.161   3.789   0.494  0.2334 -0.2787 -0.0753
32068W        W48202   5.885  15.525  14.886 -0.0216  0.0027  0.0609
32069W        W48203   3.548  15.050  12.317 -0.0332  0.1117 -0.1479
32070W        W48204  15.062  15.667   1.434  0.0475 -0.0500 -0.0231
32071W        W48205  16.346  15.219   4.323  0.1095  0.0671 -0.2070
32072W        W48206   3.545   0.768   5.448 -0.2224 -0.0545 -0.1735
32073W        W48207  12.689  10.512   0.110 -0.1043  0.3477  0.1905
32074W        W48208   3.301   2.772  15.357 -0.0299  0.0951  0.0173
32075W        W48209  11.345   4.897   5.434 -0.1012  0.0391  0.1896
32076W        W48210   6.005   0.426  15.066 -0.2240  0.1343  0.2700
32077W        W48211   1.951  14.067   3.454  0.1548  0.1072  0.2666
32078W        W48212  12.513  14.424   5.146  0.1654  0.1359 -0.0264
32079W        W48213   7.506  12.228  15.169  0.0094 -0.0911 -0.0626
32080W        W48214   8.261   7.038   4.165 -0.0377 -0.3763  0.1400
32081W        W48215   0.614   5.520  14.662  0.1287  0.1167  0.0378
32082W        W48216   3.352  14.616  14.236  0.1192 -0.0534  0.5102
32083W        W48217  15.694   4.357   3.795 -0.3400 -0.2657  0.0445
32084W        W48218  16.785   4.635   3.219 -0.1743  0.1940  0.1292
32085W        W48219   7.054  12.178   2.844  0.2553  0.4081 -0.1253
32086W        W48220  16.797   0.583  11.867  0.0385  0.0202  0.0782
32087W        W48221   7.317   1.638   5.535 -0.2021  0.0168  0.0384
32088W        W48222  17.731   2.146   1.318 -0.1297 -0.0893  0.1063
32089W        W48223  14.857  11.516   2.911 -0.0818  0.5074  0.1285
32090W        W48224   4.794   3.138   5.256 -0.0669 -0.1026  0.2140
32091W        W48225  13.608   0.857   3.559  0.0304  0.0128 -0.2481
32092W        W48226   4.163   9.324  12.087  0.0764 -0.1316 -0.2489
32093W        W48227  14.975   9.394  12.486 -0.1282 -0.2636 -0.3246
32094W        W48228   1.607   2.483   4.775 -0.0371 -0.2763 -0.1219
32095W        W48229   3.448   4.969   5.288 -0.0707  0.3353  0.3304
32096W        W48230  15.459   3.886   1.560  0.1082 -0.0915  0.0753
32097W        W48231   0.160  11.104  12.105  0.0996  0.0185 -0.0614
32098W        W48232   5.631  10.579   4.914  0.0538  0.1632 -0.3271
32099W        W48233   5.704   3.043  13.998  0.0141 -0.2599  0.2065
32100W        W48234  16.065  10.564   5.477 -0.1190  0.1795 -0.1091
32101W        W48235  12.622   1.305   0.679 -0.4200 -0.1002  0.1130
32102W        W48236   4.172  11.916  15.458 -0.0269  0.0803  0.0652
32103W        W48237  11.020  11.188  14.758  0.1180 -0.0617 -0.0241
32104W        W48238  15.703  14.240  16.388 -0.2691  0.2765 -0.2500
32105W        W48239   1.398  14.093   0.193  0.3033  0.3703  0.2790
32106W        W48240   0.036  15.186   0.187 -0.1551 -0.1728 -0.2906
32107W        W48241   6.004  10.580   1.231 -0.0111  0.0882  0.0484
32108W        W48242  13.041  14.975  15.606  0.1757  0.0578 -0.0694
32109W        W48243  11.418   9.891  12.808 -0.2276  0.2899  0.0674
32110W        W48244  13.949   2.439   1.084  0.0148 -0.1027  0.0933
32111W        W48245   7.756  17.573   1.734 -0.1757  0.1404 -0.2298
32112W        W48246  16.833   9.855  16.318 -0.0707 -0.0993  0.1239
32113W        W48247  11.625  12.291   3.091  0.0480  0.0643  0.3071
32114W        W48248   0.533   8.724  14.928 -0.2421 -0.0033 -0.1669
32115W        W48249  15.530   1.837  16.308  0.1601  0.0244 -0.1630
32116W        W48250   4.123   8.768   5.426  0.0414  0.2736  0.1154
32117W        W48251  11.538  12.361  16.338  0.1719 -0.2359  0.0972
32118W        W48252   1.291  10.280  13.325  0.1362  0.3285 -0.3047
32119W        W48253   8.346   6.197   3.392 -0.0848 -0.0680 -0.0918
32120W        W48254  10.639   2.551   2.282  0.4812 -0.1261  0.1771
32121W        W48255   1.748  13.326   0.710  0.1509 -0.1016  0.2178
32122W        W48256  10.915  16.893   3.240 -0.0784 -0.0525  0.0684
32123W        W48257   8.027  14.065  15.343 -0.0991  0.1799  0.1622
32124W        W48258   9.647  12.982   4.705 -0.0147  0.1144 -0.1766
32125W        W48259   1.161   1.807  13.698  0.1213  0.0621  0.2705
32126W        W48260   3.504  17.051   1.809 -0.1964 -0.0783 -0.0703
32127W        W48261   6.949  10.292   4.183  0.0137 -0.0139  0.0013
32128W        W48262  13.635  10.552   4.602 -0.3652  0.3503  0.2127
32129W        W48263   0.148   2.977  14.531  0.1790 -0.1051  0.1160
32130W        W48264   8.366  17.813   5.055 -0.1501  0.0499  0.2507
32131W        W48265  16.441   6.034  13.334 -0.1128  0.2324 -0.2233
32132W        W48266   1.817   4.303   0.761 -0.1492  0.0763 -0.2418
32133W        W48267   4.597   0.574  14.939 -0.3337 -0.1734 -0.2142
32134W        W48268  12.653  13.884   5.347  0.1816 -0.1947  0.2844
32135W        W48269   2.772  10.198   5.307 -0.0193  0.3524  0.0905
32136W        W48270   3.811   1.598  11.754 -0.2980  0.1470 -0.0752
32137W        W48271  15.014   1.522  14.272  0.3109  0.1196  0.1818
32138W        W48272  13.351  16.537   5.631  0.6439  0.2981 -0.0898
32139W        W48273   4.050  10.421  15.894  0.2304  0.4398 -0.1508
32140W        W48274   9.053  16.257   4.887 -0.0782  0.0142  0.0610
32141W        W48275  12.974  15.551  15.474  0.0673  0.1967  0.1877
32142W        W48276  13.227  16.227   0.965  0.2241  0.2828  0.0039
32143W        W48277   4.518  15.263  15.847  0.2724 -0.7100  0.4553
32144W        W48278  13.563   8.035   1.332  0.1367 -0.2321 -0.0448
32145W        W48279   0.320  15.498   0.513  0.1041 -0.0518  0.3906
32146W        W48280  10.961  13.154   5.951 -0.1442 -0.1484  0.5058
32147W        W48281  14.585  17.516  15.726 -0.1093 -0.2718  0.1698
32148W        W48282  14.691  12.487  14.445  0.2129 -0.2180  0.2773
32149W        W48283   9.758  11.073  15.647 -0.0164 -0.0820  0.1998
32150W        W48284  12.349  11.107  12.035 -0.0110 -0.2764 -0.2356
32151W        W48285  11.897   0.860   4.596  0.0785  0.0257 -0.1652
32152W        W48286  14.133  14.493  12.305  0.1004  0.0421 -0.1211
32153W        W48287   0.944   0.505  13.195 -0.0218  0.2846 -0.2129
32154W        W48288  16.033   5.943  12.161  0.3328  0.3379 -0.2074
32155W        W48289   2.330   4.096   4.568 -0.1891  0.3096  0.0099
32156W        W48290   9.492  13.698  15.089  0.1153 -0.1709  0.0275
32157W        W48291   1.471   9.184   5.100  0.3038  0.0291 -0.3120
32158W        W48292   2.027   5.857   0.152  0.0441  0.0820  0.1290
32159W        W48293  16.775  11.358   0.659 -0.1004 -0.0494 -0.2746
32160W        W48294   6.747   4.683  16.103 -0.0327  0.0779 -0.2132
32161W        W48295  15.920   5.140   2.624  0.0372  0.1350  0.0030
32162W        W48296   4.724   2.176   6.126 -0.0328  0.1282  0.1130
32163W        W48297   5.147   1.947   3.252 -0.1557  0.0073 -0.0090
32164W        W48298  12.518   2.789   3.944 -0.0257  0.2393 -0.1175
32165W        W48299  10.358  10.783   1.968 -0.0923 -0.3734 -0.0061
32166W        W48300   0.945   9.891   5.598 -0.3116  0.0447 -0.1561
32167W        W48301   9.193  14.751   5.749  0.0750 -0.0831 -0.2824
32168W        W48302  15.223  10.823  14.466 -0.3588  0.3010 -0.1322
32169W        W48303  15.996  17.163  13.215  0.1944 -0.1123  0.1149
32170W        W48304   4.083  13.811  15.074 -0.0764  0.0425 -0.1181
32171W        W48305   2.180   9.175  12.354 -0.0816  0.0076  0.0072
32172W        W48306   8.742   6.323  13.049  0.0679  0.0525 -0.0964
32173W        W48307   3.164   3.735  11.061  0.0625 -0.1604  0.1387
32174W        W48308   0.907   5.022   0.109  0.1722 -0.1621 -0.2736
32175W        W48309  15.068  12.558   5.651  0.0012 -0.2569 -0.0451
32176W        W48310   3.170  10.659  12.673 -0.1421 -0.0108 -0.0454
32177W        W48311   5.457  10.027  15.684  0.1904  0.0122  0.1190
32178W        W48312   0.851   6.045  11.749  0.0295  0.1522 -0.1319
32179W        W48313  14.897  16.657   3.536 -0.1096  0.1750  0.1950
32180W        W48314  13.691  16.997   4.898  0.0402  0.1249 -0.0807
32181W        W48315   2.370  12.741   1.882  0.2904  0.0626 -0.4052
32182W        W48316  14.608   9.470  13.466  0.0885 -0.0130 -0.0474
32183W        W48317   6.383   1.084   3.651  0.1383 -0.2012 -0.1310
32184W        W48318  15.109   7.763   5.215 -0.3131  0.1281 -0.2682
32185W        W48319   3.834   3.151   3.214  0.3392 -0.2543 -0.0795
32186W        W48320   9.054   2.050   2.968 -0.0744 -0.0079 -0.0447
32187W        W48321  17.452   3.858   2.610 -0.1004 -0.0329  0.0977
32188W        W48322   4.569  13.571  15.890 -0.0341  0.0469  0.1591
32189W        W48323  13.658  11.537   4.674  0.1642 -0.0904  0.0667
32190W        W48324   5.327  15.840   5.032 -0.1646  0.1536 -0.0728
32191W        W48325   9.924   7.026   3.893 -0.0993  0.1091 -0.1438
32192W        W48326   7.741  17.260  12.757 -0.1159 -0.0958  0.3972
32193W        W48327   5.329  16.205   2.242  0.1221  0.0314  0.4929
32194W        W48328   6.382   5.820  16.182  0.2161 -0.0319  0.1244
32195W        W48329   8.732   7.296   1.479  0.0970  0.4536 -0.0569
32196W        W48330  10.243   2.183   4.266 -0.2145 -0.1755 -0.4113
32197W        W48331  13.190   9.237   0.095  0.0793  0.1727 -0.1300
32198W        W48332  15.587   1.746  13.761 -0.1824  0.0430  0.0033
32199W        W48333   3.875   2.745   1.041 -0.0165  0.0364  0.1541
32200W        W48334   0.356  12.354   2.018  0.1549  0.0657  0.4216
32201W        W48335   4.578   0.684   1.332 -0.4057 -0.1076 -0.1594
32202W        W48336  10.061  11.161   2.978 -0.0256  0.0033 -0.2101
32203W        W48337  13.330   3.073   5.093  0.1011 -0.1504  0.3409
32204W        W48338  14.997  17.045  13.125 -0.1913  0.0568  0.0692
32205W        W48339   2.884   5.142  14.924  0.3676 -0.0375  0.0607
32206W        W48340  14.306  17.871   2.122  0.0305 -0.2322 -0.1857
32207W        W48341  13.780  15.857   3.755 -0.0306 -0.2881  0.0832
32208W        W48342   2.397   7.519  13.724  0.1040 -0.0150  0.0561
32209W        W48343   7.102   0.197  16.161 -0.1654  0.0578  0.0572
32210W        W48344   3.854   2.251  16.204  0.1685 -0.0686  0.1957
32211W        W48345   5.902  14.513  13.943  0.0575  0.1096 -0.1349
32212W        W48346   9.379   8.783   0.598 -0.0401 -0.2224 -0.2757
32213W        W48347  16.560  11.359  11.451 -0.2381  0.4582  0.0002
32214W        W48348  14.532   9.075  11.663 -0.1155 -0.0698  0.1063
32215W        W48349   0.624   4.984   3.880  0.1911  0.1767  0.0793
32216W        W48350   2.878   5.384   3.525  0.1441  0.1325 -0.1158
32217W        W48351   7.759   4.265   3.596  0.0663  0.1787  0.1417
32218W        W48352   8.536   4.974  14.762  0.1973  0.0026  0.1049
32219W        W48353  12.437   7.693   0.204  0.1553 -0.0214  0.0154
32220W        W48354   1.255   2.860  13.245 -0.1331 -0.0429 -0.1588
32221W        W48355  17.219  10.682   4.335  0.0582 -0.1084  0.0134
32222W        W48356   1.861   1.490   0.794 -0.0498  0.2653 -0.0393
32223W        W48357  14.877   8.078   1.545 -0.0418 -0.1373  0.1464
32224W        W48358   9.789  13.457   1.779  0.1817 -0.0049  0.1376
32225W        W48359  12.112   6.291   3.812 -0.0821  0.0107  0.1852
32226W        W48360  17.715   7.629  15.092 -0.1552 -0.0568  0.1363
32227W        W48361  11.293   6.508   4.814 -0.0224 -0.0746 -0.0676
32228W        W48362  10.952   2.506   1.098 -0.2788 -0.0284  0.0106
32229W        W48363   8.633   8.854   0.241 -0.0443  0.1575  0.1176
32230W        W48364  17.319  17.002   1.880  0.2755 -0.2016 -0.2941
32231W        W48365   0.668   7.764  12.786  0.0539  0.0563 -0.3833
32232W        W48366  11.568   3.925  11.258 -0.1211 -0.0936  0.1334
32233W        W48367   9.838   8.904  13.593  0.3887 -0.1538  0.0097
32234W        W48368   6.964   4.920  15.138  0.1312 -0.3524  0.0732
32235W        W48369   3.153   4.084   1.409 -0.1111  0.1191  0.0684
32236W        W48370  14.555   4.038  15.053 -0.2439 -0.2120  0.1504
32237W        W48371   5.938   5.703   3.008  0.2388  0.0983 -0.1487
32238W        W48372   3.406   0.374  13.122 -0.0728 -0.3981  0.2476
32239W        W48373   9.012  15.715   0.961 -0.0712  0.0326  0.0906
32240W        W48374  12.410   9.052  14.929  0.3333  0.0942 -0.3337
32241W        W48375   1.242  15.037  14.000  0.3100  0.1221  0.0568
32242W        W48376   8.892   3.418   5.756  0.4465  0.0664 -0.1094
32243W        W48377   8.329   6.703  15.168 -0.1956  0.1054 -0.0713
32244W        W48378  15.899   3.936  10.971 -0.4692 -0.2329  0.0898
32245W        W48379   7.372  17.929   1.643 -0.1074  0.1131 -0.2723
32246W        W48380   6.238  13.666   1.807 -0.0483  0.0358 -0.0981
32247W        W48381   0.229  15.123  15.303  0.0231  0.0835  0.0436
32248W        W48382   5.681  17.928   0.734  0.1272  0.2318 -0.0566
32249W        W48383   4.083  17.472  15.978  0.1649 -0.3587 -0.1083
32250W        W48384   4.539  10.776  13.318 -0.0285 -0.2109 -0.2209
32251W        W48385   4.089   3.522  16.013  0.0770 -0.0980 -0.2122
32252W        W48386   5.487  16.907  12.674 -0.1450 -0.0702  0.2896
32253W        W48387  17.766   2.703  14.205 -0.0090 -0.0642  0.2244
32254W        W48388  14.693  15.745   0.525 -0.2114  0.0587  0.0888
32255W        W48389  12.567   2.943  16.351  0.2208  0.1666  0.1860
32256W        W48390  13.875   6.413   3.799  0.1938 -0.1461 -0.2292
32257W        W48391  10.641  11.850  13.901  0.2606 -0.0885  0.0004
32258W        W48392   5.337  16.953   2.662  0.3497  0.1070  0.2126
32259W        W48393  13.115  10.477  15.814  0.0601 -0.1141 -0.1659
32260W        W48394   2.954   8.268  16.394  0.2471 -0.0914 -0.0426
32261W        W48395  11.648   2.947  13.820  0.2837 -0.0666  0.1257
32262W        W48396  14.167   7.388  12.578 -0.0658  0.2810 -0.1674
32263W        W48397   1.757   5.286  14.810  0.0781 -0.0228  0.0553
32264W        W48398  18.033  14.174   5.729 -0.2528 -0.0504  0.0709
32265W        W48399   9.230  17.295   4.918  0.2547  0.1128  0.0105
32266W        W48400   7.226  11.706   0.327 -0.2070  0.0692 -0.0273
32267W        W48401  17.429   1.185   3.278  0.2743  0.5735  0.1963
32268W        W48402   0.170  14.480  11.738  0.1307  0.2088  0.0184
32269W        W48403   3.670  14.472  15.462  0.0058 -0.5063  0.2000
32270W        W48404   1.225   2.986  15.470 -0.1149 -0.1014 -0.1408
32271W        W48405   5.949   0.928  13.119 -0.1365  0.0494 -0.2412
32272W        W48406  13.666  12.541   2.469 -0.0369  0.0101 -0.1152
32273W        W48407   3.822  15.856  12.195 -0.0945 -0.3202 -0.0338
32274W        W48408   0.613  14.260   4.206 -0.1177  0.2169  0.0101
32275W        W48409   7.865  11.134  12.767 -0.1549 -0.1949  0.0643
32276W        W48410   6.354  15.348   2.991  0.1028  0.0421  0.2089
32277W        W48411   8.351   2.372   4.193 -0.1677 -0.3289 -0.1491
32278W        W48412  14.148   4.159  11.091 -0.1119 -0.1196 -0.0213
32279W        W48413   4.051   0.989  15.636 -0.0926 -0.1029 -0.1288
32280W        W48414  16.976  17.876  14.470 -0.1958 -0.1613  0.2759
32281W        W48415   9.578  17.798  14.330  0.2477  0.0824 -0.1118
32282W        W48416  13.885   9.323   1.229  0.3259  0.0814  0.1333
32283W        W48417  14.139  17.398  13.075 -0.1300  0.3553 -0.1117
32284W        W48418   0.278   1.026  14.971  0.0434  0.1461 -0.0710
32285W        W48419  14.371  12.717  14.117  0.2573  0.0260 -0.1978
32286W        W48420   1.930  15.944   2.425  0.2434  0.2399  0.0129
32287W        W48421   9.108  11.465  14.060  0.2759 -0.0527 -0.2544
32288W        W48422   5.513  13.723   2.428 -0.0135 -0.3081 -0.1083
32289W        W48423   4.571   6.226  13.279  0.0517 -0.1057 -0.3074
32290W        W48424   6.769  15.819  16.189  0.2794  0.2540  0.0092
32291W        W48425   8.061   4.464  16.011 -0.2224 -0.0045 -0.0425
32292W        W48426   0.051   6.814   4.462  0.0337 -0.2185 -0.0936
32293W        W48427  17.438   5.655   5.345 -0.1154 -0.1388 -0.0181
32294W        W48428  12.389  15.391   2.784 -0.1318 -0.0208  0.0364
32295W        W48429   1.308   0.292   5.993  0.0793 -0.0598  0.0548
32296W        W48430  10.844   0.184   0.978  0.0530  0.1482 -0.2704
32297W        W48431  10.896  11.754  14.826 -0.2155  0.0663  0.0935
32298W        W48432   3.602  10.621   1.391  0.1011  0.0361  0.0017
32299W        W48433   0.413   6.138  12.099 -0.2799  0.1316 -0.2127
32300W        W48434   3.360  17.378   2.569  0.0322 -0.0343 -0.4418
32301W        W48435  11.941   7.660   6.488  0.0957  0.0530  0.3102
32302W        W48436   8.622  17.913  15.696 -0.1168 -0.0710  0.0793
32303W        W48437   5.491   3.046   0.710  0.3470  0.1936 -0.3642
32304W        W48438   3.903  13.670  12.049  0.2010  0.0364  0.2399
32305W        W48439  15.435   2.345   4.959 -0.2180 -0.2493 -0.3508
32306W        W48440  12.590  14.331   5.666 -0.0529 -0.0962 -0.0017
32307W        W48441   6.080   1.522   1.426 -0.0077  0.0209 -0.2690
32308W        W48442  13.367   0.143  12.800  0.0754  0.0461 -0.1732
32309W        W48443   4.105  10.768   1.398  0.1309 -0.0709  0.1569
32310W        W48444   0.021   1.627  13.628  0.3369  0.1769  0.1936
32311W        W48445   3.139  17.147   1.399 -0.1548  0.0940 -0.0010
32312W        W48446  17.978  14.563  14.057 -0.4098  0.0008  0.1749
32313W        W48447   5.970   2.840   0.020 -0.0373  0.0939  0.3508
32314W        W48448   0.346   9.319  11.635 -0.4611  0.1679  0.0346
32315W        W48449   9.004  17.746  11.887  0.0681  0.2387  0.1842
32316W        W48450  15.842  16.630   2.125 -0.1752 -0.0560  0.1301
32317W        W48451   2.048   3.413   5.153 -0.1141 -0.3009 -0.1626
32318W        W48452   6.128  13.719  14.678  0.2157  0.1018 -0.2094
32319W        W48453  16.433  17.270   1.194 -0.0288 -0.3659  0.1821
32320W        W48454  10.050   6.806  12.588 -0.2587 -0.0637  0.0118
32321W        W48455   1.594   2.186   3.958 -0.1339 -0.0292  0.2636
32322W        W48456  10.954  10.937   4.963  0.1853 -0.2222 -0.0974
32323W        W48457  12.187  12.361   3.238 -0.0493  0.1915  0.2058
32324W        W48458   7.763   9.770   1.754 -0.1168 -0.6328 -0.2528
32325W        W48459  15.890  13.931   4.635  0.0985  0.1272 -0.0659
32326W        W48460   0.759   2.544  15.523  0.2136 -0.0115 -0.0075
32327W        W48461  11.759   7.833  16.299  0.1260  0.0100 -0.0056
32328W        W48462   8.895   7.926  16.057 -0.0869  0.0064  0.0492
32329W        W48463  11.350  13.740  12.225 -0.0546 -0.0723 -0.1849
32330W        W48464   4.014   8.322   4.753 -0.0513  0.1591  0.2197
32331W        W48465  10.739   9.194   2.264  0.0783 -0.0487  0.3199
32332W        W48466   7.076  16.237   0.548  0.0416  0.0183 -0.0187
32333W        W48467  15.073  17.652   5.048  0.0537  0.0887  0.0767
32334W        W48468  14.654   1.364   1.288 -0.0194 -0.1686 -0.1286
32335W        W48469  17.910  13.167   2.444 -0.0254 -0.4635  0.1007
32336W        W48470   6.111  14.102  13.622 -0.0209 -0.1407 -0.0467
32337W        W48471   9.891   4.452  16.388  0.0963 -0.2180  0.2417
32338W        W48472   6.650   2.661  14.132 -0.0074  0.0443 -0.3776
32339W        W48473   9.247   6.673  15.017 -0.0101 -0.4572  0.1711
32340W        W48474  12.525   9.559   3.117 -0.1025 -0.1406  0.1293
32341W        W48475  17.454   6.566  15.816  0.2089 -0.2393  0.0717
32342W        W48476  15.592   7.729  14.206  0.0693  0.3411 -0.1043
32343W        W48477  16.641   4.506   3.961  0.2963  0.2177  0.1290
32344W        W48478   2.031   6.466   3.133  0.0479 -0.2212  0.2135
32345W        W48479   5.262  13.154  14.529  0.1358  0.1844 -0.0185
32346W        W48480  15.106   0.708  13.303  0.2274 -0.2491 -0.2772
32347W        W48481  11.899  12.434  14.165  0.0319  0.2770  0.1462
32348W        W48482   8.086   9.156  15.939 -0.2222 -0.2228 -0.2702
32349W        W48483   7.197   5.693   0.869  0.2600  0.0808  0.0133
32350W        W48484  16.544   1.922   2.283  0.1462  0.0586 -0.2307
32351W        W48485  13.560  12.330  15.370 -0.3146 -0.0503  0.0341
32352W        W48486  12.174  11.949  14.415 -0.0001  0.1078  0.0636
32353W        W48487  12.050   2.131   2.825  0.0433  0.1756  0.1418
32354W        W48488   2.602  11.046   5.701  0.0887  0.2177 -0.0734
32355W        W48489   6.038   8.769   5.494  0.2432  0.1180 -0.0392
32356W        W48490   0.121   1.040   1.910 -0.1471  0.1399  0.1426
32357W        W48491  11.748   2.416   2.522 -0.0255 -0.0681 -0.3161
32358W        W48492  14.323  15.954   3.685  0.1593 -0.0076 -0.3164
32359W        W48493  15.466   9.402  11.626  0.1629 -0.1657  0.2630
32360W        W48494  10.422  11.948   3.655 -0.0035 -0.1240 -0.0552
32361W        W48495  11.062  15.929   2.985  0.0870  0.2926 -0.0713
32362W        W48496  12.004   2.856  14.980  0.2023  0.1568 -0.0796
32363W        W48497  16.705  16.372   2.563 -0.0473  0.0129 -0.0209
32364W        W48498   9.527   4.162  10.362 -0.0754 -0.2116 -0.0990
32365W        W48499  14.717   3.250  15.562  0.1031 -0.1945  0.1316
32366W        W48500   3.360   5.674  12.853 -0.4203 -0.2176 -0.3132
32367W        W48501   7.208   1.327  12.816 -0.0181 -0.1068  0.0902
32368W        W48502   5.583   7.635   2.383 -0.2615  0.0966  0.2220
32369W        W48503   1.666  10.546   2.502  0.1950 -0.2788 -0.2912
32370W        W48504   9.207   1.265   3.120  0.3268  0.2723  0.2531
32371W        W48505   1.308   3.970   2.807  0.0773  0.0566  0.1482
32372W        W48506  13.369  17.800  14.534 -0.0561  0.3531 -0.1790
32373W        W48507  16.717  17.226  15.078  0.4435 -0.0582  0.2723
32374W        W48508   7.262  16.065  15.699 -0.0804  0.1753  0.2141
32375W        W48509   5.405   4.365   5.300 -0.2554  0.1658 -0.1510
32376W        W48510  11.875  15.803   2.544  0.2674 -0.0461  0.1513
32377W        W48511  10.084   5.418  14.396 -0.0492 -0.0383  0.1272
32378W        W48512  10.424   0.699   3.328 -0.0967 -0.2423 -0.2644
32379W        W48513  13.653   7.855   0.275  0.0997 -0.1413 -0.2840
32380W        W48514  17.611   9.329   5.028 -0.0706 -0.1726  0.1047
32381W        W48515   6.123  17.245  11.391  0.3693 -0.2064  0.0968
32382W        W48516  12.912  13.296  13.189 -0.3426 -0.1575  0.0081
32383W        W48517   7.240  13.219  12.689  0.1031  0.3585 -0.0771
32384W        W48518   6.238  11.238  15.323 -0.0854 -0.1040  0.0649
32385W        W48519   9.784   9.698  11.118  0.0495 -0.1606 -0.2740
32386W        W48520  12.401   5.539  12.882  0.2522 -0.0843 -0.2310
32387W        W48521   0.865  15.445  13.793  0.2729  0.0736 -0.0607
32388W        W48522   3.946  13.348  14.924 -0.2646  0.0376 -0.0047
32389W        W48523   9.725  13.028  12.056  0.2064 -0.2288  0.2264
32390W        W48524  13.706  15.637  13.445 -0.2428  0.4348  0.0174
32391W        W48525   9.157  17.137  13.650  0.0220 -0.1134  0.0509
32392W        W48526  15.697  17.480  13.500 -0.1127 -0.0272 -0.1038
32393W        W48527   3.504  16.973  15.578 -0.1903 -0.2741  0.0532
32394W        W48528   2.399   2.370  14.948 -0.0520 -0.3387 -0.0581
32395W        W48529   6.222  13.485  11.706  0.1676  0.2072  0.0451
32396W        W48530  18.083  17.861  13.097  0.1678 -0.2899 -0.3047
32397W        W48531   4.585   7.418   0.774  0.4841 -0.1446  0.1097
32398W        W48532  11.279  15.451  12.996 -0.1039 -0.0789 -0.1588
32399W        W48533   0.847  11.721  11.126 -0.0451 -0.1673  0.2274
32400W        W48534   1.633  12.032   0.424 -0.3124  0.1071 -0.0527
32401W        W48535   2.078   9.467  14.689  0.1316  0.0785  0.1760
32402W        W48536  17.336   2.097  13.572 -0.0464 -0.1484  0.3086
32403W        W48537  11.407   6.761   3.314  0.1282  0.0131 -0.1787
32404W        W48538  16.021   8.544   4.158 -0.0495  0.2515  0.2048
32405W        W48539   6.148   6.868  12.220  0.2786 -0.1288 -0.0136
32406W        W48540  16.618   3.388  12.209 -0.1322 -0.1639 -0.1347
32407W        W48541   6.596   2.525   4.355  0.1736 -0.1680  0.0877
32408W        W48542   5.215   2.182   3.918  0.0622  0.1952  0.1111
32409W        W48543  15.620   8.074  13.453  0.1556 -0.0392  0.0942
32410W        W48544  14.887  16.066   3.117  0.1758 -0.4294 -0.1708
32411W        W48545  10.343  12.133   1.740 -0.1953 -0.1041 -0.1771
32412W        W48546   5.493   5.972   5.670  0.2485 -0.3221 -0.3056
32413W        W48547   6.215  12.458  15.911  0.3108 -0.0503  0.1147
32414W        W48548  14.099  12.257   4.698 -0.0119  0.3825 -0.0226
32415W        W48549   0.039  11.334  15.874  0.1051  0.2224 -0.0631
32416W        W48550   6.597   1.292   3.222 -0.0745  0.1627 -0.0780
32417W        W48551  17.748   8.933  12.283 -0.1392  0.1112  0.0617
32418W        W48552   7.039   7.913   3.287 -0.1967 -0.2132  0.0854
32419W        W48553  18.051  12.271   3.175  0.0628 -0.0201  0.0200
32420W        W48554  10.258   3.898   2.772 -0.0941 -0.0320 -0.1860
32421W        W48555   1.387  12.118  11.856 -0.0157 -0.2642  0.0094
32422W        W48556   4.574  14.871   2.714 -0.0080 -0.1788  0.0287
32423W        W48557   8.618  12.282   2.160 -0.0202 -0.0888  0.1925
32424W        W48558   7.470  12.015   0.837  0.1629 -0.0072  0.0588
32425W        W48559  15.922  14.941  13.742  0.1807 -0.1282 -0.1585
32426W        W48560   7.008   3.397   1.258  0.2085  0.1011 -0.1066
32427W        W48561  15.971   5.569  13.042  0.0840 -0.1326  0.0711
32428W        W48562   8.006   4.528   2.285 -0.2675 -0.1496 -0.0960
32429W        W48563   4.163   7.213  12.791 -0.0336  0.0944  0.0612
32430W        W48564   7.349  16.896   1.631  0.3199  0.1668 -0.0872
32431W        W48565  15.126  11.946   3.824 -0.2611 -0.2940  0.0645
32432W        W48566   0.707   5.884   1.125  0.0939  0.0984  0.1423
32433W        W48567  16.963   8.426  12.025 -0.0263 -0.1725  0.4311
32434W        W48568  11.877   4.476  14.377  0.2295  0.0324 -0.1954
32435W        W48569  10.516  16.763  13.142 -0.0291 -0.1187  0.1989
32436W        W48570   1.209   5.700   1.157  0.0102 -0.1370  0.0993
32437W        W48571  12.625  17.607   3.615  0.3144 -0.1426  0.0891
32438W        W48572   2.468  15.955   1.608  0.1560  0.0891 -0.0619
32439W        W48573   0.581   0.287   0.738  0.1122  0.0765  0.0827
32440W        W48574  16.224  14.765  12.361  0.2156  0.1058  0.0958
32441W        W48575  13.651  17.252   6.308 -0.0657  0.0235 -0.2648
32442W        W48576   7.516  17.458  14.983 -0.3501  0.0114  0.0878
32443W        W48577   9.850  17.987  13.246  0.0216  0.0480 -0.1470
32444W        W48578   0.924   3.343   1.608 -0.0568 -0.2866  0.0090
32445W        W48579   3.411  14.744   3.891  0.0122  0.0330  0.2725
32446W        W48580   5.250   9.305   2.230  0.2240 -0.2888  0.0253
32447W        W48581  11.139   6.736  15.055 -0.0176  0.1728  0.0150
32448W        W48582   6.332  10.187   3.183 -0.0241 -0.1412  0.2867
32449W        W48583   1.618   4.489  15.491 -0.1296 -0.1440 -0.4069
32450W        W48584  11.038  11.705   4.496  0.2208  0.3329  0.0026
32451W        W48585   8.673   6.282  13.528 -0.1197 -0.0107  0.0304
32452W        W48586   5.470  11.378   1.074 -0.1190 -0.1533  0.3356
32453W        W48587   8.950   4.119  15.742 -0.2560 -0.0337 -0.0585
32454W        W48588  15.686   7.662   2.944 -0.1445 -0.0366 -0.3867
32455W        W48589  10.935  16.701   1.033  0.0008  0.2768  0.1225
32456W        W48590  17.345  17.743   1.067 -0.1219 -0.2781  0.0396
32457W        W48591   5.936  11.849  13.129  0.0464  0.1299 -0.0258
32458W        W48592   4.543   7.550  13.656 -0.0504  0.2027 -0.1779
32459W        W48593   6.540  16.842  14.106 -0.2394  0.1962  0.0977
32460W        W48594  12.788   9.766   5.500  0.2169 -0.2134 -0.0739
32461W        W48595   4.626  14.792  13.403 -0.0627 -0.1676  0.0341
32462W        W48596   4.147  17.841  16.294  0.4013  0.1338 -0.0594
32463W        W48597   3.483   6.511  15.673 -0.1710 -0.2137 -0.0987
32464W        W48598   6.696   4.637   5.501 -0.0645  0.0155 -0.1370
32465W        W48599   0.710   2.709   1.503  0.0180 -0.0555  0.0717
32466W        W48600   5.585   1.345   5.684 -0.2809 -0.1449  0.2250
32467W        W48601   2.419   9.042   0.800 -0.1534  0.3160  0.0288
32468W        W48602  10.874   2.689  14.781  0.3504  0.1740  0.0128
32469W        W48603  10.714   1.021   0.207 -0.4027  0.1742 -0.2290
32470W        W48604  10.385   9.016   0.813  0.1985  0.1981  0.2174
32471ION     NA48605   9.545   1.355  10.322  0.1946  0.1422  0.0313
32472ION     NA48606   9.441   3.377   1.612 -0.1218  0.0834 -0.0522
32473ION     NA48607   4.450  16.115   2.562 -0.2532  0.1836 -0.4654
32474ION     NA48608   6.476   5.937   3.040 -0.0246  0.3454 -0.0335
32475ION     NA48609   0.345   5.404  12.092  0.0377 -0.0266 -0.0184
32476ION     NA48610  13.282   2.313   4.496 -0.0392  0.2058 -0.1533
32477ION     NA48611   5.009   1.008   3.376 -0.1442  0.3376  0.1453
32478ION     NA48612  14.541  16.360   5.898  0.2504 -0.1187 -0.1111
32479ION     NA48613   8.850   2.708   0.263 -0.0407 -0.2688 -0.4153
32480ION     NA48614  17.356  18.053  10.892  0.2495 -0.0496  0.1964
32481ION     NA48615  14.510  15.270  16.244  0.0089 -0.0217  0.0417
32482ION     NA48616   6.708   2.395  14.558  0.0347  0.0944 -0.1713
32483ION     NA48617   5.004  11.717  12.374 -0.0227  0.0538  0.2419
32484ION     NA48618  16.346   9.911   0.081  0.1202 -0.2898 -0.2639
32485ION     NA48619  15.199   8.943  13.105  0.0032  0.1521 -0.0828
32486ION     NA48620   9.737  11.111  15.022 -0.1469 -0.1511  0.0724
32487ION     NA48621  15.763  12.155   1.879  0.3072  0.1528  0.2585
32488ION     NA48622   9.827  13.539  10.538 -0.2976  0.0226  0.0136
32489ION     NA48623   5.591   5.528   0.263  0.1376  0.0181  0.0918
32490ION     NA48624   4.406   7.810  11.396  0.3215 -0.2159  0.0883
32491ION     NA48625   9.006  15.760  10.816  0.0696 -0.0668  0.2633
32492ION     NA48626  12.381  12.346   3.771  0.1408 -0.1329  0.2613
32493ION     NA48627  15.429  17.983  14.111  0.0312  0.1506 -0.0607
32494ION     NA48628  17.683   2.482  15.521  0.2708  0.0225 -0.4760
32495ION     NA48629   0.929  16.504  10.820  0.2304 -0.2341  0.1032
32496ION     NA48630   6.727   7.639   2.005  0.0325  0.1733  0.3141
32497ION     NA48631   5.990  17.144   1.655 -0.2956  0.1467  0.1292
32498ION     NA48632   9.465  10.456  10.756  0.0419 -0.2600 -0.0641
32499ION     NA48633  17.769   5.730   2.077  0.0166 -0.1311  0.0897
32500ION     NA48634  14.953  15.528   3.171 -0.0367  0.2737  0.1465
32501ION     NA48635   2.897  13.137   1.431  0.1343 -0.2434  0.0669
32502ION     NA48636   7.838  16.339  12.542  0.1434  0.0619  0.2119
32503ION     NA48637  16.311  15.592  16.109  0.1241 -0.0509  0.0226
32504ION     NA48638   7.058   5.991   0.490 -0.0386 -0.1257 -0.1298
32505ION     NA48639  17.749   1.587  14.610  0.1888 -0.1474  0.3160
32506ION     NA48640  13.637   3.215  12.826  0.0913 -0.1793  0.2958
32507ION     NA48641  15.994   6.376  11.850 -0.1926  0.1468 -0.0205
32508ION     NA48642  11.646  13.358  15.292  0.1402 -0.1010  0.2700
32509ION     NA48643   0.146  13.318  12.407  0.0432  0.1455  0.3218
32510ION     NA48644  14.747   7.165   1.817 -0.1135 -0.1240 -0.0149
32511ION     NA48645   4.573  12.781  12.805  0.0718  0.1520  0.2461
32512ION     NA48646  14.391   1.952  10.305 -0.0432  0.0870  0.0724
32513ION     NA48647   1.867   8.226   2.848 -0.0970 -0.0447  0.1496
32514ION     NA48648   4.701   6.478   4.165  0.2397 -0.0106  0.0317
32515ION     NA48649  12.733   9.409   0.401  0.2756 -0.0706 -0.2428
32516ION     NA48650   1.455  15.857  10.775 -0.1532 -0.1286 -0.0671
32517ION     NA48651   8.673  11.378   1.737  0.0503  0.0310  0.0112
32518ION     NA48652   2.347  17.546  11.017 -0.0580 -0.2906 -0.0573
32519ION     NA48653  13.493  16.202  14.437  0.3251  0.0557  0.0150
32520ION     NA48654   0.092   1.300   2.351 -0.0887 -0.1840  0.0593
32521ION     NA48655  14.901  14.446   0.619 -0.0858  0.2683  0.1141
32522ION     NA48656   2.275  13.257  10.903 -0.0440 -0.0739  0.4572
32523ION     NA48657   6.055  13.541  10.652 -0.2345 -0.2167  0.2374
32524ION     NA48658   5.552  14.554   0.787 -0.2882 -0.0656  0.0311
32525ION     NA48659  16.747   4.483  15.295  0.2030  0.2598  0.1212
32526ION     NA48660   8.379  11.398   6.195 -0.1037 -0.2309  0.2623
32527ION     NA48661  15.166  10.070   5.843  0.0719 -0.1096  0.2260
32528ION     NA48662   1.710  16.877  10.727  0.3578  0.0732 -0.1972
32529ION     NA48663  17.829   2.462   5.081  0.3099  0.0819 -0.2592
32530ION     NA48664  10.892   5.720   1.568  0.0153  0.3998 -0.0600
32531ION     NA48665  13.889  17.322   3.850 -0.2433 -0.0529  0.0901
32532ION     NA48666   3.631   2.649  10.645  0.6027 -0.1367  0.2267
32533ION     NA48667  14.056   3.453   5.335 -0.1151  0.0464 -0.1074
32534ION     NA48668   7.613  10.165  10.701 -0.1264  0.0137 -0.0281
32535ION     NA48669   8.478   3.389  12.893 -0.0672  0.0313  0.0385
32536ION     NA48670   3.191   9.153   0.146 -0.1424  0.1860 -0.1358
32537ION     NA48671   3.552   4.879   2.346  0.0692  0.0808  0.0003
32538ION     NA48672   3.385   4.892  13.706  0.0129  0.0848 -0.1788
32539ION     NA48673   3.754   1.911   0.263  0.2330  0.0012  0.3316
32540ION     NA48674  12.303   3.780   4.504 -0.1274 -0.2245  0.0964
32541ION     NA48675   2.285   3.719  14.045 -0.1556 -0.0446 -0.1782
32542ION     NA48676  12.141   5.847   1.511  0.2822 -0.1413 -0.2042
32543ION     NA48677  14.164   0.234   5.818  0.1470  0.0265  0.1331
32544ION     NA48678   7.472   8.704  11.557  0.0119  0.3564 -0.2348
32545ION     NA48679   7.362   5.372   5.448 -0.1148  0.1039 -0.3025
32546ION     NA48680  12.874   4.358  16.066 -0.1766  0.0010  0.2101
32547ION     NA48681   8.213   6.335   6.000 -0.0470 -0.0936  0.0849
32548ION     NA48682  14.656   8.204  13.443 -0.0506  0.0822  0.0519
32549ION     NA48683   7.316  11.471   2.011 -0.1830 -0.0870  0.2208
32550ION     NA48684   7.088   9.632   2.702  0.0484 -0.1522  0.2291
32551ION     NA48685   1.988  10.028   6.023 -0.1562  0.0269  0.1661
32552ION     NA48686  15.641  16.035   1.216 -0.0625  0.0504  0.0505
32553ION     NA48687   4.047  16.380   6.321 -0.0817 -0.0559 -0.4053
32554ION     NA48688   0.480   7.576  13.282  0.0711  0.0611  0.2047
32555ION     NA48689   1.297   4.473  14.372 -0.0923 -0.0547  0.0073
32556ION     NA48690  12.585   0.246  12.863 -0.1937 -0.1165  0.0967
32557ION     NA48691  12.782  17.406   1.169  0.2280 -0.1929 -0.1942
32558ION     NA48692  11.967   4.327  15.211 -0.2739  0.1080 -0.0818
32559ION     NA48693  13.592   7.681  10.837 -0.1090  0.1543  0.1530
32560ION     NA48694   8.686   9.194   6.250 -0.0165  0.1301  0.1112
32561ION     NA48695   6.200   8.140  14.196  0.1539 -0.3366  0.1887
32562ION     NA48696   2.791  12.882   4.038  0.1622 -0.3490  0.1810
32563ION     NA48697  17.429   1.731  10.965 -0.0243  0.1393 -0.0346
32564ION     NA48698  14.978  12.054  10.426 -0.0011 -0.1144 -0.0593
32565ION     NA48699   9.500   3.122   4.615  0.1956 -0.1835 -0.4081
32566ION     NA48700   3.258   1.034   6.045 -0.1220 -0.1565  0.4000
32567ION     NA48701  10.721   3.823   2.524  0.2603  0.0277  0.2869
32568ION     NA48702   0.800   5.507  15.985 -0.0856  0.2612 -0.1629
32569ION     NA48703   6.904   1.343   3.650 -0.2784  0.0383  0.1545
32570ION     NA48704  10.072   7.960  10.415  0.3370  0.0552  0.0860
32571ION     NA48705  18.046  13.191   5.968  0.2173  0.1458  0.2411
32572ION     NA48706   8.905   8.211  11.919  0.0642  0.3044  0.0310
32573ION     NA48707   1.106   9.685   6.031  0.1273 -0.0513  0.0055
32574ION     NA48708   8.515   8.715  13.181  0.4206 -0.0624 -0.2485
32575ION     NA48709  14.618  16.046  10.783  0.2931 -0.1713 -0.3319
32576ION     NA48710  17.026  10.590   0.327 -0.1386  0.1131  0.2883
32577ION     NA48711  16.127   5.148  12.757 -0.1405 -0.2147  0.2027
32578ION     NA48712  16.390   8.434   3.080  0.1941 -0.1083 -0.3317
32579ION     NA48713   3.518   7.815  10.885  0.1437  0.2807  0.3864
32580ION     NA48714  11.439  17.264  13.490  0.1499 -0.0603  0.2083
32581ION     NA48715  16.650   1.018   0.980  0.0593  0.0120  0.1385
32582ION     NA48716  16.783   1.235  15.470 -0.1235  0.2124 -0.0004
32583ION     NA48717  11.121  14.973   6.156 -0.0234  0.3426  0.0489
32584ION     NA48718   8.480   0.102  14.193 -0.2421 -0.0940 -0.0096
32585ION     NA48719  13.556  14.318  14.215 -0.0581  0.1468  0.5246
32586ION     NA48720   0.259  11.174  10.420  0.3718 -0.2682  0.1992
32587ION     NA48721   1.841   8.590  11.536  0.2038 -0.1024 -0.2322
32588ION     NA48722   5.572   9.927   6.070  0.0002  0.0232  0.0747
32589ION     NA48723   7.872  10.859   6.408  0.0310 -0.2026 -0.2289
32590ION     NA48724  14.143  10.860   2.149  0.0692 -0.0426 -0.1828
32591ION     NA48725  18.025  16.561  10.798  0.0409  0.1140 -0.1560
32592ION     NA48726  10.566   7.984  15.953  0.1738 -0.0219 -0.2344
32593ION     NA48727   1.134  16.173   3.728 -0.1925 -0.2064  0.0426
32594ION     NA48728   7.503   0.469   3.903 -0.0827 -0.0358 -0.2394
32595ION     NA48729   2.597   3.081   3.828  0.1368  0.3224  0.2385
32596ION     NA48730   2.240  11.599   1.052 -0.2391 -0.0222  0.1518
32597ION     NA48731   6.242  17.284  10.459 -0.1864 -0.0406  0.3364
32598ION     NA48732   6.683   3.092   4.050  0.0635  0.1801 -0.3317
32599ION     NA48733   1.226   0.398  10.773 -0.0117 -0.1602  0.1969
32600ION     NA48734   8.001   9.345   1.407 -0.0272  0.0737  0.0489
32601ION     NA48735   2.381  10.843  15.553  0.0551 -0.1463  0.1739
32602ION     NA48736   1.064   6.290  13.440  0.0637 -0.0727  0.1589
32603ION     NA48737  17.362  11.475   5.589 -0.1786 -0.1680 -0.0101
32604ION     NA48738   2.231  14.687  10.777  0.1463  0.2549 -0.0466
32605ION     NA48739   9.302   4.311   5.674  0.1265 -0.0628  0.2455
32606ION     NA48740   3.280   2.685  13.772  0.0145 -0.3032  0.0562
32607ION     NA48741   3.647  10.227   4.554 -0.0482  0.1595  0.0219
32608ION     NA48742  16.144   1.978   4.312  0.3000 -0.1181 -0.1793
32609ION     NA48743   6.181   2.140   5.894  0.2436 -0.1063  0.0109
32610ION     NA48744  10.949   8.817   3.834  0.0372  0.2512 -0.3090
32611ION     NA48745  11.014   2.846  15.568  0.2750  0.3864 -0.2820
32612ION     NA48746  12.254   0.844   2.073 -0.2117 -0.0322  0.2429
32613ION     NA48747  17.167   3.638  10.483  0.0274  0.2777 -0.0568
32614ION     NA48748   9.050  17.977  15.470  0.0001 -0.0657 -0.0303
32615ION     NA48749   4.987   1.870   1.368  0.0727 -0.2353  0.3458
32616ION     NA48750   5.357   6.714   2.895 -0.1683 -0.3972 -0.0756
32617ION     NA48751   6.335   6.640  10.364 -0.1476 -0.1590 -0.1305
32618ION     NA48752   2.511   4.638   5.783  0.3004 -0.0566 -0.4473
32619ION     NA48753   3.704   5.054   6.158  0.0732 -0.1993 -0.0826
32620ION     NA48754  14.090  12.329   6.162 -0.0423 -0.2013 -0.0210
32621ION     NA48755  12.462   2.248   4.450 -0.1966 -0.3910 -0.0073
32622ION     NA48756   2.402  16.591  14.969  0.1697  0.1111  0.1724
32623ION     NA48757  11.779   1.051   5.651 -0.0609 -0.2316  0.1183
32624ION     NA48758   1.236   1.771  14.210  0.2863  0.0433 -0.2497
32625ION     NA48759   5.368   0.184  15.223  0.1908  0.3023  0.6254
32626ION     NA48760  12.757  11.420   5.540  0.0223  0.1096  0.1106
32627ION     NA48761   4.541   2.780  12.735  0.1153 -0.2384 -0.1190
32628ION     NA48762  14.208   4.320   0.736 -0.0101 -0.0291  0.2291
32629ION     NA48763  11.102   5.804  16.055  0.2027  0.0422 -0.1390
32630ION     NA48764   1.038  11.619  14.650 -0.2956  0.0231 -0.3569
32631ION     NA48765   2.375  17.570  10.491 -0.1043  0.2210  0.0106
32632ION     NA48766  13.226  10.730  12.701  0.1968 -0.2801  0.0128
32633ION     NA48767   0.151   3.094   1.628 -0.0078 -0.1038 -0.0815
32634ION     NA48768   5.016   2.271  10.568 -0.0782  0.0455 -0.2236
32635ION     NA48769   4.234  15.656  13.070 -0.0587 -0.2366  0.2683
32636ION     NA48770  12.873   8.123  10.840  0.2725 -0.0109  0.0599
32637ION     NA48771  12.600   0.993   5.907 -0.0044 -0.0187  0.1175
32638ION     NA48772  10.251   4.637  10.629  0.0159 -0.2336  0.1856
32639ION     NA48773  15.203  15.202   1.027  0.2399 -0.1555 -0.0635
32640ION     NA48774   1.595  16.195  13.025 -0.3097  0.4039 -0.2500
32641ION     NA48775   9.345   2.485   5.793 -0.1151 -0.2324  0.1808
32642ION     NA48776   4.417   0.428   2.724 -0.1907 -0.0871  0.0134
32643ION     NA48777  13.748   9.666  13.499 -0.0059 -0.0844 -0.2696
32644ION     NA48778  13.566   0.321   5.198 -0.0157  0.1877 -0.1824
32645ION     NA48779   0.904   7.391   6.265  0.5154  0.1336 -0.0131
32646ION     NA48780  10.895   7.484   2.561  0.0830  0.2423  0.0031
32647ION     NA48781   8.620   1.813   2.473 -0.0261 -0.1236 -0.2647
32648ION     NA48782   5.870   1.333   6.140  0.2128  0.0998 -0.0248
32649ION     NA48783  17.936   3.106   0.121  0.1002 -0.3167 -0.0888
32650ION     NA48784   1.365   7.867  10.548  0.2610 -0.1943 -0.2815
32651ION     NA48785  16.103  11.702   5.443  0.0331  0.2371 -0.2376
32652ION     NA48786  15.231  10.899   0.975 -0.1673 -0.1726 -0.0455
32653ION     NA48787  17.063   2.488  13.389 -0.1510  0.0644  0.0080
32654ION     NA48788   0.060   1.238  16.233 -0.1198  0.1808 -0.2567
32655ION     NA48789  15.625  14.200  10.508  0.1132 -0.2194  0.1926
32656ION     NA48790  13.587  10.252   5.226 -0.1528  0.1296 -0.2339
32657ION     NA48791  14.962   0.898   5.765 -0.0496 -0.0068 -0.0275
32658ION     NA48792  14.863   7.146   5.253 -0.0086 -0.0087  0.1825
32659ION     NA48793  11.604  11.964  14.086 -0.1998  0.2419 -0.0697
32660ION     NA48794   5.676   7.055  10.594  0.0596  0.2270 -0.0529
32661ION     NA48795  15.155   1.456  12.917  0.0766 -0.0035 -0.3603
32662ION     NA48796   8.723  15.185  12.420  0.1611 -0.0703  0.0507
32663ION     NA48797  11.430   0.483  10.292 -0.2096 -0.1031 -0.0930
32664ION     NA48798  14.685   4.472  10.034 -0.2636 -0.0908 -0.0765
32665ION     NA48799   7.013  10.759  10.793  0.0373  0.0150  0.0659
32666ION     NA48800  16.688  17.370  14.131  0.1050  0.0790 -0.0049
32667ION     NA48801  17.108   2.841   1.156 -0.0251 -0.1475 -0.2532
32668ION     NA48802  10.563  13.051   3.851  0.2755  0.1368 -0.3837
32669ION     NA48803  15.198   4.831   2.033 -0.0565  0.1410  0.0100
32670ION     NA48804  16.732   1.788   6.060 -0.1072 -0.1874 -0.1203
32671ION     NA48805   8.031   1.785  14.556  0.0415 -0.0735  0.0604
32672ION     NA48806  11.710   3.842   3.456 -0.0050 -0.1317 -0.3517
32673ION     NA48807  17.875   1.011   3.589  0.0272  0.0221 -0.4315
32674ION     NA48808  12.954   6.826  14.809  0.1941 -0.2831  0.0323
32675ION     NA48809   7.857   3.751   0.902 -0.1765  0.1934  0.3824
32676ION     NA48810  11.256   4.432  10.643  0.1884 -0.1602 -0.0389
32677ION     NA48811   1.482  13.907   5.798  0.4554  0.1530  0.0418
32678ION     NA48812   0.445   0.638   2.003  0.0991  0.0686 -0.0773
32679ION     NA48813   1.754   9.534  10.580 -0.1194  0.2747  0.1692
32680ION     NA48814   8.161   3.494  14.203 -0.2600  0.0742  0.1177
32681ION     NA48815  14.680   0.906  10.268 -0.0276  0.0078  0.0240
32682ION     NA48816   9.004  16.833   5.670 -0.0618  0.0926 -0.0292
32683ION     NA48817  10.927  17.979   0.546 -0.0717 -0.3019 -0.0708
32684ION     NA48818   5.977   5.503   1.860 -0.1326  0.0365 -0.1335
32685ION     NA48819  10.715   0.222  10.813  0.1495 -0.2891 -0.0360
32686ION     NA48820  11.261  14.216  10.495 -0.3227  0.0142  0.0127
32687ION     NA48821   8.607   1.007   5.673  0.2967  0.1098 -0.0891
32688ION     NA48822  12.182   5.404   0.263  0.1854  0.1014  0.0703
32689ION     NA48823  16.756   0.645  14.563  0.0857 -0.1288  0.0742
32690ION     NA48824   3.419   9.599   5.833 -0.1931 -0.2218 -0.1153
32691ION     NA48825   9.565   5.209   5.974  0.0529 -0.2171 -0.0167
32692ION     NA48826   5.451  17.708  10.422 -0.1843  0.4122 -0.1921
32693ION     NA48827   5.047   9.827   5.522 -0.0086  0.2229  0.0753
32694ION     NA48828   4.955  16.136   6.236  0.0571  0.0017 -0.0532
32695ION     NA48829  14.291  15.290   0.954  0.4255 -0.3594 -0.1702
32696ION     NA48830   3.757   9.602  10.331 -0.0951 -0.1371 -0.2192
32697ION     NA48831   0.863  11.019   3.015 -0.0958  0.1145 -0.1918
32698ION     NA48832   3.476   3.666   5.581  0.0575  0.1046 -0.5310
32699ION     NA48833   6.317   7.155   3.508 -0.2586 -0.1705 -0.2175
32700ION     NA48834  15.798  10.052   4.671  0.2839 -0.3413 -0.0012
32701ION     NA48835   3.126  12.541  14.302  0.1736 -0.0746  0.2720
32702ION     NA48836   6.622  14.483   0.356 -0.0716  0.1379  0.1239
32703ION     NA48837  13.112  13.392   5.972  0.1976 -0.2085  0.0005
32704ION     NA48838   2.848  16.767  13.300  0.2046 -0.1859 -0.2859
32705ION     NA48839  11.423   0.433  13.325  0.0112 -0.0565  0.1060
32706ION     NA48840   1.143  14.290  14.728 -0.0299 -0.0642 -0.2608
32707ION     NA48841   5.088   9.373   6.333 -0.0624  0.2356 -0.0149
32708ION     NA48842   3.711  15.950   3.547 -0.0059  0.0007  0.3308
32709ION     NA48843   8.704  17.390   1.776 -0.2257  0.0558  0.2940
32710ION     NA48844  10.857  12.222   1.782  0.0229  0.0409  0.0840
32711ION     NA48845  13.151  10.909  13.622 -0.0776 -0.0143 -0.1373
32712ION     NA48846   1.348  11.739   1.212 -0.0432 -0.0748 -0.0766
32713ION     NA48847   5.870   4.655  11.717 -0.0500 -0.0857 -0.1154
32714ION     NA48848   2.646  12.952  12.416  0.2268 -0.1996  0.3547
32715ION     NA48849  13.846   7.926   2.132  0.0234 -0.2721 -0.1061
32716ION     NA48850   1.150  13.676   1.899 -0.0677  0.0934 -0.1704
32717ION     NA48851   3.731   6.295   1.981 -0.1630 -0.0089 -0.4288
32718ION     NA48852  10.737  15.340   4.900 -0.0456  0.2287 -0.0931
32719ION     NA48853   3.002   1.595  12.776  0.1488  0.0204 -0.2780
32720ION     NA48854   5.087   1.270  15.327  0.0047 -0.1821 -0.1415
32721ION     NA48855   5.768   2.983   1.609  0.0061  0.1311 -0.1093
32722ION     NA48856   3.704   1.704   3.230 -0.2194  0.1194 -0.3220
32723ION     NA48857   4.778   6.506  15.080  0.2238 -0.1196  0.1298
32724ION     NA48858   5.528   0.011  10.755 -0.0782 -0.1329 -0.4664
32725ION     NA48859   6.215   3.747   5.181  0.0895 -0.0914 -0.0987
32726ION     NA48860   4.566  14.095   2.643  0.1132  0.0481  0.2217
32727ION     NA48861   3.719   8.801  10.788 -0.1416 -0.1799  0.1302
32728ION     NA48862   6.605  13.514   6.210 -0.2189 -0.0597  0.2132
32729ION     NA48863  17.677   3.946  12.828  0.1540  0.2131  0.1529
32730ION     NA48864  15.648   0.157   1.544  0.1107 -0.2549  0.2614
32731ION     NA48865  16.223  17.719  15.414  0.3057 -0.0749 -0.2189
32732ION     NA48866  14.356   2.981  15.886  0.0332  0.3647  0.0808
32733ION     NA48867   8.720   3.021  10.343 -0.3197  0.0631 -0.0065
32734ION     NA48868  12.836   2.626  15.916 -0.1050 -0.0722  0.2591
32735ION     NA48869   3.770  12.775   1.148 -0.2522  0.0754  0.0733
32736ION     NA48870   0.368  13.527   0.299 -0.1148 -0.0888 -0.4111
32737ION     NA48871   1.618   1.287   3.011  0.0137  0.0661 -0.1385
32738ION     NA48872   3.223   3.596   1.499  0.2584 -0.0158 -0.0923
32739ION     NA48873  13.347  16.668   2.995  0.0712  0.0117  0.1521
32740ION     NA48874   7.335   6.782   6.175  0.0823 -0.1298  0.3156
32741ION     NA48875   3.534  15.645   6.178 -0.0511  0.0163  0.0434
32742ION     NA48876   2.018  15.816  12.584  0.0173 -0.0968  0.2590
32743ION     NA48877   0.589  14.510   0.587  0.1084  0.0694  0.0059
32744ION     NA48878   6.415  11.968   6.248 -0.0762 -0.0813 -0.1347
32745ION     NA48879  17.773  11.236   2.387  0.0186  0.1430  0.2976
32746ION     NA48880   3.191  10.459  10.378 -0.1084  0.1623  0.2490
32747ION     NA48881   0.362  15.344  11.293  0.0205  0.0183 -0.0638
32748ION     NA48882   8.956   9.032  14.408  0.0007  0.1777 -0.0765
32749ION     NA48883   1.846   0.853  14.192 -0.2023 -0.3185  0.0707
32750ION     NA48884   6.679   8.698   5.733  0.0469 -0.1155 -0.4112
32751ION     NA48885   7.513  10.420  15.426 -0.1575 -0.3354  0.1194
32752ION     NA48886   1.923   2.497   5.776 -0.2172 -0.0190  0.0641
32753ION     NA48887   0.327   1.420  10.542 -0.0592 -0.1162 -0.0181
32754ION     NA48888   1.486   9.224   3.981 -0.0612  0.0918 -0.1897
32755ION     NA48889  15.060   0.327  12.145  0.1593 -0.0042  0.1550
32756ION     NA48890   1.665  16.978   3.512 -0.1182  0.1358 -0.4053
32757ION     NA48891   7.282   3.545  12.195  0.2559  0.2084 -0.1467
32758ION     NA48892  11.865   4.402   4.170 -0.0230  0.2230 -0.0575
32759ION     NA48893  13.222  15.676  15.888 -0.1063 -0.0552 -0.2868
32760ION     NA48894  15.535   5.345   0.975  0.1646 -0.0954  0.0439
32761ION     NA48895   3.403  14.755   6.247 -0.3780 -0.1077  0.0370
32762ION     NA48896  16.300   1.499  13.015  0.1000  0.0175  0.2089
32763ION     NA48897   9.490   0.052   5.446 -0.0277 -0.1035  0.1257
32764ION     NA48898   1.377  15.376  10.950 -0.0663  0.2315  0.2521
32765ION     NA48899   5.594  10.240  10.763  0.2141 -0.0687  0.0515
32766ION     NA48900  17.187   7.219  10.341 -0.0008 -0.2216  0.1716
32767ION     NA48901   7.415   1.863   1.394 -0.1817 -0.1459 -0.1950
32768ION     NA48902   3.654   4.567   5.784 -0.1644 -0.2675  0.1076
32769ION     NA48903   8.004  11.081  10.649 -0.2438  0.0737  0.2617
32770ION     NA48904   0.643  16.012   2.152  0.0630 -0.0222 -0.0083
32771ION     NA48905  12.709   2.632   2.319 -0.3684  0.2619 -0.1776
32772ION     NA48906  11.450  14.556   4.182 -0.3487  0.0340 -0.0926
32773ION     NA48907  12.139  15.394  10.371 -0.0505 -0.1554  0.1841
32774ION     NA48908  12.395   7.879   1.568 -0.0267 -0.0813  0.2116
32775ION     NA48909  11.662   1.941   0.753  0.0934 -0.1003 -0.3104
32776ION     NA48910   4.547  12.403   3.912 -0.1752 -0.0674 -0.2387
32777ION     NA48911   1.066   5.273  10.138 -0.1644  0.2710 -0.1830
32778ION     NA48912   8.615   5.453   5.869 -0.2435  0.3283  0.1101
32779ION     NA48913   4.238   9.094  14.795 -0.3222  0.1494  0.0757
32780ION     NA48914   6.227  10.177  11.545 -0.1625  0.0783  0.0893
32781ION     NA48915  16.864  15.466  10.932  0.0562  0.0629 -0.0327
32782ION     NA48916  17.801  10.423  10.501 -0.1423  0.0165 -0.2570
32783ION     NA48917   8.166  12.593  10.787 -0.0374 -0.2059 -0.1159
32784ION     NA48918  17.198   2.721   0.488 -0.2360 -0.0420  0.0592
32785ION     NA48919   5.384   2.007   6.451  0.1234 -0.2281 -0.1449
32786ION     NA48920  10.093   1.823   2.265 -0.0896 -0.0823  0.2394
32787ION     NA48921  13.383  14.413   3.563  0.1521 -0.4437 -0.0396
32788ION     NA48922   8.307  16.193   5.861 -0.0249 -0.0065 -0.2828
32789ION     NA48923  17.851  15.845  15.030  0.1209  0.3123  0.0437
32790ION     NA48924   7.383   8.086  14.751  0.0919  0.0145 -0.2745
32791ION     NA48925   1.285  17.528   4.403  0.2124  0.2023 -0.1740
32792ION     NA48926  16.697   3.342   3.359  0.0254 -0.2532 -0.1001
32793ION     NA48927   6.967  11.322  15.557 -0.2848 -0.1279 -0.3066
32794ION     NA48928   7.003  17.507   4.526 -0.1075 -0.0756  0.1115
32795ION     NA48929  15.431   5.386  16.084  0.0389 -0.0381  0.1212
32796ION     NA48930   8.358  13.664  16.141  0.3161 -0.0458 -0.0259
32797ION     NA48931   2.638   6.862  10.593 -0.1271 -0.0370  0.1186
32798ION     NA48932  11.867   3.480   5.678 -0.0837 -0.4783 -0.3746
32799ION     NA48933  17.029   7.870  10.372  0.0770  0.0309 -0.3147
32800ION     NA48934  10.393  15.149   6.253  0.0782  0.1675 -0.1820
32801ION     NA48935   1.259  11.708  12.491  0.0656  0.0553  0.1455
32802ION     NA48936  10.596  13.852  13.269 -0.0572  0.1308  0.0245
32803ION     NA48937  16.365   8.707   0.562 -0.1943  0.0994  0.1925
32804ION     NA48938  15.272   0.055   3.736 -0.1964 -0.1428  0.3041
32805ION     NA48939   2.031   0.745  10.777 -0.0032  0.1644 -0.1636
32806ION     NA48940   9.212  12.611   6.367 -0.0205 -0.1471 -0.2118
32807ION     NA48941  15.510  14.579  15.513 -0.0081 -0.0126  0.2351
32808ION     NA48942  12.901  13.470  15.019 -0.3255  0.3543  0.0742
32809ION     NA48943   0.609   3.939   3.088 -0.3796  0.0815 -0.0195
32810ION     NA48944   3.768   2.123   6.087  0.1332 -0.0357 -0.2361
32811ION     NA48945   4.092  13.021   4.718  0.0412 -0.3090  0.2946
32812ION     NA48946   7.795  11.815  15.261 -0.1073  0.0297  0.1133
32813ION     NA48947  16.853   7.738   5.554  0.3568 -0.3337 -0.1192
32814ION     NA48948  14.969   6.387  10.513  0.1172  0.1158 -0.2849
32815ION     NA48949   8.513   2.618  12.124  0.2375  0.0350  0.2359
32816ION     NA48950  15.718  14.921  13.245 -0.2480 -0.1015  0.0098
32817ION     NA48951  10.942   8.220   6.002  0.0534 -0.1866  0.2581
32818ION     NA48952   8.097  17.558   0.880  0.1162 -0.2086  0.0558
32819ION     NA48953  12.528  11.253  14.854  0.1693  0.1968 -0.0067
32820ION     NA48954   4.853   1.391  10.578 -0.0180  0.2245  0.1243
32821ION     NA48955   5.913  16.848  16.284 -0.1223 -0.1134  0.0065
32822ION     NA48956   3.527   3.972  10.206  0.0048  0.1649 -0.0676
32823ION     NA48957  17.187   2.711  10.653  0.1138  0.0564  0.2609
32824ION     NA48958   4.536  15.635   1.105  0.0715  0.2921 -0.0522
32825ION     NA48959   3.240  10.419  13.563  0.0218  0.0225  0.1146
32826ION     NA48960   3.826   7.239   1.290  0.1066 -0.0632 -0.0626
32827ION     NA48961  14.630   3.101   3.393 -0.1166 -0.2241 -0.0999
32828ION     NA48962  16.785  14.880  12.998  0.0257  0.5079 -0.1295
32829ION     NA48963  10.310  16.044  10.446 -0.0508  0.0925  0.2573
32830ION     NA48964  17.670   8.874   2.638  0.1854 -0.0185 -0.2956
32831ION     NA48965  15.954   8.057   5.850  0.0432  0.0164 -0.1482
32832ION     NA48966  17.542  13.366   4.583 -0.2484 -0.0981 -0.0673
32833ION     NA48967  13.833   8.768   2.565 -0.1592  0.1088 -0.1864
32834ION     NA48968  10.430   5.660   2.388 -0.0905  0.1514 -0.1636
32835ION     NA48969   6.433   3.231   5.899 -0.0928  0.0022 -0.0808
32836ION     NA48970   4.048   4.708   3.709 -0.1755 -0.0487  0.1120
32837ION     NA48971  10.460  16.123  15.723 -0.0384 -0.1939  0.1022
32838ION     NA48972   0.363  17.672  13.382  0.0347  0.0548 -0.2325
32839ION     NA48973  12.488  11.436  12.431 -0.0127 -0.4513 -0.1944
32840ION     NA48974   3.381   4.808  15.858  0.2392  0.1733 -0.1588
32841ION     NA48975   0.912   8.796   2.824  0.1377  0.1738  0.2885
32842ION     NA48976   0.543  11.287   1.871  0.1965 -0.2407  0.2755
32843ION     NA48977   5.731  16.028  15.282 -0.0839  0.0885 -0.0089
32844ION     NA48978  13.358   6.180   1.757 -0.2663 -0.0726 -0.2598
32845ION     NA48979   6.690  13.063  10.708 -0.1631  0.0029  0.0718
32846ION     NA48980  12.410   2.307   3.828 -0.0062 -0.1497  0.0178
32847ION     NA48981  17.775   8.025   5.581  0.0490 -0.2073  0.0152
32848ION     NA48982   8.466  15.088   0.406  0.2168 -0.0199  0.1729
32849ION     NA48983  16.937   3.932   0.957 -0.2754 -0.0805 -0.1207
32850ION     NA48984   2.958   2.186  14.880  0.1071 -0.0981  0.1973
32851ION     NA48985  10.534   0.158   4.155 -0.0290 -0.1158  0.4194
32852ION     NA48986   5.171   3.557  15.346  0.1586  0.2691  0.2889
32853ION     NA48987  16.857   8.803  10.446 -0.0617 -0.0738  0.2267
32854ION     NA48988   0.756   4.736   5.732 -0.1029 -0.1240  0.0592
32855ION     NA48989  16.337  12.569  10.509  0.1147 -0.1554  0.2045
32856ION     NA48990  14.518   7.841  16.300 -0.1787  0.0578  0.0807
32857ION     NA48991   6.036  13.665   0.264 -0.2777 -0.0658 -0.1309
32858ION     NA48992   0.841   2.663  14.244 -0.0743 -0.2819 -0.0876
32859ION     NA48993   9.766   3.025  10.193 -0.0865  0.2254  0.2501
32860ION     NA48994  11.738   3.051  14.425  0.0072 -0.1340 -0.0554
32861ION     NA48995   6.107  10.514   0.339 -0.0779  0.0018  0.0322
32862ION     NA48996   9.991   8.516  14.698  0.2638 -0.0089 -0.1954
32863ION     NA48997   8.541   5.202  10.619 -0.0819 -0.1110  0.4373
32864ION     NA48998   1.279   7.652   6.181 -0.0630 -0.0386  0.2927
32865ION     NA48999   2.606   6.602  14.411  0.1842  0.2583  0.0605
32866ION     NA49000  16.910   4.407  10.230 -0.0042 -0.1086 -0.2598
32867ION     NA49001   3.682   4.915   0.933  0.3137  0.4455  0.0322
32868ION     NA49002  17.366   3.321   2.587  0.2718  0.0783  0.1797
32869ION     NA49003   5.742   2.161  13.546  0.0215 -0.1012  0.1668
32870ION     NA49004   9.038  17.013  10.332 -0.0858 -0.0601 -0.0197
32871ION     NA49005  11.960  10.041  14.217 -0.1709 -0.0874 -0.1542
32872ION     NA49006   0.596   6.776   2.102  0.2316 -0.0679 -0.1666
32873ION     NA49007   4.183  13.169  15.993 -0.2909  0.2638  0.1026
32874ION     NA49008   9.006   0.749   0.565 -0.0985  0.1059  0.0945
32875ION     NA49009  16.894   5.591  15.995 -0.1568 -0.2304 -0.0620
32876ION     NA49010   5.715  15.908   2.044 -0.0331  0.1185 -0.0484
32877ION     NA49011   9.073   3.312  14.381 -0.2054  0.5586  0.0092
32878ION     NA49012   7.637   0.027   2.873 -0.0497  0.0588  0.1075
32879ION     NA49013   0.680  17.727   5.707  0.0971 -0.0917 -0.0966
32880ION     NA49014  13.245   8.661  10.828  0.1039 -0.0860  0.1011
32881ION     NA49015   6.002  17.540   4.463 -0.0399 -0.0578 -0.1368
32882ION     NA49016  15.001   8.468   1.875  0.2095  0.3187 -0.1235
32883ION     NA49017   9.917   8.866   5.096 -0.2348 -0.1443 -0.0103
32884ION     NA49018   8.484   0.782   1.659 -0.0887  0.2277 -0.3439
32885ION     NA49019  12.594  10.121   5.827  0.1476 -0.1271 -0.4148
32886ION     NA49020   9.015  16.331   5.970  0.1697 -0.0905 -0.0459
32887ION     NA49021  16.414  16.887  10.667 -0.0468  0.2111  0.0678
32888ION     NA49022   5.602  17.944   5.666  0.1926  0.5054 -0.2048
32889ION     NA49023   4.976   1.773   3.682  0.2743 -0.1802 -0.2431
32890ION     NA49024  16.620   9.742   6.016 -0.2908 -0.0046 -0.0339
32891ION     NA49025   8.302   1.914  10.430  0.4204  0.1989 -0.1825
32892ION     NA49026  12.988   0.710   0.056 -0.1247 -0.1724  0.4961
32893ION     NA49027   5.613   9.484   3.442 -0.3532 -0.4090  0.2151
32894ION     NA49028   6.185   0.567  15.576  0.1279 -0.1282  0.1993
32895ION     NA49029   4.257   4.022   1.046 -0.1010  0.1522 -0.1122
32896ION     NA49030   0.438   2.693   5.519 -0.2752  0.3523  0.2937
32897ION     NA49031  13.352   8.809   3.752  0.0795 -0.1308  0.1038
32898ION     NA49032   8.925   6.419   5.068  0.0952  0.4666  0.2369
32899ION     NA49033   7.902  16.900  13.240 -0.3351  0.0233 -0.1195
32900ION     NA49034  11.846  11.656  15.402 -0.1997 -0.1888 -0.1454
32901ION     NA49035  13.042   5.243  15.107 -0.1621 -0.4088 -0.0772
32902ION     NA49036  10.487   5.001   0.914  0.0806 -0.0094 -0.0134
32903ION     NA49037   2.640  17.209   1.542 -0.2117 -0.1020  0.1253
32904ION     NA49038   9.966   4.029   2.245 -0.2860 -0.0494  0.1240
32905ION     NA49039  17.694   6.149  16.170  0.0361  0.1832 -0.0792
32906ION     NA49040  16.148  14.893  10.821  0.1886 -0.1990 -0.1494
32907ION     NA49041   6.138  17.340  14.983 -0.2406  0.0643 -0.0850
32908ION     NA49042  16.130   0.289  13.779 -0.0394  0.0638  0.2768
32909ION     NA49043  16.233   3.660   4.193 -0.0835 -0.1410 -0.1119
32910ION     NA49044  16.858  14.355   2.530 -0.0298 -0.0583  0.1245
32911ION     NA49045  17.204   1.372   4.540 -0.1740 -0.0730  0.0551
32912ION     NA49046  10.135   9.727  10.678 -0.2982  0.0898  0.2035
32913ION     NA49047  16.874  14.136   1.560  0.2348 -0.4724  0.2091
32914ION     NA49048   2.192   3.518   0.046 -0.1104 -0.1890 -0.2228
32915ION     NA49049   6.871   7.560   5.054 -0.0206  0.0831 -0.1593
32916ION     NA49050   9.561   0.651  10.505 -0.2708  0.2705  0.0665
32917ION     NA49051   6.910  16.717  10.492 -0.1532 -0.2682 -0.0159
32918ION     NA49052   9.177   6.940  12.521 -0.3106 -0.1324 -0.2265
32919ION     NA49053   6.551  17.964   2.682  0.0466 -0.0049 -0.3978
32920ION     NA49054  15.134  12.339  15.598 -0.1534 -0.1431  0.0953
32921ION     NA49055  15.508  16.915   2.850 -0.2238  0.0927 -0.0038
32922ION     NA49056  16.651  12.574  13.503 -0.0536  0.2135  0.3393
32923ION     NA49057  13.302  17.723  11.292 -0.1084  0.3448 -0.3446
32924ION     NA49058   4.456  11.618   1.210 -0.0727  0.0035  0.0236
32925ION     NA49059   6.761   3.645   2.350  0.1593 -0.0058  0.2679
32926ION     NA49060  12.423   9.186   2.175  0.0397  0.1599  0.3028
32927ION     NA49061  15.018   9.804  16.241 -0.0280  0.1112 -0.3338
32928ION     NA49062   0.714   5.177   2.573 -0.2880 -0.2823 -0.1868
32929ION     NA49063   0.589  12.567  12.623  0.0651 -0.2647  0.1015
32930ION     NA49064   4.513   9.674  12.574 -0.1951  0.0972 -0.1989
32931ION     NA49065   9.088   2.111  11.242 -0.0324 -0.0619 -0.1013
32932ION     NA49066   2.481  13.435   5.925  0.0707 -0.1220  0.0836
32933ION     NA49067   9.253  15.372   3.419 -0.0852  0.0519 -0.0517
32934ION     NA49068   7.785   5.501  14.161  0.2360  0.2353 -0.2352
32935ION     NA49069  13.153   3.074  15.146  0.1504  0.0969  0.0348
32936ION     NA49070  15.533   8.854   1.007  0.5225  0.1903  0.1670
32937ION     NA49071  12.584  13.257   3.282 -0.0816 -0.2536 -0.0584
32938ION     NA49072  15.802   4.128   6.045 -0.2373 -0.3423  0.2698
32939ION     NA49073   0.170   2.421   5.858 -0.2616 -0.0835  0.1490
32940ION     NA49074   2.917   0.175   5.958 -0.0303 -0.1829  0.1694
32941ION     NA49075  17.104  13.672   5.877  0.1897 -0.1062 -0.0289
32942ION     NA49076   5.777  14.519   4.956 -0.2725 -0.0018 -0.0206
32943ION     NA49077   5.963   3.475  13.888  0.0999 -0.0680  0.2691
32944ION     NA49078  14.339   0.228  15.973  0.0312  0.2695 -0.2939
32945ION     NA49079   0.277  15.439  16.188  0.2636  0.0712 -0.1112
32946ION     NA49080   9.865   9.597   6.238 -0.0509  0.1044  0.3007
32947ION     NA49081  15.157  12.998   3.835 -0.2000 -0.1428 -0.1059
32948ION     NA49082  13.851   4.631  13.325  0.1743 -0.3398 -0.1530
32949ION     NA49083   8.141  13.651   3.777  0.3364 -0.0739  0.1630
32950ION     NA49084   6.098  17.876  16.083  0.1342  0.1699  0.0062
32951ION     NA49085   4.893  12.428   0.071  0.0420  0.0381 -0.1184
32952ION     NA49086  10.975   6.999   1.610  0.2316  0.1559 -0.1302
32953ION     NA49087  11.004  10.893   6.236 -0.1897  0.0542  0.2441
32954ION     NA49088   8.227   3.381  15.983 -0.2810  0.2443 -0.0953
32955ION     NA49089   1.273   2.308  10.681  0.3307  0.1037  0.3644
32956ION     NA49090  14.338   5.496   2.375 -0.1225  0.2140  0.1891
32957ION     NA49091   4.461   7.154   4.852 -0.1297  0.0828 -0.0270
32958ION     NA49092   4.147  15.425  16.201 -0.2241 -0.0129  0.2892
32959ION     NA49093   9.596  15.050   6.092 -0.1167 -0.1606 -0.0065
32960ION     NA49094  16.735  16.460   5.779  0.1758 -0.2086 -0.0108
32961ION     NA49095  15.682   7.471   1.123  0.2277 -0.4193  0.4002
32962ION     NA49096  11.158  17.423   5.939 -0.1064  0.0028 -0.1230
32963ION     NA49097   7.205   6.385   4.286 -0.1134 -0.0470  0.0692
32964ION     NA49098   5.227  17.019  10.377 -0.1795  0.1293  0.3029
32965ION     NA49099   6.436   9.194  10.711 -0.0458  0.2140  0.1667
32966ION     NA49100  15.026  18.027  15.035 -0.0737 -0.1128  0.0432
32967ION     NA49101   6.127   8.791   2.136 -0.0818 -0.2644 -0.0862
32968ION     NA49102   0.673   0.049  12.509  0.1583  0.0475  0.2344
32969ION     NA49103  10.242  11.796  10.778  0.1251  0.1599 -0.2749
32970ION     NA49104  17.575  16.636  15.705 -0.0161  0.3652 -0.3826
32971ION     NA49105  16.509  13.419  10.662 -0.0470 -0.1651  0.1844
32972ION     NA49106  13.827  17.434   2.587  0.3257  0.0043  0.1452
32973ION     NA49107   5.308   6.523   6.128  0.2014 -0.1775  0.4509
32974ION     NA49108  13.807  12.642  15.695 -0.1684 -0.4433  0.0251
32975ION     NA49109   4.617   2.909  16.263 -0.2329  0.0045 -0.4196
32976ION     NA49110   3.400   8.738  15.935 -0.0271 -0.0532  0.2567
32977ION     NA49111  15.231   9.559   3.686  0.2421  0.2412 -0.1535
32978ION     NA49112   1.570   9.063  15.225  0.0036 -0.1431  0.0923
32979ION     NA49113   1.655  10.218  11.678 -0.3571 -0.1033  0.1087
32980ION     NA49114   9.810   3.542   0.296  0.1240  0.0832  0.3688
32981ION     NA49115  14.674   5.548  14.225  0.2982 -0.0121  0.0264
32982ION     NA49116   6.981  11.372   4.819  0.0012  0.0113  0.2420
32983ION     NA49117  17.149   9.858  10.238 -0.2691  0.3329  0.0380
32984ION     NA49118   5.261  11.526   0.116  0.0657 -0.0072 -0.2993
32985ION     NA49119  17.094   4.788  13.843 -0.0749  0.0482  0.1162
32986ION     NA49120   6.976   4.345  10.231  0.3640  0.2792 -0.2740
32987ION     NA49121  15.039  14.814  14.300 -0.1277  0.1380 -0.0632
32988ION     NA49122   2.592   2.108   2.793  0.2798 -0.0875 -0.0123
32989ION     NA49123  11.135  12.572  10.491  0.0914  0.2416 -0.2381
32990ION     NA49124  17.327  12.147  13.285  0.1312  0.1530  0.4602
32991ION     NA49125  15.473   3.133   3.977 -0.2390  0.4134  0.1423
32992ION     NA49126   4.680  16.569  10.597 -0.2720  0.2478  0.0262
32993ION     NA49127   6.821   9.982   0.249 -0.1894 -0.2317 -0.1914
32994ION     NA49128   1.376  10.429  10.469  0.0184  0.0328  0.1801
32995ION     NA49129   5.005   5.653   2.796 -0.0917 -0.0169 -0.0657
32996ION     NA49130  10.875  13.052  13.169  0.1117 -0.0280  0.1610
32997ION     NA49131  16.836   7.630  16.254 -0.0523  0.0188 -0.2317
32998ION     NA49132   5.237   8.007  10.602  0.1945  0.1566  0.0651
32999ION     NA49133   9.197   7.047   1.639  0.1151 -0.0994  0.0315
33000ION     NA49134  15.109   8.371   2.979 -0.3102  0.2314 -0.0413
33001ION     NA49135  10.558  10.083   1.439  0.1140 -0.0416 -0.1237
33002ION     NA49136   9.505  12.475  10.761 -0.1559  0.1604 -0.1980
33003ION     NA49137  13.932   4.258   1.973  0.1872  0.2917 -0.3119
33004ION     NA49138  12.235   2.884  15.449  0.0625 -0.0572 -0.1930
33005ION     NA49139   7.566   3.126  10.469  0.1393  0.2103 -0.1789
33006ION     NA49140   6.195   5.869  12.654 -0.0277  0.1055 -0.0011
33007ION     NA49141   6.979   0.996  10.429 -0.1084 -0.0846 -0.1009
33008ION     NA49142  10.753  17.302  12.389 -0.1383  0.1445 -0.0159
33009ION     NA49143   0.900  10.956  15.756  0.0161  0.0011 -0.0125
33010ION     NA49144  12.351   0.549   4.509 -0.1269 -0.0876 -0.1155
33011ION     NA49145   8.273   7.091  10.873 -0.2680  0.1592 -0.0806
33012ION     NA49146   7.249   0.163  13.165 -0.1057 -0.2041  0.2513
33013ION     NA49147  12.457  15.847   5.807 -0.1202  0.4050  0.1568
33014ION     NA49148   6.868   4.636   4.473 -0.1759  0.0065  0.0922
33015ION     NA49149   8.138  12.487   1.505 -0.0353 -0.2208 -0.0753
33016ION     NA49150  13.430   5.725  10.827  0.0692 -0.3773 -0.1648
33017ION     NA49151   2.550   2.565   4.595  0.2964 -0.0154  0.0638
33018ION     NA49152   6.819  17.384   5.764 -0.0250  0.3898  0.0305
33019ION     NA49153   9.843  12.156   5.399 -0.4172  0.2528  0.0512
33020ION     NA49154  17.442  16.795   3.129 -0.2404  0.2493 -0.1340
33021ION     NA49155  15.182  14.911  10.882 -0.0187 -0.0699  0.0139
33022ION     NA49156   6.038  16.281  10.443  0.0137 -0.2244  0.2114
33023ION     NA49157   7.365  14.225  13.620  0.0229  0.1168  0.0814
33024ION     NA49158  12.056  14.235   0.560 -0.0434  0.1162 -0.0723
33025ION     NA49159  13.323   6.065  14.612 -0.0288  0.1346  0.2980
33026ION     NA49160  17.437   9.613   0.520 -0.1313  0.2508  0.2063
33027ION     NA49161   0.524  12.753   4.111 -0.1850  0.0350  0.0356
33028ION     NA49162  11.516   2.744  13.072 -0.3159  0.2461 -0.1368
33029ION     NA49163  11.862   4.832   2.511 -0.0382  0.1110  0.1411
33030ION     NA49164   1.326  16.916   5.684 -0.3222 -0.0600 -0.0731
33031ION     NA49165  12.855  13.618   0.902  0.1255 -0.1093 -0.0703
33032ION     NA49166   6.362   5.670  10.419 -0.1744  0.3356 -0.2796
33033ION     NA49167  12.455  13.779  10.650 -0.1008 -0.1945 -0.0365
33034ION     NA49168  12.828  14.685  13.722  0.0204  0.0551  0.3262
33035ION     NA49169  13.678   7.648   0.769  0.3803  0.0213  0.0031
33036ION     NA49170  12.033  13.742  10.344  0.0430  0.0661  0.2927
33037ION     NA49171  15.217  15.392   1.878 -0.3632  0.3154 -0.1797
33038ION     NA49172   5.856   7.992   5.002  0.0298 -0.2758 -0.1010
33039ION     NA49173  14.335  14.688  10.477  0.0659 -0.0215 -0.3465
33040ION     NA49174   1.355   8.235  15.750 -0.0434  0.1018 -0.5033
33041ION     NA49175  12.022   1.004  12.741 -0.0692  0.1184 -0.1231
33042ION     NA49176  13.385  14.271  10.609 -0.1859 -0.2858 -0.1505
33043ION     NA49177   2.609  11.410  12.566 -0.3044  0.0485 -0.1576
33044ION     NA49178   3.640  13.903  10.710 -0.0450  0.2041  0.0325
33045ION     NA49179   3.654   0.638   4.054  0.3457 -0.1819  0.1190
33046ION     NA49180   7.562   3.690   5.365 -0.0668 -0.0504  0.4258
33047ION     NA49181   7.377   6.305  15.524  0.0711 -0.0583 -0.2497
33048ION     NA49182   2.923   8.512   6.047  0.1997 -0.2398  0.2094
33049ION     NA49183  10.735   1.903  15.865  0.0383 -0.2202 -0.0773
33050ION     NA49184  13.759   2.783   5.808  0.2310  0.0488 -0.3278
33051ION     NA49185   4.989   6.162  14.364  0.1748  0.0685  0.2299
33052ION     NA49186  12.540   8.882  11.926 -0.1887 -0.2099  0.2173
33053ION     NA49187   7.960   7.504  11.726  0.2199  0.1059  0.0241
33054ION     NA49188   8.723  14.118   1.231  0.0951 -0.2468 -0.1665
33055ION     NA49189   3.372  15.214   3.749  0.0456  0.0864 -0.5009
33056ION     NA49190  15.402  11.524  13.095  0.0224  0.1177 -0.1435
33057ION     NA49191  17.172   6.623  12.705  0.1700 -0.1989 -0.1847
33058ION     NA49192  14.281   2.211   2.468 -0.2099  0.1953  0.3914
33059ION     NA49193   4.426   3.811  10.270 -0.4447  0.1425  0.0332
33060ION     NA49194   3.226  17.334  10.652 -0.1291  0.1090 -0.1839
33061ION     NA49195  11.745  16.089   1.052  0.0144 -0.1574  0.4578
33062ION     NA49196  11.983   6.113   3.309 -0.0549  0.0157 -0.0714
33063ION     NA49197   4.997   3.557  12.753  0.5829  0.0034 -0.1522
33064ION     NA49198  10.696   6.854  15.207 -0.2867  0.0680 -0.1254
33065ION     NA49199   8.404  14.045   4.377  0.0033 -0.0510 -0.1108
33066ION     NA49200  15.730   2.364  10.131 -0.1396 -0.2218 -0.2224
33067ION     NA49201   7.418  15.602  10.301  0.0297  0.0706  0.0636
33068ION     NA49202   2.855   6.672   5.673  0.1031 -0.2112 -0.0564
33069ION     NA49203   7.269   4.716   0.052  0.2766  0.3050 -0.3473
33070ION     NA49204   7.134   1.478  14.500  0.0415  0.5208 -0.2420
33071ION     NA49205   9.121  13.134  14.709  0.0271 -0.0753 -0.0108
33072ION     NA49206   4.819   8.226   5.898  0.2112  0.1469  0.0010
33073ION     NA49207   6.683   2.255  13.748 -0.0148 -0.2650 -0.2897
33074ION     NA49208  15.980  11.242   5.984  0.2670 -0.0858  0.1588
33075ION     NA49209   8.423   4.260  10.464  0.0358 -0.0106 -0.0270
33076ION     NA49210   0.781  12.091  10.298  0.2185 -0.3000 -0.3654
33077ION     NA49211   2.401   1.620   4.259  0.0630  0.1289  0.0425
33078ION     NA49212   7.276   8.957  15.985  0.1557 -0.0113  0.3043
33079ION     NA49213   6.102  14.596   5.808 -0.1758  0.0923  0.0710
33080ION     NA49214  16.542  12.340   6.296 -0.0253  0.2250  0.3932
33081ION     NA49215  16.548  16.436  12.758 -0.1327 -0.1548  0.0298
33082ION     NA49216   6.708  13.219  12.548  0.1599  0.2060 -0.1493
33083ION     NA49217  15.840   5.761  10.314 -0.0253 -0.2850  0.2740
33084ION     NA49218  12.110  11.128   1.345 -0.1797 -0.0394 -0.2788
33085ION     NA49219  10.880   1.052   5.246  0.0224  0.1092  0.0276
33086ION     NA49220   8.107   7.911  10.613 -0.2964 -0.2111 -0.1017
33087ION     NA49221  16.155   7.099   3.482 -0.1476 -0.1601 -0.4424
33088ION     NA49222  10.748   2.457   4.304  0.0140 -0.0868 -0.0974
33089ION     NA49223   9.143  10.033   2.712  0.2640  0.1831  0.0153
33090ION     NA49224  16.309  16.048  10.923  0.1300  0.0161  0.1256
33091ION     NA49225   9.762   8.351  13.846  0.1596 -0.1788  0.1970
33092ION     NA49226  16.979  16.372   2.009 -0.0139  0.1256  0.2857
33093ION     NA49227  15.575   5.245   5.572  0.0662  0.2989 -0.1591
33094ION     NA49228  13.109  12.329   2.529 -0.0792  0.1306  0.3632
33095ION     NA49229  17.071   6.246  13.440  0.1241 -0.3184 -0.0858
33096ION     NA49230   3.013   8.708  12.051 -0.1359  0.0415  0.3454
33097ION     NA49231   0.360  12.405  15.939  0.1207 -0.0896 -0.0315
33098ION     NA49232   1.679  13.113  14.417  0.0331  0.1585  0.1184
33099ION     NA49233   5.353  14.108   0.077 -0.1078 -0.0986 -0.2153
33100ION     NA49234   2.107   1.450  14.848  0.0795 -0.2338  0.2869
33101ION     NA49235   8.103  11.740   0.213 -0.2155 -0.0441  0.2994
33102ION     NA49236   2.460   7.793  10.656 -0.1393 -0.0394  0.2348
33103ION     NA49237  14.789  11.095  11.893  0.2359  0.2807 -0.0567
33104ION     NA49238   8.323  17.175   5.820  0.1170 -0.0297  0.1267
33105ION     NA49239  11.986  12.258  10.237  0.0931 -0.1300 -0.3135
33106ION     NA49240   0.036   3.185  13.974  0.2460 -0.0613 -0.0712
33107ION     NA49241  13.853  14.608   0.812 -0.2183  0.2889  0.4540
33108ION     NA49242   7.341  13.941   6.050  0.0881  0.0375 -0.0941
33109ION     NA49243   8.516   1.266  16.313 -0.3269  0.1816  0.1255
33110ION     NA49244   0.815   5.047  14.770  0.0224  0.1142 -0.3420
33111ION     NA49245  14.063  10.884  15.400  0.0196 -0.0219 -0.4092
33112ION     NA49246  10.189   5.908   5.784  0.2395  0.2361 -0.0063
33113ION     NA49247  14.207   8.436   5.298  0.0610  0.0034  0.0110
33114ION     NA49248  11.549   2.761   2.790 -0.0497 -0.1617  0.1855
33115ION     NA49249   9.364   6.352  10.676  0.2198  0.1444  0.1722
33116ION     NA49250  17.143   4.929   1.914 -0.0308  0.2936 -0.0265
33117ION     NA49251  14.614   3.999   5.340 -0.0431  0.0818  0.0654
33118ION     NA49252   0.276  10.189  14.743 -0.2169 -0.0200  0.1755
33119ION     NA49253   7.957   5.573  15.771  0.2930  0.0662  0.0826
33120ION     NA49254  14.386   5.174  16.015  0.1713 -0.2788  0.0246
33121ION     NA49255   8.571   1.337  14.086  0.1240  0.1261 -0.0462
33122ION     NA49256  16.844  12.520   2.516 -0.2496 -0.1168  0.1212
33123ION     NA49257   3.590  17.671  15.097  0.2173  0.0789 -0.3539
33124ION     NA49258  16.857  12.666  15.504 -0.0827 -0.2968  0.2902
33125ION     NA49259  11.761  16.165  10.634  0.1597  0.3132  0.0187
33126ION     NA49260   0.635   4.267  15.901  0.0073 -0.0519 -0.0924
33127ION     NA49261  11.400  11.767   5.484 -0.2984 -0.0809 -0.0966
33128ION     NA49262   0.423   9.131  15.300  0.4109 -0.1751 -0.1913
33129ION     NA49263   7.870   1.695   5.413 -0.1996  0.3089  0.0031
33130ION     NA49264   6.978  13.689   1.240  0.1435  0.3931  0.1314
33131ION     NA49265   9.759   9.270   2.856 -0.1718  0.1000 -0.0225
33132ION     NA49266  16.055   7.177   5.356 -0.3036 -0.0018  0.1330
33133ION     NA49267  12.173  15.876  15.533 -0.1490 -0.0071  0.1395
33134ION     NA49268   0.614   4.342  13.568  0.0221  0.0191 -0.2413
33135ION     NA49269  14.582  11.581   5.338  0.0477 -0.0920 -0.1153
33136ION     NA49270   7.518   3.073   2.963 -0.1726  0.0806  0.0803
33137ION     NA49271  16.439   2.960  10.167  0.0612 -0.0665  0.3474
33138ION     NA49272   5.739   3.702   5.990  0.1849 -0.1401  0.0086
33139ION     NA49273  16.626  12.827   4.566  0.2148 -0.3199 -0.1004
33140ION     NA49274  12.306  11.238  10.536 -0.1648  0.2581 -0.2335
33141ION     NA49275  10.100   9.868  15.771  0.0011  0.4298 -0.2517
33142ION     NA49276  11.243  10.568   4.318  0.0140  0.3636  0.1906
33143ION     NA49277   6.324  11.301   0.107 -0.1738 -0.1605 -0.0258
33144ION     NA49278   8.493  17.131  12.416  0.1264  0.2259 -0.4047
33145ION     NA49279  10.733  12.994  16.174  0.1780 -0.0448 -0.1503
33146ION     NA49280   6.790   1.856   0.884 -0.0676  0.2861  0.1724
33147ION     NA49281  16.292  11.465   1.781 -0.0532  0.2249  0.0390
33148ION     NA49282   5.283  14.669  10.490  0.3893 -0.1177  0.2662
33149ION     NA49283   8.023   8.706  10.802 -0.0815 -0.1559 -0.0868
33150ION     NA49284  15.225  11.355   2.162 -0.2441 -0.1864 -0.1269
33151ION     NA49285   4.243   2.889   6.055 -0.4243  0.0374 -0.0422
33152ION     NA49286   4.977  10.943  10.466 -0.1500 -0.1081  0.2222
33153ION     NA49287   6.526  10.364   1.320  0.0983  0.1054  0.1731
33154ION     NA49288   4.941  10.101  15.627  0.0127 -0.0349  0.1534
33155ION     NA49289   2.635   5.689   5.832 -0.1130 -0.0492  0.0592
33156ION     NA49290   6.880   2.722  12.370  0.0045  0.0890  0.2627
33157ION     NA49291   1.025  11.240  13.303  0.0561 -0.3220 -0.0705
33158ION     NA49292   2.905  10.285   5.871 -0.2984 -0.4027  0.2909
33159ION     NA49293  13.460   4.777   3.678 -0.0580 -0.2451 -0.0091
33160ION     NA49294   3.269   7.382   0.592 -0.1215  0.1444 -0.3432
33161ION     NA49295   5.864   0.861   0.866 -0.1701 -0.2279 -0.3259
33162ION     NA49296  10.141  15.735   2.894  0.1690 -0.2667  0.1907
33163ION     NA49297  16.835  16.076  14.071  0.1236 -0.0591  0.1583
33164ION     NA49298   9.098   7.012   0.670 -0.1033  0.2073  0.5131
33165ION     NA49299   1.997  10.938   0.730 -0.1403  0.2213 -0.2011
33166ION     NA49300   8.397   9.633  10.790  0.3174 -0.0464 -0.0696
33167ION     NA49301  15.278   7.340  14.177  0.1387 -0.4413 -0.0122
33168ION     NA49302  13.780  10.874   5.866 -0.1628  0.0857 -0.0895
33169ION     NA49303  11.263   6.131  10.821 -0.3239 -0.0970 -0.1543
33170ION     NA49304   9.334  12.797   2.480 -0.2238 -0.0066 -0.0792
33171ION     NA49305  14.430  10.446   0.828  0.0432 -0.0326 -0.0075
33172ION     NA49306   3.313  10.915   6.211  0.4364 -0.2963  0.0727
33173ION     NA49307  15.220  15.818   5.945  0.1983 -0.0065  0.0613
33174ION     NA49308  16.970   5.791   5.387 -0.1611 -0.3417 -0.2514
33175ION     NA49309   5.553  11.579   6.286 -0.0411  0.0636 -0.1636
33176ION     NA49310   5.079   0.732   1.508  0.3066 -0.2471  0.3435
33177ION     NA49311   8.683  11.792   6.244 -0.0430 -0.1142  0.4418
33178ION     NA49312  16.831  17.742  15.806 -0.2439 -0.2296 -0.1360
33179ION     NA49313   2.176   3.258  14.940  0.2650 -0.0551 -0.0159
33180ION     NA49314   4.244   3.501   2.167 -0.2739  0.3331  0.1282
33181ION     NA49315  16.855  10.212  15.412  0.1459 -0.1082  0.1388
33182ION     NA49316   3.810  13.484   5.615 -0.1190 -0.0306  0.1766
33183ION     NA49317  11.327   4.173   5.815  0.0928  0.0818 -0.0844
33184ION     NA49318   3.014   0.840   2.271 -0.0803  0.0936 -0.0557
33185ION     NA49319   4.957   3.643   6.097  0.1044  0.0070 -0.1537
33186ION     NA49320   7.334   0.084  10.321  0.0725 -0.0944  0.2682
33187ION     NA49321   5.376  14.674  12.304  0.0737 -0.3445 -0.0222
33188ION     NA49322   5.962   1.724  12.801  0.3798 -0.0330  0.0768
33189ION     NA49323  10.080   8.247   5.913  0.0681  0.1445  0.2369
33190ION     NA49324   5.627  15.194  10.496  0.1985  0.0659  0.1229
33191ION     NA49325   8.129   3.336   1.957  0.4979  0.3204  0.2375
33192ION     NA49326   5.951  10.495  14.851 -0.2044 -0.1466 -0.4145
33193ION     NA49327   0.012  11.218   5.823 -0.1003  0.0491  0.0430
33194ION     NA49328  11.283  15.667  14.313  0.2189  0.2453 -0.0886
33195ION     NA49329  17.346  12.646   0.610  0.0558  0.1684 -0.2545
33196ION     NA49330   6.508   5.638  11.936  0.0528 -0.0364 -0.1646
33197ION     NA49331   6.541  11.261   1.017 -0.1024 -0.0670 -0.1049
33198ION     NA49332   5.757   2.721  10.623 -0.0925 -0.0876 -0.0456
33199ION     NA49333   5.599   4.294  14.406  0.0678  0.0170 -0.1372
33200ION     NA49334  11.301   5.707   6.017 -0.0847  0.2479 -0.3216
33201ION     NA49335   6.026  17.174   5.867  0.1151 -0.2610 -0.0768
33202ION     NA49336  11.827   2.680   1.524  0.1999 -0.0879  0.0844
33203ION     NA49337   1.957   0.632   1.258 -0.0079 -0.2417 -0.2345
33204ION     NA49338   5.917   1.981   1.423  0.1845  0.0911  0.2001
33205ION     NA49339   5.121   5.187  13.735  0.1086  0.3898  0.0523
33206ION     NA49340  13.809   7.358  15.845 -0.0825  0.2444 -0.1538
33207ION     NA49341   4.251  10.384   2.754 -0.1313  0.0832  0.3932
33208ION     NA49342  15.372   2.240  16.017 -0.0185 -0.1184  0.1073
33209ION     NA49343  15.295  16.605  14.137  0.2073  0.1073 -0.2538
33210ION     NA49344   3.702   7.915   0.081  0.1974  0.3507  0.0350
33211ION     NA49345  12.380  11.901  13.401 -0.3313 -0.3097 -0.4546
33212ION     NA49346   4.274  10.128  12.763  0.1628 -0.1419 -0.2516
33213ION     NA49347  10.710  13.756  15.584  0.1494  0.1150  0.0761
33214ION     NA49348  15.080  13.702  12.775  0.1043  0.0144 -0.1521
33215ION     NA49349  17.115  18.007   3.241  0.2199 -0.0381  0.0083
33216ION     NA49350  10.235   9.612  13.845 -0.1376  0.1211 -0.0361
33217ION     NA49351  14.722   9.932  14.191  0.0242 -0.0327  0.1102
33218ION     NA49352  14.330   4.271  15.980 -0.0331 -0.1198 -0.0726
33219ION     NA49353  17.280   1.635  12.687 -0.2941  0.1223  0.1295
33220ION     NA49354   8.313   4.148   5.676 -0.0962  0.1881 -0.2239
33221ION     NA49355  13.409  17.015  14.908  0.0299 -0.1121 -0.0668
33222ION     NA49356   6.725  13.471  13.888  0.0142 -0.0782 -0.0121
33223ION     NA49357  13.903   0.746  10.772 -0.0137  0.3997 -0.2277
33224ION     NA49358   9.780  16.536   2.610 -0.2024 -0.2153  0.2971
33225ION     NA49359  12.989   7.125  10.775  0.1740  0.3350  0.0513
33226ION     NA49360   2.621   8.937   3.020 -0.0842 -0.0914 -0.1585
33227ION     NA49361   0.909  12.289  14.563  0.2589  0.2777  0.2001
33228ION     NA49362  14.714  14.473   6.300  0.3151  0.1846 -0.2062
33229ION     NA49363   2.144   6.561  15.888  0.1354 -0.1933  0.1301
33230ION     NA49364  10.789  10.439  10.632  0.0765  0.0811  0.0593
33231ION     NA49365  10.431   2.819   5.588 -0.1132  0.1161 -0.0780
33232ION     NA49366   3.377   8.404   3.796 -0.0281  0.0275 -0.2128
33233ION     NA49367  11.335   8.122  13.567 -0.3279  0.3211  0.0962
33234ION     NA49368   6.360   2.891   2.879 -0.2160 -0.0983 -0.1424
33235ION     NA49369  14.505  15.087  12.674 -0.1713  0.4129  0.0966
33236ION     NA49370   5.255   8.527   0.482  0.2633 -0.4060 -0.0097
33237ION     NA49371  13.319  13.006  14.328 -0.2010 -0.2664 -0.2168
33238ION     NA49372   9.444   7.509   5.779  0.0224 -0.2193  0.1250
33239ION     NA49373  12.911   3.138   5.885 -0.0375  0.1497  0.0743
33240ION     NA49374   1.686   6.195   0.385 -0.0152 -0.2573  0.0142
33241ION     NA49375  15.152   0.921   1.914 -0.1580 -0.2262  0.0386
33242ION     NA49376  10.332  10.230  12.464  0.1553  0.2932 -0.2970
33243ION     NA49377  11.604   7.335   5.797 -0.3532 -0.1127 -0.1563
  18.09423  18.09423  16.41423
