INSANE! Membrane UpperLeaflet>loPI:POPI:DPPI:PYPI:ERGO=80.0:5.0:3.0:2.0:10.0 LowerLeaflet>PSPI:POPI:POPS:YOPS:POPE:YOPE:POPC:YOPC:ERGO=6.0:14.0:21.0:9.0:9.0:21.0:12.0:48.0:60.0
49377
    1loPI    C1    1  14.818   2.580   9.878 -0.0246  0.0439 -0.0617
    1loPI    C2    2  14.918   2.673  10.254 -0.0085  0.2270 -0.1104
    1loPI    C3    3  14.569   2.797  10.103 -0.2150 -0.2189 -0.0148
    1loPI   PO4    4  15.005   2.499   9.742 -0.0478 -0.0915 -0.0802
    1loPI   GL1    5  15.086   2.475   9.331  0.2407  0.3824 -0.1301
    1loPI   GL2    6  15.223   2.179   9.347  0.0868 -0.1948  0.0829
    1loPI   C1A    7  15.046   2.385   8.821  0.3031 -0.2063  0.1890
    1loPI   C2A    8  14.993   2.217   8.426  0.1848 -0.0916 -0.3220
    1loPI   C3A    9  15.264   2.126   8.083 -0.0976  0.1941 -0.3707
    1loPI   C4A   10  15.299   2.193   7.683  0.1704 -0.1160 -0.0733
    1loPI   C5A   11  15.712   2.312   7.474  0.4031 -0.0804  0.1531
    1loPI   C6A   12  16.098   2.234   7.221  0.2213  0.0231  0.2877
    1loPI   C1B   13  15.218   1.907   9.019  0.1077 -0.0984  0.0126
    1loPI   C2B   14  15.344   1.865   8.575 -0.1201 -0.0818 -0.1975
    1loPI   C3B   15  15.520   1.639   8.192  0.2717 -0.1862 -0.0621
    1loPI   C4B   16  15.809   1.500   7.799 -0.0265 -0.1999 -0.0114
    2loPI    C1   17  15.243  14.126  10.354  0.0628  0.0757  0.0623
    2loPI    C2   18  15.437  13.789  10.259 -0.0709 -0.0646  0.2764
    2loPI    C3   19  15.086  13.770  10.451 -0.1911  0.1922  0.0881
    2loPI   PO4   20  15.275  14.316  10.145  0.1639 -0.1583 -0.0126
    2loPI   GL1   21  15.220  13.979   9.823 -0.0106 -0.0490 -0.0333
    2loPI   GL2   22  15.416  13.645   9.786 -0.2732  0.0790  0.3015
    2loPI   C1A   23  15.010  14.171   9.462  0.2579  0.1413  0.0692
    2loPI   C2A   24  14.715  14.383   9.409 -0.0030 -0.1425  0.0848
    2loPI   C3A   25  14.393  14.499   9.059 -0.1051  0.1283 -0.0744
    2loPI   C4A   26  14.193  14.786   8.747 -0.0659 -0.2120 -0.2559
    2loPI   C5A   27  14.179  15.079   8.516  0.1079 -0.1261 -0.0265
    2loPI   C6A   28  13.866  15.436   8.381 -0.2570 -0.4020 -0.1247
    2loPI   C1B   29  15.404  13.841   9.422  0.1938 -0.2780 -0.0560
    2loPI   C2B   30  15.271  13.954   9.048  0.1493  0.1941  0.1563
    2loPI   C3B   31  14.954  14.272   8.941  0.1904 -0.3449 -0.3409
    2loPI   C4B   32  14.746  14.594   8.697  0.1750  0.0767 -0.0615
    3loPI    C1   33   0.973   8.045  10.347  0.0886 -0.1092 -0.0007
    3loPI    C2   34   0.583   8.121  10.301  0.0696 -0.1625  0.0718
    3loPI    C3   35   0.751   8.145  10.664  0.1474 -0.0771  0.0306
    3loPI   PO4   36   0.960   7.755  10.124 -0.1545 -0.0464  0.0338
    3loPI   GL1   37   1.217   7.746   9.757  0.0783 -0.0617  0.0172
    3loPI   GL2   38   1.509   7.888   9.623  0.0531 -0.2340  0.1552
    3loPI   C1A   39   1.046   7.536   9.414  0.0497  0.0512 -0.1863
    3loPI   C2A   40   1.101   7.749   9.023  0.1397 -0.0661  0.2396
    3loPI   C3A   41   0.900   7.920   8.682  0.0208 -0.0990 -0.1770
    3loPI   C4A   42   0.868   7.947   8.252 -0.1754 -0.4788  0.0651
    3loPI   C5A   43   0.937   7.755   7.911  0.1626 -0.1627 -0.1652
    3loPI   C6A   44   1.284   7.697   7.660 -0.1248  0.2079 -0.0893
    3loPI   C1B   45   1.524   7.776   9.243  0.2773 -0.0740  0.3894
    3loPI   C2B   46   1.571   8.001   8.987  0.5306  0.0042  0.3065
    3loPI   C3B   47   1.379   8.123   8.628 -0.4171 -0.1183  0.1932
    3loPI   C4B   48   1.527   8.264   8.269  0.1357 -0.2962 -0.4130
    4loPI    C1   49   4.196  14.525  10.333  0.3476  0.1279  0.4140
    4loPI    C2   50   4.051  14.685  10.670 -0.2613 -0.0710  0.2591
    4loPI    C3   51   4.175  14.305  10.667 -0.2036 -0.0523  0.2716
    4loPI   PO4   52   3.985  14.584  10.058  0.1641  0.1248 -0.1562
    4loPI   GL1   53   3.990  14.691   9.584 -0.2228  0.1631  0.0587
    4loPI   GL2   54   4.327  14.809   9.374 -0.0241 -0.0907 -0.2611
    4loPI   C1A   55   3.917  14.775   9.149  0.2024  0.0462  0.1200
    4loPI   C2A   56   3.887  14.565   8.697 -0.4140  0.4534  0.4918
    4loPI   C3A   57   3.480  14.625   8.441  0.2448 -0.0929  0.2703
    4loPI   C4A   58   3.298  14.832   8.036 -0.0330 -0.0149 -0.3587
    4loPI   C5A   59   3.178  14.934   7.705 -0.0511  0.1190  0.0185
    4loPI   C6A   60   3.295  14.737   7.354  0.1929 -0.2892  0.0558
    4loPI   C1B   61   4.361  14.751   8.878  0.1722  0.2744 -0.0729
    4loPI   C2B   62   4.307  14.851   8.530 -0.1967  0.1094  0.0308
    4loPI   C3B   63   4.644  15.223   8.347 -0.1615 -0.1868  0.1105
    4loPI   C4B   64   4.767  15.408   7.918  0.0130 -0.3595 -0.1622
    5loPI    C1   65  13.513   1.927  10.725  0.0011  0.0361 -0.0409
    5loPI    C2   66  13.147   1.770  10.758  0.0980 -0.1164  0.3630
    5loPI    C3   67  13.220   2.139  10.894  0.0222  0.0392 -0.0080
    5loPI   PO4   68  13.535   1.834  10.438 -0.2162 -0.1365 -0.0017
    5loPI   GL1   69  13.449   2.072  10.023  0.1397 -0.0226  0.5071
    5loPI   GL2   70  13.649   1.775   9.925  0.1515  0.0310 -0.6463
    5loPI   C1A   71  13.555   2.207   9.574  0.0766  0.4564 -0.0933
    5loPI   C2A   72  13.678   2.168   9.151 -0.1099 -0.1191  0.3643
    5loPI   C3A   73  13.607   2.033   8.674 -0.1561 -0.0480 -0.1802
    5loPI   C4A   74  13.650   2.233   8.188 -0.0469  0.1736  0.0142
    5loPI   C5A   75  13.893   2.475   7.912 -0.0061  0.1788 -0.1204
    5loPI   C6A   76  14.273   2.676   7.987  0.0244  0.1268 -0.0984
    5loPI   C1B   77  13.751   1.664   9.499 -0.1078  0.2094  0.1844
    5loPI   C2B   78  13.984   1.364   9.179  0.3990  0.0375  0.0257
    5loPI   C3B   79  14.024   1.228   8.722 -0.1857 -0.2834 -0.1626
    5loPI   C4B   80  14.154   0.960   8.347  0.0424  0.4621 -0.4280
    6loPI    C1   81   1.249  18.662  10.184  0.0561  0.0954  0.0224
    6loPI    C2   82   1.365  18.467  10.514 -0.0084  0.0559  0.0219
    6loPI    C3   83   1.080  18.748  10.537  0.0573  0.1233  0.0162
    6loPI   PO4   84   1.496  18.773  10.095 -0.2089 -0.3716 -0.1837
    6loPI   GL1   85   1.701  18.869   9.881 -0.3177 -0.0268  0.0193
    6loPI   GL2   86   1.825  18.584   9.773  0.2122 -0.3982 -0.2628
    6loPI   C1A   87   1.735  19.063   9.474 -0.2114 -0.1917 -0.0249
    6loPI   C2A   88   1.694  19.030   8.999  0.0131 -0.2013 -0.1967
    6loPI   C3A   89   1.620  18.934   8.587 -0.2107  0.1392 -0.1364
    6loPI   C4A   90   1.542  18.968   8.161 -0.2819 -0.0226 -0.1774
    6loPI   C5A   91   1.259  19.145   7.920  0.2404  0.1373 -0.1603
    6loPI   C6A   92   1.222  19.370   7.491  0.0309 -0.2236 -0.1152
    6loPI   C1B   93   2.085  18.680   9.533  0.2393  0.0943 -0.2698
    6loPI   C2B   94   2.012  18.665   9.133  0.3578  0.2566  0.0368
    6loPI   C3B   95   2.072  18.788   8.756  0.3521 -0.1389  0.2558
    6loPI   C4B   96   2.116  19.021   8.371  0.3419  0.2150 -0.1014
    7loPI    C1   97   6.653   1.869   9.925  0.2301  0.1268 -0.1351
    7loPI    C2   98   6.951   1.676  10.109 -0.0315 -0.1183  0.0402
    7loPI    C3   99   6.658   1.469   9.932 -0.0321  0.1196 -0.2450
    7loPI   PO4  100   6.787   2.099   9.774 -0.1704 -0.2593  0.1746
    7loPI   GL1  101   6.953   2.009   9.302  0.0630 -0.0553  0.0686
    7loPI   GL2  102   7.283   1.835   9.254  0.0309 -0.1706 -0.1414
    7loPI   C1A  103   6.976   2.060   8.850  0.0073  0.1056  0.1793
    7loPI   C2A  104   6.989   1.942   8.392  0.0435 -0.0024 -0.0092
    7loPI   C3A  105   7.060   1.763   7.966 -0.0565  0.3686  0.0881
    7loPI   C4A  106   7.399   1.655   7.676  0.0897  0.1354  0.2196
    7loPI   C5A  107   7.857   1.553   7.593  0.0605  0.1344 -0.2198
    7loPI   C6A  108   8.167   1.159   7.581 -0.2458 -0.0490 -0.4235
    7loPI   C1B  109   7.453   1.948   8.919  0.1823  0.0555 -0.3857
    7loPI   C2B  110   7.512   1.858   8.399  0.2207  0.0559 -0.2188
    7loPI   C3B  111   7.759   1.823   8.054  0.2679 -0.3926 -0.3952
    7loPI   C4B  112   7.654   2.180   7.766 -0.1296  0.2465 -0.0066
    8loPI    C1  113  14.545  18.063  10.463  0.0610 -0.0681 -0.1363
    8loPI    C2  114  14.275  18.358  10.450  0.1097 -0.0139  0.0548
    8loPI    C3  115  14.244  18.069  10.725  0.3591  0.1045  0.2119
    8loPI   PO4  116  14.568  17.967  10.186  0.0949  0.2117  0.2025
    8loPI   GL1  117  14.548  17.899   9.791 -0.0531 -0.1722 -0.0188
    8loPI   GL2  118  14.614  18.246   9.638  0.0353 -0.2482  0.1904
    8loPI   C1A  119  14.386  17.753   9.370  0.2095  0.0973 -0.0434
    8loPI   C2A  120  14.305  17.664   8.956  0.2291  0.3480 -0.0442
    8loPI   C3A  121  14.342  17.829   8.511 -0.1378 -0.2948  0.0364
    8loPI   C4A  122  14.236  17.942   8.168 -0.5396 -0.0146  0.0038
    8loPI   C5A  123  14.619  17.871   7.985  0.0682  0.0341 -0.1341
    8loPI   C6A  124  14.851  17.557   7.763  0.0883  0.3920  0.0415
    8loPI   C1B  125  14.622  18.254   9.179  0.0258  0.0406 -0.0289
    8loPI   C2B  126  14.727  18.001   8.828 -0.0535 -0.2041 -0.0760
    8loPI   C3B  127  14.782  18.100   8.438  0.1573  0.0759  0.1294
    8loPI   C4B  128  14.692  18.405   8.157 -0.0647  0.0395 -0.2578
    9loPI    C1  129   0.158  16.798  10.071 -0.0782 -0.0248 -0.6656
    9loPI    C2  130  -0.204  16.785  10.240  0.2114  0.0332 -0.0086
    9loPI    C3  131  -0.062  16.465  10.046  0.0023 -0.1632  0.1563
    9loPI   PO4  132   0.133  17.018   9.934  0.0912 -0.2424  0.1466
    9loPI   GL1  133   0.090  17.180   9.454 -0.1975  0.0530  0.1596
    9loPI   GL2  134   0.426  17.358   9.515  0.2745  0.3162 -0.1496
    9loPI   C1A  135   0.198  17.240   9.034  0.2340 -0.0602  0.2057
    9loPI   C2A  136   0.032  17.126   8.713  0.2154 -0.1965  0.3811
    9loPI   C3A  137  -0.017  17.137   8.248 -0.0627 -0.0111 -0.0190
    9loPI   C4A  138  -0.124  17.002   7.861 -0.0473  0.1067 -0.0322
    9loPI   C5A  139  -0.200  16.625   7.863  0.1898  0.1617 -0.0891
    9loPI   C6A  140  -0.370  16.331   8.172  0.3458  0.0077 -0.1615
    9loPI   C1B  141   0.631  17.492   9.143  0.2510  0.0840 -0.1143
    9loPI   C2B  142   0.701  17.639   8.783 -0.0633 -0.0270 -0.2066
    9loPI   C3B  143   1.084  17.526   8.746  0.0662  0.1039 -0.0643
    9loPI   C4B  144   1.494  17.415   8.513 -0.1493 -0.2549 -0.1767
   10loPI    C1  145   1.705   8.050  10.436  0.2352 -0.2164 -0.0162
   10loPI    C2  146   1.499   7.911  10.123 -0.0146  0.1322 -0.0124
   10loPI    C3  147   1.408   7.789  10.493 -0.0696  0.1206 -0.0296
   10loPI   PO4  148   1.779   8.344  10.408  0.1585  0.0200 -0.0254
   10loPI   GL1  149   1.827   8.499  10.099 -0.4330 -0.1433 -0.0354
   10loPI   GL2  150   1.533   8.751  10.082  0.3001 -0.1933 -0.1102
   10loPI   C1A  151   1.895   8.641   9.747  0.0358 -0.1144  0.0669
   10loPI   C2A  152   2.013   8.684   9.339  0.0829 -0.1228  0.2254
   10loPI   C3A  153   2.268   8.658   8.979 -0.2167 -0.4828 -0.2129
   10loPI   C4A  154   2.363   8.635   8.566  0.1087  0.2084  0.2556
   10loPI   C5A  155   2.495   8.806   8.120  0.1039  0.0260  0.1899
   10loPI   C6A  156   2.405   9.175   7.816 -0.1630 -0.2225  0.2048
   10loPI   C1B  157   1.502   8.872   9.573 -0.0267 -0.0077 -0.1569
   10loPI   C2B  158   1.634   8.942   9.143  0.0041 -0.0393 -0.0743
   10loPI   C3B  159   1.904   8.977   8.756 -0.0854 -0.3514  0.1593
   10loPI   C4B  160   2.103   8.992   8.392  0.0181 -0.1528 -0.0157
   11loPI    C1  161   2.629   1.007  10.739  0.0844  0.0702  0.2258
   11loPI    C2  162   2.639   0.681  10.970  0.0911 -0.1117 -0.0271
   11loPI    C3  163   2.345   0.949  11.015  0.0533 -0.1803  0.1433
   11loPI   PO4  164   2.711   0.858  10.455 -0.0460 -0.3665  0.1814
   11loPI   GL1  165   2.843   0.835   9.947  0.1167 -0.1251  0.0956
   11loPI   GL2  166   2.705   0.622   9.787  0.0393 -0.0011 -0.0060
   11loPI   C1A  167   2.727   1.065   9.553 -0.1114 -0.0355  0.0427
   11loPI   C2A  168   2.689   1.041   9.125 -0.0625  0.0959  0.0754
   11loPI   C3A  169   2.516   1.206   8.696 -0.0087  0.1542 -0.2526
   11loPI   C4A  170   2.603   1.243   8.286  0.1404  0.1180  0.2551
   11loPI   C5A  171   2.372   1.158   7.865  0.2430 -0.1414  0.1521
   11loPI   C6A  172   2.078   1.028   7.499  0.0856 -0.3334 -0.2288
   11loPI   C1B  173   2.730   0.559   9.408 -0.1180  0.2198  0.4278
   11loPI   C2B  174   2.889   0.646   9.003  0.1920 -0.0187  0.0106
   11loPI   C3B  175   2.869   0.699   8.583  0.2251  0.3769  0.0303
   11loPI   C4B  176   2.681   0.515   8.382  0.2021 -0.0056 -0.0600
   12loPI    C1  177   7.292  17.462  10.029 -0.0998 -0.0498 -0.0959
   12loPI    C2  178   7.301  17.325  10.405 -0.2126  0.1192 -0.0301
   12loPI    C3  179   7.623  17.288  10.170 -0.1247  0.0576  0.0989
   12loPI   PO4  180   7.013  17.455   9.942  0.1868  0.0157 -0.2034
   12loPI   GL1  181   6.744  17.621   9.681  0.0244 -0.3301 -0.0062
   12loPI   GL2  182   6.673  17.856   9.651 -0.1010  0.0211 -0.1187
   12loPI   C1A  183   6.859  17.650   9.182 -0.2446 -0.2574 -0.2110
   12loPI   C2A  184   6.894  17.617   8.777  0.1611  0.1889 -0.1888
   12loPI   C3A  185   6.856  17.550   8.356 -0.1753 -0.0517 -0.0371
   12loPI   C4A  186   6.947  17.246   8.128 -0.1854 -0.0539  0.3507
   12loPI   C5A  187   7.229  17.008   7.889 -0.0478  0.0145  0.0862
   12loPI   C6A  188   7.390  16.844   7.550  0.1661  0.2337 -0.1237
   12loPI   C1B  189   6.390  17.807   9.193 -0.2245 -0.1700  0.1352
   12loPI   C2B  190   6.465  17.796   8.732  0.1572 -0.1857 -0.1181
   12loPI   C3B  191   6.542  17.930   8.334  0.0829 -0.0141  0.1424
   12loPI   C4B  192   6.732  17.943   7.903  0.0797  0.0911  0.0156
   13loPI    C1  193  12.473   8.840  10.007  0.0095  0.0551 -0.1901
   13loPI    C2  194  12.623   8.484  10.112 -0.0524  0.1272  0.1545
   13loPI    C3  195  12.235   8.563  10.168 -0.0502  0.2309  0.0293
   13loPI   PO4  196  12.525   8.797   9.675  0.1086 -0.2848  0.1872
   13loPI   GL1  197  12.249   8.854   9.342 -0.3012  0.0577 -0.1909
   13loPI   GL2  198  12.431   9.148   9.296  0.3583 -0.0832  0.3162
   13loPI   C1A  199  12.292   8.902   8.879 -0.0623  0.3205 -0.0803
   13loPI   C2A  200  12.230   9.099   8.526  0.1242  0.0709 -0.3694
   13loPI   C3A  201  12.191   9.338   8.157 -0.1873 -0.2258 -0.1170
   13loPI   C4A  202  12.267   9.461   7.757 -0.0961 -0.0926  0.3595
   13loPI   C5A  203  12.465   9.258   7.454 -0.0161 -0.3921  0.3515
   13loPI   C6A  204  12.902   9.317   7.409  0.1497 -0.1034  0.1748
   13loPI   C1B  205  12.455   9.418   8.917 -0.2775 -0.0738 -0.0554
   13loPI   C2B  206  12.510   9.656   8.446  0.1055  0.3088  0.0796
   13loPI   C3B  207  12.259   9.862   8.093 -0.0278  0.0760  0.0644
   13loPI   C4B  208  12.232  10.248   8.002 -0.1228  0.0334 -0.0518
   14loPI    C1  209   1.115  11.575  10.148  0.1521  0.1794  0.0374
   14loPI    C2  210   1.376  11.814  10.335 -0.0715  0.4593 -0.0010
   14loPI    C3  211   1.039  11.701  10.520  0.0704  0.1017  0.0476
   14loPI   PO4  212   1.232  11.424  10.039 -0.4527  0.1208  0.0188
   14loPI   GL1  213   1.139  11.334   9.719  0.1930  0.0740  0.1645
   14loPI   GL2  214   1.055  11.057   9.567  0.0112 -0.3267  0.1155
   14loPI   C1A  215   1.092  11.493   9.339  0.1915  0.0261  0.0537
   14loPI   C2A  216   1.323  11.684   9.083  0.1309  0.0150 -0.0226
   14loPI   C3A  217   1.688  11.776   8.947  0.0859  0.1856 -0.1391
   14loPI   C4A  218   1.717  11.809   8.550  0.1317 -0.2053 -0.0170
   14loPI   C5A  219   1.456  11.837   8.183  0.2917 -0.1461 -0.0949
   14loPI   C6A  220   1.295  11.760   7.774 -0.0939 -0.2049  0.2598
   14loPI   C1B  221   0.954  10.784   9.188  0.0485  0.0126  0.0679
   14loPI   C2B  222   0.726  10.723   8.756 -0.0290 -0.1467 -0.1321
   14loPI   C3B  223   0.776  10.693   8.201  0.0766  0.0386 -0.3910
   14loPI   C4B  224   0.967  10.308   8.081 -0.0941  0.3168  0.4284
   15loPI    C1  225  14.377  17.088  10.129  0.0417  0.3029  0.0183
   15loPI    C2  226  14.670  17.016   9.867 -0.1033  0.2352 -0.1274
   15loPI    C3  227  14.709  16.900  10.248 -0.1203 -0.1679 -0.2431
   15loPI   PO4  228  14.172  16.996   9.998  0.0712  0.1277  0.2092
   15loPI   GL1  229  13.885  17.111   9.611  0.0610 -0.3502 -0.0129
   15loPI   GL2  230  13.732  17.306   9.846 -0.0253 -0.1502 -0.4785
   15loPI   C1A  231  13.991  17.254   9.224 -0.0942  0.0870  0.3438
   15loPI   C2A  232  13.896  17.350   8.766  0.0200  0.0915 -0.0356
   15loPI   C3A  233  13.731  17.536   8.430  0.4114  0.1670  0.2477
   15loPI   C4A  234  13.401  17.530   8.232  0.2025  0.2608  0.0438
   15loPI   C5A  235  12.966  17.464   7.946 -0.0836  0.2217 -0.0951
   15loPI   C6A  236  12.802  17.264   7.644 -0.2141 -0.1097  0.0917
   15loPI   C1B  237  13.480  17.401   9.494  0.0412  0.1573 -0.3563
   15loPI   C2B  238  13.033  17.430   9.274  0.1054  0.0323  0.1220
   15loPI   C3B  239  12.832  17.367   8.916 -0.0233 -0.1331  0.0329
   15loPI   C4B  240  12.953  17.388   8.499  0.3140 -0.0502  0.0728
   16loPI    C1  241  16.132   0.235   9.976 -0.1027 -0.1529 -0.0898
   16loPI    C2  242  15.949   0.219  10.331 -0.1650 -0.1151 -0.1202
   16loPI    C3  243  16.071   0.571  10.185 -0.1429 -0.1301 -0.1379
   16loPI   PO4  244  15.991   0.119   9.814 -0.1666  0.0033 -0.0060
   16loPI   GL1  245  15.915   0.031   9.406 -0.1511  0.1707 -0.1239
   16loPI   GL2  246  15.742   0.311   9.333 -0.1109  0.1572  0.0709
   16loPI   C1A  247  16.138   0.188   9.090  0.0156  0.1611 -0.2238
   16loPI   C2A  248  16.380   0.001   8.812 -0.0039 -0.1112 -0.1682
   16loPI   C3A  249  16.393   0.066   8.445  0.2516  0.1629  0.2925
   16loPI   C4A  250  16.180   0.290   8.096  0.4319  0.0791  0.2432
   16loPI   C5A  251  15.929   0.198   7.707  0.0090 -0.0772  0.3760
   16loPI   C6A  252  15.705  -0.093   7.486 -0.0518  0.0648 -0.1042
   16loPI   C1B  253  15.584   0.267   8.934  0.1001 -0.0518  0.3041
   16loPI   C2B  254  15.321  -0.036   8.695  0.1128  0.1039 -0.0493
   16loPI   C3B  255  15.071  -0.147   8.371 -0.1323  0.1547  0.0183
   16loPI   C4B  256  15.193  -0.370   7.946 -0.2657  0.3005 -0.2929
   17loPI    C1  257   2.365  10.348  10.263  0.1212 -0.0072 -0.1507
   17loPI    C2  258   2.686  10.189  10.441  0.1056  0.1875  0.0552
   17loPI    C3  259   2.510  10.512  10.598 -0.0608  0.2118 -0.1774
   17loPI   PO4  260   2.175  10.077  10.196 -0.1079 -0.0232  0.0688
   17loPI   GL1  261   1.885  10.000   9.942  0.3295 -0.4178 -0.0021
   17loPI   GL2  262   1.685   9.828  10.081  0.1736  0.2417 -0.1542
   17loPI   C1A  263   1.786  10.415   9.614 -0.2197 -0.1784 -0.2841
   17loPI   C2A  264   1.791  10.474   9.212  0.4789 -0.0027  0.0568
   17loPI   C3A  265   1.673  10.401   8.857  0.0569 -0.1184  0.1263
   17loPI   C4A  266   1.530  10.249   8.381  0.1573 -0.3131 -0.0174
   17loPI   C5A  267   1.669  10.078   8.043  0.1525  0.4260  0.0288
   17loPI   C6A  268   2.025   9.916   8.186 -0.0461 -0.2464 -0.2736
   17loPI   C1B  269   1.455   9.941   9.686  0.0289  0.0321 -0.2950
   17loPI   C2B  270   1.406  10.137   9.355 -0.0293  0.0064  0.0241
   17loPI   C3B  271   1.200  10.313   9.088  0.1701  0.5157  0.1903
   17loPI   C4B  272   1.164  10.503   8.730 -0.1665 -0.1320 -0.1080
   18loPI    C1  273   8.604  15.136  10.052 -0.2127 -0.0310  0.1421
   18loPI    C2  274   8.718  15.158  10.435 -0.0586  0.1130  0.0891
   18loPI    C3  275   8.990  15.187  10.143 -0.1720 -0.0233 -0.0314
   18loPI   PO4  276   8.437  14.932  10.080 -0.1440 -0.0626 -0.1522
   18loPI   GL1  277   8.172  15.009   9.811 -0.1527 -0.3540  0.0049
   18loPI   GL2  278   8.174  14.703   9.506 -0.0078  0.0977  0.0202
   18loPI   C1A  279   8.349  15.183   9.408 -0.5948 -0.2913  0.3394
   18loPI   C2A  280   8.295  15.235   8.985 -0.0013 -0.0309 -0.1407
   18loPI   C3A  281   8.128  15.160   8.523 -0.0971  0.0187  0.3902
   18loPI   C4A  282   7.994  15.356   8.139 -0.0797 -0.4785  0.0052
   18loPI   C5A  283   8.132  15.298   7.725  0.1352  0.0836  0.1447
   18loPI   C6A  284   8.161  15.147   7.368  0.2875 -0.2149 -0.1668
   18loPI   C1B  285   8.103  14.799   9.034  0.1087  0.1391  0.0353
   18loPI   C2B  286   8.431  14.755   8.703  0.1105  0.2868  0.0345
   18loPI   C3B  287   8.394  14.780   8.276  0.0721  0.0571  0.0342
   18loPI   C4B  288   8.300  14.621   7.924 -0.0309  0.0853 -0.2536
   19loPI    C1  289  14.451   7.474  10.183  0.2979  0.0295 -0.2538
   19loPI    C2  290  14.459   7.194  10.468 -0.1533  0.0499 -0.2139
   19loPI    C3  291  14.734   7.485  10.466  0.0500 -0.1363  0.0053
   19loPI   PO4  292  14.524   7.328   9.939 -0.0967 -0.1730  0.0110
   19loPI   GL1  293  14.707   7.384   9.507 -0.1439  0.1377  0.0845
   19loPI   GL2  294  14.353   7.192   9.496 -0.0803  0.2540  0.0062
   19loPI   C1A  295  14.738   7.064   9.223 -0.3112  0.1214 -0.0583
   19loPI   C2A  296  14.781   6.912   8.829 -0.2230  0.3199 -0.0451
   19loPI   C3A  297  14.897   7.223   8.489  0.2484  0.0098 -0.1882
   19loPI   C4A  298  14.949   7.281   8.104  0.1325  0.0014  0.1935
   19loPI   C5A  299  14.920   7.306   7.621  0.2492  0.0818  0.0860
   19loPI   C6A  300  14.901   7.464   7.237 -0.1694 -0.0891 -0.4103
   19loPI   C1B  301  14.225   7.363   9.106 -0.2862 -0.0093 -0.0541
   19loPI   C2B  302  14.112   7.551   8.694  0.1119  0.0465 -0.3793
   19loPI   C3B  303  13.936   7.916   8.604  0.1185  0.0588  0.2082
   19loPI   C4B  304  13.999   8.204   8.520  0.0294 -0.1439 -0.1976
   20loPI    C1  305  10.726   5.324  10.252  0.0192 -0.1626  0.0184
   20loPI    C2  306  10.591   5.700  10.255 -0.1687 -0.2286 -0.0106
   20loPI    C3  307  10.363   5.407  10.105 -0.0078 -0.3483 -0.0233
   20loPI   PO4  308  10.975   5.341  10.126  0.1850  0.1214  0.1234
   20loPI   GL1  309  11.187   5.505   9.724 -0.0310  0.1078  0.1576
   20loPI   GL2  310  11.204   5.204   9.604 -0.2399 -0.0102  0.1022
   20loPI   C1A  311  10.924   5.473   9.307 -0.1421  0.1825  0.0892
   20loPI   C2A  312  10.756   5.218   8.911  0.0873 -0.1784 -0.1039
   20loPI   C3A  313  10.607   5.332   8.476 -0.0060 -0.1690  0.2542
   20loPI   C4A  314  10.288   5.193   8.241 -0.0944 -0.2924  0.0342
   20loPI   C5A  315  10.096   5.364   7.811  0.1686 -0.2113  0.3979
   20loPI   C6A  316  10.127   5.621   7.403 -0.0323 -0.0124 -0.0939
   20loPI   C1B  317  11.268   5.022   9.094  0.0616 -0.1451  0.1903
   20loPI   C2B  318  11.481   4.785   8.806  0.2005  0.1934  0.0552
   20loPI   C3B  319  11.530   4.796   8.407  0.0125  0.2076 -0.0345
   20loPI   C4B  320  11.460   4.633   7.966  0.0692 -0.2285 -0.1404
   21loPI    C1  321  16.163   9.135  10.601  0.2874 -0.0907  0.2105
   21loPI    C2  322  15.921   8.833  10.498  0.2411 -0.0004  0.0509
   21loPI    C3  323  15.786   9.125  10.736  0.1151  0.1741 -0.2295
   21loPI   PO4  324  16.333   9.181  10.340  0.0752 -0.0649 -0.0902
   21loPI   GL1  325  16.626   9.192   9.987  0.1050 -0.1171  0.3649
   21loPI   GL2  326  16.417   8.844   9.906 -0.1996 -0.0507  0.1295
   21loPI   C1A  327  16.669   9.196   9.557  0.0575  0.2270  0.2254
   21loPI   C2A  328  16.631   9.357   9.167 -0.0663  0.3176  0.1556
   21loPI   C3A  329  16.658   9.321   8.685 -0.2622 -0.0341  0.1538
   21loPI   C4A  330  16.658   9.383   8.164 -0.2822 -0.1830  0.1265
   21loPI   C5A  331  16.439   9.091   7.915 -0.2936 -0.0563  0.2765
   21loPI   C6A  332  16.170   8.650   8.008 -0.2193 -0.2063  0.0702
   21loPI   C1B  333  16.688   8.718   9.571 -0.0654 -0.0537  0.0717
   21loPI   C2B  334  16.796   8.669   9.161 -0.1859  0.3483 -0.0146
   21loPI   C3B  335  16.739   8.811   8.643  0.0209  0.0252  0.0990
   21loPI   C4B  336  16.535   8.798   8.313  0.3709  0.1803 -0.6659
   22loPI    C1  337   0.802  10.145  10.219 -0.1831  0.0176  0.2074
   22loPI    C2  338   1.134   9.946  10.120 -0.2238  0.0713 -0.0428
   22loPI    C3  339   0.897   9.807  10.411 -0.1243 -0.1130 -0.0484
   22loPI   PO4  340   0.902  10.379  10.139 -0.0024  0.0272  0.0940
   22loPI   GL1  341   1.036  10.540   9.704  0.0133  0.0984 -0.2378
   22loPI   GL2  342   0.982  10.215   9.696 -0.1363 -0.0772  0.2060
   22loPI   C1A  343   1.347  10.628   9.456  0.0949 -0.2011  0.1151
   22loPI   C2A  344   1.476  10.816   8.979  0.1136 -0.1071 -0.1862
   22loPI   C3A  345   1.714  10.836   8.584 -0.0830  0.0136  0.2504
   22loPI   C4A  346   1.697  10.708   8.218 -0.1670 -0.1110  0.0903
   22loPI   C5A  347   1.408  10.571   7.913  0.0963  0.0919 -0.0145
   22loPI   C6A  348   0.991  10.649   7.593  0.1956 -0.1932 -0.5609
   22loPI   C1B  349   0.916  10.038   9.399 -0.3419  0.3450 -0.1446
   22loPI   C2B  350   0.847  10.062   8.883 -0.1499 -0.4789 -0.0886
   22loPI   C3B  351   1.041   9.953   8.490  0.0823 -0.4655  0.0385
   22loPI   C4B  352   1.234   9.882   8.169  0.0991  0.0130 -0.1739
   23loPI    C1  353  17.553  16.908  10.175 -0.0111  0.1397 -0.0756
   23loPI    C2  354  17.177  16.812  10.273 -0.0300  0.1883 -0.0996
   23loPI    C3  355  17.381  17.075  10.495  0.0765 -0.0243  0.0586
   23loPI   PO4  356  17.697  16.674  10.101 -0.1187  0.0222 -0.2393
   23loPI   GL1  357  17.811  16.421   9.834  0.0561 -0.0237 -0.0601
   23loPI   GL2  358  17.458  16.372   9.723  0.0268 -0.0222  0.1907
   23loPI   C1A  359  17.761  16.240   9.391 -0.3091  0.0550  0.0517
   23loPI   C2A  360  17.842  16.346   8.993  0.0304  0.0759 -0.0768
   23loPI   C3A  361  18.103  16.301   8.699 -0.1493  0.1602  0.0636
   23loPI   C4A  362  18.549  16.247   8.625 -0.1024  0.0448 -0.3965
   23loPI   C5A  363  18.868  16.564   8.441  0.2506  0.0623  0.0489
   23loPI   C6A  364  19.260  16.633   8.491 -0.1589  0.0801  0.2277
   23loPI   C1B  365  17.479  16.651   9.406 -0.6157 -0.1427  0.2243
   23loPI   C2B  366  17.241  16.655   9.024  0.3261 -0.1120 -0.0699
   23loPI   C3B  367  16.953  16.564   8.742 -0.0550  0.1300  0.1329
   23loPI   C4B  368  16.717  16.479   8.431  0.0383 -0.1430  0.0188
   24loPI    C1  369   1.130   6.217  10.492  0.0748  0.2458  0.0479
   24loPI    C2  370   1.270   6.555  10.653 -0.1968  0.3859 -0.0044
   24loPI    C3  371   0.887   6.453  10.705 -0.1322  0.1174 -0.0432
   24loPI   PO4  372   1.345   6.200  10.293  0.0073  0.0401 -0.2315
   24loPI   GL1  373   1.441   6.466   9.893  0.1375 -0.0843 -0.3508
   24loPI   GL2  374   1.125   6.527   9.912 -0.0757 -0.3122  0.0517
   24loPI   C1A  375   1.480   6.373   9.398  0.2644  0.0544 -0.1975
   24loPI   C2A  376   1.497   6.303   8.889  0.0738 -0.3249 -0.2639
   24loPI   C3A  377   1.703   6.100   8.482  0.1724  0.0271  0.0729
   24loPI   C4A  378   1.799   6.127   8.103 -0.2642  0.0453  0.1321
   24loPI   C5A  379   1.625   6.315   7.640 -0.0975  0.3567 -0.2500
   24loPI   C6A  380   1.691   6.361   7.225 -0.2475  0.3429 -0.1022
   24loPI   C1B  381   1.015   6.542   9.432 -0.2174  0.2576  0.0922
   24loPI   C2B  382   1.052   6.452   8.982  0.0925 -0.0849  0.1830
   24loPI   C3B  383   1.194   6.347   8.474  0.2191  0.1165 -0.4489
   24loPI   C4B  384   1.276   6.267   8.011  0.4627 -0.4914 -0.0552
   25loPI    C1  385  14.489  10.179  10.054  0.0341 -0.1527 -0.0658
   25loPI    C2  386  14.184   9.927  10.110 -0.0659 -0.0469 -0.1307
   25loPI    C3  387  14.560   9.799  10.158 -0.1201 -0.1756 -0.0420
   25loPI   PO4  388  14.563  10.313   9.732  0.1431  0.3879 -0.1250
   25loPI   GL1  389  14.662  10.252   9.259 -0.1965 -0.0753 -0.0954
   25loPI   GL2  390  14.972  10.281   9.456  0.2451  0.0129  0.2905
   25loPI   C1A  391  14.931  10.328   8.879  0.0564  0.1248  0.2154
   25loPI   C2A  392  14.888  10.372   8.424 -0.1521  0.0747 -0.3283
   25loPI   C3A  393  14.999  10.389   8.040  0.1208  0.2220 -0.0503
   25loPI   C4A  394  15.024  10.600   7.651 -0.0071 -0.2094  0.2882
   25loPI   C5A  395  15.216  10.893   7.536 -0.1142  0.0617 -0.0975
   25loPI   C6A  396  15.596  11.015   7.339 -0.0432  0.2060 -0.0454
   25loPI   C1B  397  15.279  10.101   9.204 -0.2672  0.1812  0.3326
   25loPI   C2B  398  15.390   9.995   8.788 -0.1697 -0.3795 -0.0118
   25loPI   C3B  399  15.377  10.192   8.365 -0.0263  0.1293 -0.1263
   25loPI   C4B  400  15.463  10.199   7.856  0.1466 -0.2713  0.1078
   26loPI    C1  401   8.353   2.593  10.109  0.1016 -0.2932 -0.1916
   26loPI    C2  402   8.026   2.397  10.228  0.0386 -0.0804 -0.0072
   26loPI    C3  403   8.193   2.672  10.467  0.2218 -0.0276 -0.1931
   26loPI   PO4  404   8.444   2.349   9.983  0.0171  0.2595  0.2291
   26loPI   GL1  405   8.611   2.266   9.578 -0.0890  0.1338  0.2883
   26loPI   GL2  406   8.484   1.956   9.494 -0.2340 -0.0555 -0.3801
   26loPI   C1A  407   8.571   2.497   9.198 -0.2135 -0.0497  0.0031
   26loPI   C2A  408   8.705   2.621   8.776  0.2465 -0.0367 -0.2267
   26loPI   C3A  409   8.671   2.661   8.372 -0.3379 -0.0610 -0.4668
   26loPI   C4A  410   8.756   2.798   7.954  0.2556 -0.0118 -0.0884
   26loPI   C5A  411   8.710   3.092   7.666 -0.0813  0.1255 -0.2752
   26loPI   C6A  412   8.376   3.319   7.432 -0.1401  0.0839 -0.0367
   26loPI   C1B  413   8.493   2.053   9.026  0.0730 -0.1268  0.2647
   26loPI   C2B  414   8.518   2.187   8.535  0.1089 -0.1938 -0.5150
   26loPI   C3B  415   8.467   2.164   8.158  0.4478 -0.0532 -0.1392
   26loPI   C4B  416   8.686   2.196   7.809  0.2115  0.2089 -0.0471
   27loPI    C1  417   8.671   0.400  10.542 -0.0142 -0.1430 -0.2512
   27loPI    C2  418   8.507   0.059  10.673 -0.1536  0.0112 -0.0165
   27loPI    C3  419   8.333   0.409  10.755  0.1321  0.1582 -0.0251
   27loPI   PO4  420   8.760   0.334  10.252  0.3396  0.1687 -0.1138
   27loPI   GL1  421   8.692   0.289   9.799  0.0738 -0.1265 -0.1701
   27loPI   GL2  422   8.330   0.195   9.683 -0.0796 -0.0488  0.0882
   27loPI   C1A  423   9.028   0.192   9.554 -0.4405  0.1553 -0.1624
   27loPI   C2A  424   9.325   0.344   9.333 -0.0755  0.4000 -0.0859
   27loPI   C3A  425   9.501   0.627   9.147  0.1303  0.0796 -0.0476
   27loPI   C4A  426   9.825   0.861   8.722 -0.2567  0.1674  0.4363
   27loPI   C5A  427   9.800   0.844   8.322  0.2077  0.4993 -0.0298
   27loPI   C6A  428   9.453   1.062   8.110  0.1063  0.2072  0.1125
   27loPI   C1B  429   8.544   0.263   9.239 -0.0329  0.0593 -0.3025
   27loPI   C2B  430   8.795   0.019   8.962 -0.2149  0.2424 -0.2583
   27loPI   C3B  431   8.779  -0.204   8.592  0.2092  0.0447  0.1714
   27loPI   C4B  432   9.151  -0.390   8.321  0.0490  0.0531 -0.0291
   28loPI    C1  433   9.956  12.883  10.444 -0.0929 -0.2546  0.2093
   28loPI    C2  434   9.749  13.214  10.531  0.1384 -0.0259 -0.0864
   28loPI    C3  435   9.932  13.010  10.823  0.2067  0.2513  0.0692
   28loPI   PO4  436  10.131  12.928  10.177  0.1059  0.2685  0.0360
   28loPI   GL1  437  10.109  12.969   9.727  0.0269 -0.2871  0.0702
   28loPI   GL2  438  10.033  12.695   9.552  0.0667 -0.0746  0.0378
   28loPI   C1A  439  10.051  13.207   9.324 -0.1632  0.0211  0.0138
   28loPI   C2A  440   9.911  13.273   8.894 -0.1266 -0.0811  0.2122
   28loPI   C3A  441   9.899  13.385   8.396 -0.0879  0.3713 -0.2004
   28loPI   C4A  442  10.211  13.578   8.080  0.0318  0.0520  0.0891
   28loPI   C5A  443  10.032  13.720   7.653 -0.0918  0.1695  0.3089
   28loPI   C6A  444   9.691  13.748   7.449  0.1267  0.1572  0.0003
   28loPI   C1B  445   9.885  12.809   9.090 -0.3713 -0.2072 -0.0907
   28loPI   C2B  446   9.859  12.735   8.663 -0.1550 -0.3785 -0.1631
   28loPI   C3B  447   9.851  12.795   8.208 -0.2543  0.2613 -0.1243
   28loPI   C4B  448   9.840  12.755   7.750 -0.1246  0.2221 -0.2096
   29loPI    C1  449   5.167   9.333  10.599 -0.0226  0.1038 -0.4529
   29loPI    C2  450   4.845   9.116  10.695  0.0395  0.0448 -0.3771
   29loPI    C3  451   4.816   9.514  10.665 -0.0263  0.0453 -0.3097
   29loPI   PO4  452   5.293   9.256  10.457 -0.1602 -0.0254  0.0460
   29loPI   GL1  453   5.149   9.064  10.022  0.1064  0.0517 -0.0177
   29loPI   GL2  454   4.841   8.786   9.837 -0.2164  0.0407 -0.1431
   29loPI   C1A  455   5.254   8.988   9.532 -0.0501 -0.1039  0.0518
   29loPI   C2A  456   5.334   9.059   9.191  0.0346  0.3001 -0.0288
   29loPI   C3A  457   5.516   9.250   8.939  0.3710  0.2068 -0.0138
   29loPI   C4A  458   5.407   9.258   8.430 -0.0525 -0.0782 -0.0627
   29loPI   C5A  459   5.593   9.109   8.003  0.1893  0.2335 -0.3654
   29loPI   C6A  460   5.847   8.985   7.667 -0.0269  0.0871  0.3199
   29loPI   C1B  461   4.751   8.908   9.384  0.0187  0.0295  0.0092
   29loPI   C2B  462   4.818   8.959   8.930  0.1999 -0.0583  0.0335
   29loPI   C3B  463   5.010   8.870   8.512 -0.0463  0.0206 -0.0424
   29loPI   C4B  464   4.987   8.874   8.051 -0.2891  0.0444  0.0069
   30loPI    C1  465  11.830   6.901  10.049 -0.2981  0.0038 -0.1750
   30loPI    C2  466  11.867   6.575  10.278 -0.0708  0.0568 -0.1340
   30loPI    C3  467  11.509   6.677  10.131 -0.2056 -0.0189  0.1364
   30loPI   PO4  468  12.016   6.842   9.866  0.0062 -0.1162  0.2271
   30loPI   GL1  469  12.083   6.586   9.483 -0.2636 -0.3281  0.1043
   30loPI   GL2  470  12.213   6.350   9.568  0.0975 -0.1003 -0.1024
   30loPI   C1A  471  11.980   6.578   9.004  0.0564  0.0288 -0.0227
   30loPI   C2A  472  11.977   6.732   8.496 -0.1835 -0.2678 -0.1849
   30loPI   C3A  473  11.675   6.882   8.218 -0.1292 -0.0102  0.2051
   30loPI   C4A  474  11.265   7.028   7.980 -0.0013 -0.0484 -0.2900
   30loPI   C5A  475  11.092   7.230   7.618  0.1349  0.2537 -0.1627
   30loPI   C6A  476  10.865   7.081   7.395 -0.0933 -0.1290  0.2717
   30loPI   C1B  477  12.213   6.141   9.210 -0.1944  0.1274  0.0939
   30loPI   C2B  478  12.366   5.814   8.884 -0.0950 -0.0778 -0.0221
   30loPI   C3B  479  12.380   5.453   8.630 -0.1984 -0.1425 -0.0797
   30loPI   C4B  480  12.200   5.487   8.320  0.1477 -0.0020 -0.1871
   31loPI    C1  481  14.045  17.713   9.920  0.0656  0.1815  0.1164
   31loPI    C2  482  14.100  17.843  10.294 -0.0740 -0.0697  0.2270
   31loPI    C3  483  13.731  17.766  10.161 -0.0324  0.0975  0.0084
   31loPI   PO4  484  14.306  17.513   9.940  0.1820  0.0472 -0.0932
   31loPI   GL1  485  14.323  17.289   9.587  0.2318 -0.0743 -0.0023
   31loPI   GL2  486  14.409  16.899   9.469 -0.1612  0.0655 -0.1092
   31loPI   C1A  487  14.498  17.258   9.155 -0.0770 -0.0187 -0.2189
   31loPI   C2A  488  14.438  17.092   8.775 -0.2052 -0.1933 -0.0619
   31loPI   C3A  489  14.293  17.135   8.409 -0.2660  0.2024 -0.1059
   31loPI   C4A  490  14.118  17.432   8.183 -0.4022 -0.2478 -0.3406
   31loPI   C5A  491  13.858  17.686   7.917  0.1148 -0.0300 -0.0705
   31loPI   C6A  492  13.891  18.157   7.821 -0.0134 -0.1091  0.0502
   31loPI   C1B  493  14.650  16.659   9.104  0.2864 -0.0809 -0.0166
   31loPI   C2B  494  14.877  16.653   8.737 -0.0160 -0.1508  0.2340
   31loPI   C3B  495  14.924  16.395   8.381  0.1698 -0.0707 -0.1140
   31loPI   C4B  496  15.098  16.036   8.349 -0.0020 -0.0992  0.2204
   32loPI    C1  497  13.989   3.952   9.632 -0.0041  0.2442  0.4657
   32loPI    C2  498  13.825   3.589   9.596  0.1871  0.1881  0.1102
   32loPI    C3  499  13.648   3.867   9.823 -0.3479  0.0996 -0.1827
   32loPI   PO4  500  14.243   3.800   9.682  0.0726 -0.1630 -0.1896
   32loPI   GL1  501  14.456   3.599   9.321 -0.2510 -0.2065 -0.0353
   32loPI   GL2  502  14.110   3.684   9.168  0.1874  0.1176 -0.2645
   32loPI   C1A  503  14.521   3.813   8.944 -0.1696  0.1498  0.0901
   32loPI   C2A  504  14.501   4.088   8.511 -0.1497  0.2655  0.2350
   32loPI   C3A  505  14.478   4.341   8.139  0.0550 -0.2275  0.4279
   32loPI   C4A  506  14.441   4.729   7.921 -0.0542 -0.2401  0.2260
   32loPI   C5A  507  14.428   5.143   7.760 -0.0526 -0.2624  0.1868
   32loPI   C6A  508  14.335   5.592   7.670  0.2363 -0.0746 -0.1431
   32loPI   C1B  509  14.211   3.641   8.666  0.3155 -0.1163  0.1394
   32loPI   C2B  510  14.117   3.442   8.318 -0.4951 -0.1307 -0.3619
   32loPI   C3B  511  14.162   3.502   7.843 -0.3159  0.1555  0.1134
   32loPI   C4B  512  14.244   3.818   7.583  0.0522  0.0106 -0.1825
   33loPI    C1  513   4.477  17.468  10.242  0.0003 -0.0062 -0.0101
   33loPI    C2  514   4.371  17.848  10.308  0.0174  0.0161 -0.1102
   33loPI    C3  515   4.313  17.572  10.591 -0.1073  0.0699 -0.0827
   33loPI   PO4  516   4.365  17.398   9.969  0.1184 -0.0186 -0.1603
   33loPI   GL1  517   4.268  17.432   9.620  0.0479 -0.0738  0.0703
   33loPI   GL2  518   4.563  17.351   9.506 -0.2286 -0.2842 -0.1132
   33loPI   C1A  519   4.011  17.418   9.385 -0.0283  0.0240  0.0934
   33loPI   C2A  520   4.071  17.369   8.982  0.0418  0.2860 -0.1378
   33loPI   C3A  521   4.133  17.023   8.748  0.2752 -0.1519 -0.0479
   33loPI   C4A  522   4.329  17.224   8.358 -0.0332  0.1711  0.0528
   33loPI   C5A  523   4.375  17.480   7.963  0.1263  0.0095  0.0603
   33loPI   C6A  524   4.587  17.607   7.519 -0.1084 -0.0456  0.2701
   33loPI   C1B  525   4.598  17.523   9.183  0.1744  0.0907  0.2855
   33loPI   C2B  526   4.498  17.502   8.736  0.2048 -0.0227 -0.1038
   33loPI   C3B  527   4.687  17.649   8.362 -0.1959 -0.1067  0.0141
   33loPI   C4B  528   4.843  17.805   7.988 -0.1877 -0.0195  0.0818
   34loPI    C1  529  11.161   3.491  10.724  0.1352 -0.4442  0.0920
   34loPI    C2  530  11.130   3.685  11.072  0.1666  0.1699 -0.2313
   34loPI    C3  531  11.482   3.532  10.960  0.2011  0.1362 -0.0803
   34loPI   PO4  532  10.949   3.630  10.573  0.0942 -0.1351  0.2365
   34loPI   GL1  533  10.937   3.615  10.086  0.1233  0.0534  0.0709
   34loPI   GL2  534  10.865   3.537   9.851  0.1695 -0.2485 -0.4043
   34loPI   C1A  535  11.207   4.042   9.833  0.1010 -0.2196 -0.2022
   34loPI   C2A  536  11.437   4.073   9.455 -0.1217 -0.1930 -0.2042
   34loPI   C3A  537  11.323   4.299   9.070 -0.2024  0.3315 -0.1113
   34loPI   C4A  538  11.201   4.310   8.598 -0.0722 -0.0989  0.0344
   34loPI   C5A  539  11.120   4.494   8.273  0.0866 -0.2817  0.1648
   34loPI   C6A  540  10.934   4.750   7.969  0.2644 -0.2827  0.0300
   34loPI   C1B  541  11.102   3.636   9.400  0.1268  0.1951 -0.0178
   34loPI   C2B  542  11.289   3.802   9.006 -0.2924  0.1911 -0.1527
   34loPI   C3B  543  11.603   3.924   8.671  0.0903 -0.0430 -0.3852
   34loPI   C4B  544  11.897   3.775   8.414 -0.0065  0.0222  0.0276
   35loPI    C1  545  14.422   8.004  10.082  0.1847  0.3759 -0.1092
   35loPI    C2  546  14.406   8.346  10.289 -0.0993  0.0626  0.4085
   35loPI    C3  547  14.531   8.010  10.467  0.1706 -0.1131 -0.0910
   35loPI   PO4  548  14.290   8.106   9.874  0.0196 -0.1630  0.0703
   35loPI   GL1  549  14.440   8.053   9.474  0.0065  0.1554  0.0649
   35loPI   GL2  550  14.302   8.329   9.222 -0.0728 -0.0079  0.1198
   35loPI   C1A  551  14.591   7.739   9.174 -0.2411 -0.2421 -0.3269
   35loPI   C2A  552  14.631   7.547   8.770 -0.5141  0.0386  0.1911
   35loPI   C3A  553  14.837   7.687   8.513 -0.0446  0.0431 -0.2156
   35loPI   C4A  554  15.140   7.799   8.353  0.1623 -0.0145 -0.2604
   35loPI   C5A  555  15.274   8.046   8.060  0.2527  0.0420  0.1681
   35loPI   C6A  556  15.430   8.149   7.676  0.0240 -0.2940 -0.1190
   35loPI   C1B  557  14.359   8.017   8.864  0.1094  0.1434  0.2059
   35loPI   C2B  558  14.401   7.936   8.438 -0.2740 -0.1214 -0.1458
   35loPI   C3B  559  14.584   7.959   8.013  0.0363  0.0264  0.2994
   35loPI   C4B  560  14.916   7.831   7.790 -0.0154 -0.2133 -0.0778
   36loPI    C1  561   6.064   3.415   9.959 -0.0052 -0.1735 -0.1603
   36loPI    C2  562   5.691   3.283   9.902 -0.2554  0.5016 -0.1818
   36loPI    C3  563   5.784   3.478  10.238  0.1292  0.1940 -0.1025
   36loPI   PO4  564   6.134   3.495   9.814 -0.0961 -0.3156  0.1768
   36loPI   GL1  565   5.909   3.626   9.495 -0.1765 -0.2241  0.0178
   36loPI   GL2  566   5.841   3.998   9.480  0.1009  0.1866 -0.1856
   36loPI   C1A  567   5.931   3.549   9.085 -0.0275 -0.4053  0.1491
   36loPI   C2A  568   5.852   3.538   8.662  0.2142  0.1151  0.1308
   36loPI   C3A  569   5.849   3.697   8.272  0.0004 -0.0725 -0.0491
   36loPI   C4A  570   5.964   3.666   7.907  0.1190 -0.2779  0.0340
   36loPI   C5A  571   5.956   3.403   7.528 -0.0679  0.0213  0.2541
   36loPI   C6A  572   6.097   3.451   7.054  0.0274  0.1805  0.0471
   36loPI   C1B  573   5.620   3.987   9.038  0.0497 -0.0267  0.0551
   36loPI   C2B  574   5.715   4.157   8.591  0.3044 -0.1784  0.2746
   36loPI   C3B  575   5.860   4.189   8.183 -0.2142 -0.1981 -0.1557
   36loPI   C4B  576   5.836   4.274   7.783  0.1191 -0.0798 -0.0313
   37loPI    C1  577  16.620  10.320  10.337  0.0918  0.2202 -0.0535
   37loPI    C2  578  16.846  10.467  10.632 -0.0238  0.1765  0.0577
   37loPI    C3  579  16.557  10.203  10.714 -0.0538  0.1611 -0.0956
   37loPI   PO4  580  16.601  10.460  10.204  0.1837  0.0665 -0.1909
   37loPI   GL1  581  16.736  10.747   9.857  0.1773  0.1840  0.0975
   37loPI   GL2  582  16.608  10.698   9.582  0.2409  0.0366  0.1343
   37loPI   C1A  583  17.047  10.970   9.660  0.1228 -0.2846  0.0189
   37loPI   C2A  584  17.262  11.009   9.137  0.0520  0.0998 -0.1583
   37loPI   C3A  585  17.235  11.105   8.635  0.3305  0.2806 -0.1593
   37loPI   C4A  586  17.230  11.129   8.231  0.1322 -0.2846  0.2424
   37loPI   C5A  587  16.973  11.035   7.836  0.0308 -0.0468  0.1517
   37loPI   C6A  588  16.914  10.819   7.493 -0.0357  0.1751  0.1433
   37loPI   C1B  589  16.868  10.759   9.282  0.0227  0.0292  0.0876
   37loPI   C2B  590  16.885  10.769   8.789 -0.0386  0.1265 -0.1541
   37loPI   C3B  591  16.854  10.850   8.376 -0.1012 -0.0622 -0.0184
   37loPI   C4B  592  17.131  10.549   8.061  0.2565  0.3848  0.0859
   38loPI    C1  593   2.922   5.627  10.825 -0.1958  0.0110 -0.0914
   38loPI    C2  594   3.240   5.399  10.739 -0.2778 -0.1736  0.0873
   38loPI    C3  595   3.279   5.716  10.980 -0.1491  0.0473 -0.2184
   38loPI   PO4  596   2.809   5.691  10.661  0.0452 -0.2679  0.0376
   38loPI   GL1  597   2.661   5.811  10.346 -0.0386 -0.1863  0.0427
   38loPI   GL2  598   2.947   5.713  10.115  0.0837  0.0071  0.0434
   38loPI   C1A  599   2.447   5.920  10.048  0.2263  0.2020 -0.2970
   38loPI   C2A  600   2.376   5.767   9.654 -0.2582 -0.1996  0.0937
   38loPI   C3A  601   2.306   5.657   9.134  0.2378  0.2248 -0.2046
   38loPI   C4A  602   2.216   5.617   8.731 -0.0668 -0.1858  0.2247
   38loPI   C5A  603   2.097   5.552   8.341  0.0436 -0.1560 -0.0568
   38loPI   C6A  604   1.672   5.621   8.253  0.0980 -0.0992 -0.0035
   38loPI   C1B  605   2.854   5.663   9.647 -0.3286 -0.0096 -0.2186
   38loPI   C2B  606   2.814   5.555   9.248 -0.0859  0.1474 -0.2091
   38loPI   C3B  607   2.658   5.361   8.872 -0.0485 -0.2933  0.1786
   38loPI   C4B  608   2.421   5.121   8.483 -0.0006  0.0708 -0.4374
   39loPI    C1  609  16.927   6.018  10.581  0.0029  0.2309  0.1071
   39loPI    C2  610  17.155   5.925  10.896  0.2540 -0.1826 -0.1863
   39loPI    C3  611  16.786   5.774  10.865  0.3131 -0.3264 -0.2000
   39loPI   PO4  612  17.027   5.974  10.387 -0.1072 -0.0567  0.0201
   39loPI   GL1  613  17.112   5.876   9.939 -0.1369 -0.2372  0.1137
   39loPI   GL2  614  17.265   5.600   9.723  0.2309 -0.1992 -0.1356
   39loPI   C1A  615  16.836   5.946   9.657  0.2728  0.2408  0.3223
   39loPI   C2A  616  16.642   5.844   9.347  0.0504  0.0501  0.0815
   39loPI   C3A  617  16.599   5.908   9.018 -0.3198 -0.0495 -0.1190
   39loPI   C4A  618  16.772   5.796   8.682 -0.1077  0.1810 -0.0064
   39loPI   C5A  619  16.748   5.722   8.340  0.1967 -0.0576  0.0430
   39loPI   C6A  620  16.557   5.917   7.972 -0.0541  0.1071  0.0651
   39loPI   C1B  621  16.966   5.475   9.472 -0.1529  0.1614  0.0674
   39loPI   C2B  622  16.905   5.465   9.114  0.0055  0.0041 -0.0063
   39loPI   C3B  623  16.867   5.290   8.625  0.0043 -0.0455 -0.0311
   39loPI   C4B  624  16.715   5.228   8.200  0.0306 -0.1109  0.1294
   40loPI    C1  625   9.660  17.617  10.310 -0.0197  0.1918 -0.0187
   40loPI    C2  626   9.801  17.701  10.675 -0.0937 -0.1105  0.0823
   40loPI    C3  627   9.488  17.455  10.633 -0.3584  0.2568 -0.1619
   40loPI   PO4  628   9.701  17.468  10.116  0.1256  0.2715 -0.0397
   40loPI   GL1  629   9.871  17.429   9.702 -0.0252  0.2246 -0.2504
   40loPI   GL2  630   9.993  17.057   9.733  0.3070 -0.0519 -0.2148
   40loPI   C1A  631   9.677  17.753   9.365 -0.0079 -0.2877  0.1187
   40loPI   C2A  632   9.688  17.841   8.936  0.2247  0.0152  0.0318
   40loPI   C3A  633   9.922  17.813   8.516 -0.0022  0.4210  0.0055
   40loPI   C4A  634   9.879  17.802   8.015 -0.0824 -0.1811 -0.2493
   40loPI   C5A  635  10.034  17.766   7.586  0.1673 -0.2043  0.1743
   40loPI   C6A  636  10.187  17.271   7.435  0.0030 -0.3198  0.1036
   40loPI   C1B  637  10.022  17.162   9.327  0.5408 -0.1172 -0.0596
   40loPI   C2B  638  10.213  17.052   8.850 -0.0158  0.1410  0.1816
   40loPI   C3B  639  10.264  16.928   8.417 -0.0358  0.0119 -0.3657
   40loPI   C4B  640  10.132  16.949   8.040  0.2724  0.0273  0.0081
   41loPI    C1  641  18.227   4.206  10.182 -0.0277  0.0075  0.0168
   41loPI    C2  642  18.179   4.063  10.552  0.1193 -0.3201 -0.0872
   41loPI    C3  643  18.499   4.287  10.465 -0.1641  0.1751  0.1021
   41loPI   PO4  644  18.273   3.999   9.993  0.1018  0.1020 -0.2978
   41loPI   GL1  645  18.128   3.893   9.593 -0.1811  0.3250  0.0410
   41loPI   GL2  646  17.922   4.102   9.421 -0.0979 -0.1785 -0.0860
   41loPI   C1A  647  18.526   3.739   9.321 -0.1092  0.1389  0.2650
   41loPI   C2A  648  18.802   3.697   8.933 -0.0372  0.0651  0.0012
   41loPI   C3A  649  18.782   3.724   8.478 -0.0876 -0.1219  0.1290
   41loPI   C4A  650  18.637   3.603   8.188  0.0953  0.1439  0.1979
   41loPI   C5A  651  18.473   3.501   7.737 -0.1801 -0.1146  0.1354
   41loPI   C6A  652  18.118   3.300   7.598 -0.1021  0.2360  0.0521
   41loPI   C1B  653  17.733   3.950   9.038  0.0895 -0.2666  0.2682
   41loPI   C2B  654  17.596   3.908   8.593 -0.0324  0.0223 -0.1913
   41loPI   C3B  655  17.642   3.556   8.213  0.1823  0.0573  0.1210
   41loPI   C4B  656  17.357   3.413   7.830  0.4867  0.1211 -0.0798
   42loPI    C1  657   5.407  16.818  10.119  0.1519  0.1257 -0.1048
   42loPI    C2  658   5.215  16.475  10.192  0.1213  0.1136 -0.2402
   42loPI    C3  659   5.207  16.769  10.462 -0.0370  0.0904 -0.2184
   42loPI   PO4  660   5.447  16.771   9.798  0.4176  0.3859 -0.2320
   42loPI   GL1  661   5.237  16.879   9.382  0.2873  0.2863 -0.2400
   42loPI   GL2  662   5.049  17.079   9.610  0.0144  0.1287  0.0841
   42loPI   C1A  663   5.138  16.742   8.918  0.0419  0.1313 -0.0503
   42loPI   C2A  664   5.236  16.781   8.518  0.2911 -0.0881 -0.0226
   42loPI   C3A  665   4.901  16.638   8.150 -0.0203 -0.0463  0.2235
   42loPI   C4A  666   4.517  16.680   8.070 -0.1867  0.1458 -0.0942
   42loPI   C5A  667   4.227  16.641   7.723  0.1198  0.0354  0.1450
   42loPI   C6A  668   3.915  16.296   7.478  0.4401 -0.0665 -0.1414
   42loPI   C1B  669   5.012  17.248   9.096  0.0516 -0.1364  0.2287
   42loPI   C2B  670   5.014  17.291   8.707 -0.2700 -0.0265 -0.2691
   42loPI   C3B  671   5.086  17.483   8.290 -0.2556  0.0294  0.1109
   42loPI   C4B  672   5.364  17.528   7.967  0.2596  0.2771 -0.0395
   43loPI    C1  673  11.455  13.255  10.535 -0.0123 -0.1271  0.0372
   43loPI    C2  674  11.340  12.878  10.466 -0.2270 -0.0790  0.1241
   43loPI    C3  675  11.210  13.070  10.791 -0.0182  0.0291  0.1453
   43loPI   PO4  676  11.416  13.359  10.223  0.1788  0.0626 -0.0530
   43loPI   GL1  677  11.024  13.467   9.944 -0.3092  0.0649  0.0437
   43loPI   GL2  678  11.343  13.397   9.729 -0.2075 -0.2694 -0.0478
   43loPI   C1A  679  10.880  13.491   9.515  0.1577 -0.1863  0.2795
   43loPI   C2A  680  10.895  13.686   9.141  0.1812 -0.0447  0.2852
   43loPI   C3A  681  10.732  14.052   8.932 -0.1150 -0.0718 -0.1200
   43loPI   C4A  682  10.478  14.003   8.629 -0.2929 -0.0246  0.2231
   43loPI   C5A  683  10.657  13.741   8.246 -0.1290 -0.2165  0.5622
   43loPI   C6A  684  10.948  13.849   8.011 -0.3017 -0.0127  0.0851
   43loPI   C1B  685  11.291  13.396   9.247  0.0397 -0.2539 -0.0546
   43loPI   C2B  686  11.264  13.535   8.793 -0.2624  0.1652 -0.1002
   43loPI   C3B  687  11.215  13.497   8.329  0.2911 -0.1882 -0.1587
   43loPI   C4B  688  11.324  13.511   7.870  0.1314 -0.3782  0.2316
   44loPI    C1  689   2.062   7.005  10.481 -0.3563 -0.2751 -0.1683
   44loPI    C2  690   2.352   6.920  10.743 -0.1423 -0.1333 -0.3556
   44loPI    C3  691   2.008   7.078  10.871  0.0647  0.1930 -0.1872
   44loPI   PO4  692   2.208   6.795  10.237  0.1013  0.3685 -0.1768
   44loPI   GL1  693   2.403   6.764   9.833 -0.0929 -0.5478  0.3148
   44loPI   GL2  694   2.202   6.413   9.880  0.0767 -0.0209  0.1457
   44loPI   C1A  695   2.298   6.698   9.480  0.0426 -0.1920  0.0380
   44loPI   C2A  696   2.389   6.609   9.089  0.3533 -0.1690  0.1712
   44loPI   C3A  697   2.541   6.525   8.655  0.1692  0.4882 -0.0714
   44loPI   C4A  698   2.681   6.417   8.236  0.0772 -0.0310 -0.0609
   44loPI   C5A  699   2.370   6.343   7.934 -0.0078  0.0898 -0.1846
   44loPI   C6A  700   2.196   6.496   7.651 -0.2040 -0.0355  0.3892
   44loPI   C1B  701   1.867   6.563   9.677 -0.2356  0.0039 -0.2245
   44loPI   C2B  702   1.926   6.526   9.216  0.1662 -0.1278 -0.3792
   44loPI   C3B  703   1.911   6.533   8.725  0.2421  0.1256  0.0485
   44loPI   C4B  704   2.149   6.503   8.341  0.0377 -0.0223  0.0088
   45loPI    C1  705  11.702  11.908  10.262 -0.0203 -0.0304  0.1312
   45loPI    C2  706  12.005  12.070  10.468 -0.0684 -0.0200  0.1941
   45loPI    C3  707  11.633  12.086  10.614 -0.1067  0.0099  0.0940
   45loPI   PO4  708  11.741  12.014  10.020 -0.1425  0.1010 -0.1294
   45loPI   GL1  709  11.815  12.277   9.651 -0.1393 -0.2509 -0.0269
   45loPI   GL2  710  11.783  12.554   9.565 -0.1762  0.2818  0.1997
   45loPI   C1A  711  11.868  12.120   9.269 -0.0701  0.3330 -0.1810
   45loPI   C2A  712  11.803  12.233   8.838 -0.1869 -0.1421 -0.2746
   45loPI   C3A  713  11.702  12.229   8.451 -0.3956  0.0102 -0.1502
   45loPI   C4A  714  11.727  12.307   7.972 -0.3369  0.1707 -0.0518
   45loPI   C5A  715  11.754  12.426   7.560 -0.0467  0.1763  0.1397
   45loPI   C6A  716  11.608  12.599   7.171 -0.0994 -0.0272  0.1383
   45loPI   C1B  717  11.829  12.623   9.114 -0.4423  0.0692  0.0689
   45loPI   C2B  718  11.750  12.699   8.740  0.1799 -0.0720  0.0495
   45loPI   C3B  719  11.726  12.727   8.301  0.0130 -0.2773 -0.4949
   45loPI   C4B  720  11.710  12.817   7.946  0.1418  0.0326  0.0230
   46loPI    C1  721  13.929   8.893   9.789  0.2179  0.2010  0.2906
   46loPI    C2  722  13.533   8.949   9.784  0.1996  0.0779 -0.3014
   46loPI    C3  723  13.777   9.258   9.851  0.0058  0.0954  0.4078
   46loPI   PO4  724  14.001   8.699   9.628 -0.1691  0.0323 -0.0698
   46loPI   GL1  725  14.330   8.837   9.350  0.0539  0.0731  0.1006
   46loPI   GL2  726  14.121   9.071   9.273  0.3104  0.0597 -0.1731
   46loPI   C1A  727  14.356   8.804   8.890 -0.0611 -0.0904  0.1734
   46loPI   C2A  728  13.990   8.688   8.631 -0.2932 -0.1359 -0.1309
   46loPI   C3A  729  13.816   8.535   8.260  0.2474  0.0454 -0.4069
   46loPI   C4A  730  13.498   8.547   7.927 -0.0352  0.1066  0.0262
   46loPI   C5A  731  13.213   8.565   7.623  0.0490 -0.0497 -0.1511
   46loPI   C6A  732  13.152   8.383   7.240  0.0718  0.0156  0.3058
   46loPI   C1B  733  14.126   9.204   8.843 -0.0581  0.2948 -0.0902
   46loPI   C2B  734  13.959   9.256   8.408 -0.1730  0.0169  0.0760
   46loPI   C3B  735  13.777   9.071   7.962  0.1017  0.0049  0.1234
   46loPI   C4B  736  13.494   9.048   7.614 -0.0197 -0.0634  0.1315
   47loPI    C1  737  18.550   0.559   9.945 -0.0713  0.1273 -0.1814
   47loPI    C2  738  18.795   0.798   9.739  0.0817  0.0420 -0.0996
   47loPI    C3  739  18.644   0.920  10.089  0.3230 -0.0591  0.0422
   47loPI   PO4  740  18.751   0.258   9.802  0.0772 -0.0204  0.2547
   47loPI   GL1  741  18.720  -0.048   9.474 -0.0039  0.3185 -0.0575
   47loPI   GL2  742  18.563  -0.274   9.523  0.3395  0.1728 -0.0929
   47loPI   C1A  743  18.960  -0.192   9.086  0.1123  0.5007 -0.2290
   47loPI   C2A  744  18.915  -0.260   8.611 -0.0084 -0.0613  0.0063
   47loPI   C3A  745  18.612  -0.099   8.335 -0.0132  0.1223  0.0425
   47loPI   C4A  746  18.271   0.112   8.080 -0.0607 -0.0161  0.1175
   47loPI   C5A  747  18.051  -0.050   7.819 -0.2391  0.0372  0.1579
   47loPI   C6A  748  18.364  -0.061   7.470 -0.1945  0.2891 -0.1036
   47loPI   C1B  749  18.349  -0.114   9.093 -0.2422 -0.0070  0.1291
   47loPI   C2B  750  18.273  -0.279   8.644 -0.0568  0.1495  0.1030
   47loPI   C3B  751  18.153  -0.369   8.271 -0.4104  0.4060 -0.1262
   47loPI   C4B  752  17.863  -0.710   8.084 -0.0034 -0.0609  0.1772
   48loPI    C1  753  10.357   2.508  10.165 -0.1250 -0.0318  0.1031
   48loPI    C2  754  10.184   2.161  10.067  0.0212 -0.1035  0.0960
   48loPI    C3  755  10.301   2.227  10.444  0.0896 -0.1044  0.0752
   48loPI   PO4  756  10.583   2.547   9.977  0.1081 -0.1794  0.2764
   48loPI   GL1  757  10.747   2.898   9.724 -0.1865  0.2296 -0.1641
   48loPI   GL2  758  10.626   2.670   9.465 -0.2699 -0.1629 -0.1732
   48loPI   C1A  759  10.870   3.228   9.472 -0.0787  0.1940 -0.1754
   48loPI   C2A  760  10.974   3.355   9.019  0.0123 -0.0854 -0.0089
   48loPI   C3A  761  11.060   3.238   8.593  0.0324 -0.1922 -0.0425
   48loPI   C4A  762  11.251   3.040   8.325  0.1032  0.0309 -0.3438
   48loPI   C5A  763  11.295   2.783   8.094 -0.1741  0.2855 -0.0910
   48loPI   C6A  764  11.158   2.325   7.912 -0.1386  0.1605 -0.0618
   48loPI   C1B  765  10.494   2.472   9.154 -0.2121 -0.0098  0.0862
   48loPI   C2B  766  10.503   2.428   8.695 -0.0704 -0.2399  0.1552
   48loPI   C3B  767  10.516   2.443   8.313 -0.0277  0.1636  0.1051
   48loPI   C4B  768  10.709   2.479   7.909 -0.0881  0.0566  0.3097
   49loPI    C1  769  12.329  12.406   9.833 -0.2688 -0.1878 -0.0588
   49loPI    C2  770  12.415  12.243  10.188  0.2097 -0.0449 -0.1017
   49loPI    C3  771  12.235  12.024   9.905 -0.2267 -0.1439  0.2412
   49loPI   PO4  772  12.626  12.614   9.877  0.1061  0.0170  0.1317
   49loPI   GL1  773  12.710  12.573   9.469  0.1119  0.1569  0.4025
   49loPI   GL2  774  12.829  12.380   9.339 -0.1639  0.0391  0.2795
   49loPI   C1A  775  12.726  12.856   9.162  0.1895 -0.1430  0.0512
   49loPI   C2A  776  12.731  12.768   8.763 -0.0980  0.1058  0.3098
   49loPI   C3A  777  12.698  12.770   8.313  0.0358 -0.2382  0.3872
   49loPI   C4A  778  12.755  13.057   7.919  0.3441 -0.1170 -0.0736
   49loPI   C5A  779  12.741  13.226   7.482  0.0697 -0.0002  0.1999
   49loPI   C6A  780  12.717  13.070   7.009 -0.1082 -0.2725  0.3296
   49loPI   C1B  781  12.695  12.290   8.921 -0.2247  0.1020  0.0677
   49loPI   C2B  782  12.716  12.189   8.490  0.1213 -0.0569  0.1472
   49loPI   C3B  783  12.755  12.151   8.028  0.2942  0.0097 -0.3795
   49loPI   C4B  784  12.957  12.301   7.626  0.1963 -0.1471 -0.1108
   50loPI    C1  785  13.207   5.244  10.146 -0.1370  0.0362  0.0378
   50loPI    C2  786  13.013   5.490  10.395  0.0539  0.3058 -0.0752
   50loPI    C3  787  13.268   5.218  10.540 -0.1733  0.1570  0.0518
   50loPI   PO4  788  13.386   5.362   9.973  0.0942 -0.3303  0.1491
   50loPI   GL1  789  13.463   5.416   9.598 -0.0660  0.1222 -0.1528
   50loPI   GL2  790  13.659   5.233   9.464 -0.1041 -0.3010  0.2180
   50loPI   C1A  791  13.355   5.680   9.216  0.2985  0.1163 -0.0226
   50loPI   C2A  792  13.304   5.540   8.745  0.1114 -0.0615  0.0742
   50loPI   C3A  793  12.983   5.350   8.467 -0.1116 -0.0909 -0.0730
   50loPI   C4A  794  12.611   5.109   8.202 -0.0678 -0.0909 -0.2563
   50loPI   C5A  795  12.203   4.925   8.162 -0.2279 -0.0715 -0.0461
   50loPI   C6A  796  11.971   4.529   7.957  0.1181 -0.0268 -0.1560
   50loPI   C1B  797  13.675   5.349   9.131  0.0015  0.0884 -0.0513
   50loPI   C2B  798  13.815   5.640   8.816 -0.0612 -0.0155  0.1403
   50loPI   C3B  799  13.879   5.777   8.374 -0.1963  0.0401 -0.0676
   50loPI   C4B  800  14.011   5.893   7.893 -0.3528  0.2011 -0.2879
   51loPI    C1  801   3.714   4.847  10.445 -0.0018  0.1050  0.0349
   51loPI    C2  802   3.781   4.638  10.779  0.1118  0.3708  0.1817
   51loPI    C3  803   3.572   4.978  10.795  0.1049  0.3774 -0.0214
   51loPI   PO4  804   3.634   4.598  10.177 -0.0814 -0.3778 -0.4117
   51loPI   GL1  805   3.639   4.597   9.768  0.1784  0.1212 -0.2662
   51loPI   GL2  806   3.460   4.442   9.658 -0.0943  0.1626  0.1144
   51loPI   C1A  807   3.554   4.931   9.414 -0.0311 -0.0240 -0.0517
   51loPI   C2A  808   3.683   5.139   9.158 -0.1690 -0.3075 -0.0778
   51loPI   C3A  809   3.685   5.156   8.779  0.1675  0.1947  0.3588
   51loPI   C4A  810   3.733   5.104   8.408  0.1504 -0.1957  0.0018
   51loPI   C5A  811   3.641   4.945   8.039 -0.0047  0.3113 -0.0378
   51loPI   C6A  812   3.498   4.663   7.805 -0.2572  0.1995 -0.1466
   51loPI   C1B  813   3.744   4.494   9.293  0.4111  0.0690  0.1942
   51loPI   C2B  814   3.841   4.178   8.975  0.3227  0.0937 -0.2659
   51loPI   C3B  815   3.938   4.163   8.510  0.0384 -0.1072 -0.2846
   51loPI   C4B  816   4.403   4.315   8.330  0.2209 -0.0148  0.0122
   52loPI    C1  817   6.002   9.759  10.233  0.0424  0.0119 -0.3032
   52loPI    C2  818   5.647   9.781  10.418  0.1553 -0.2134 -0.0529
   52loPI    C3  819   5.921  10.067  10.476 -0.0495  0.0605 -0.3944
   52loPI   PO4  820   5.948   9.504  10.074 -0.0706  0.1703 -0.1029
   52loPI   GL1  821   5.860   9.542   9.741 -0.3345 -0.2270  0.1496
   52loPI   GL2  822   5.697   9.218   9.708 -0.1853 -0.0543 -0.3849
   52loPI   C1A  823   5.697   9.616   9.349  0.3261  0.1003  0.0895
   52loPI   C2A  824   5.456   9.736   9.019  0.4482  0.1506  0.3288
   52loPI   C3A  825   5.384   9.792   8.584 -0.0231  0.0925  0.3059
   52loPI   C4A  826   5.256   9.718   8.178  0.2079  0.2306 -0.0110
   52loPI   C5A  827   5.126   9.412   7.857 -0.0476  0.0044 -0.3857
   52loPI   C6A  828   4.880   9.052   7.642  0.0395  0.2168  0.0033
   52loPI   C1B  829   5.752   8.876   9.468  0.1152  0.2323 -0.0538
   52loPI   C2B  830   5.926   8.945   9.068  0.0726 -0.3444  0.1607
   52loPI   C3B  831   6.140   8.983   8.687  0.1680  0.2928 -0.2049
   52loPI   C4B  832   6.069   9.138   8.321  0.4966  0.2300 -0.2582
   53loPI    C1  833   0.715   8.643  10.967 -0.1571  0.1750  0.2658
   53loPI    C2  834   0.804   8.305  11.161 -0.0705 -0.0020 -0.0733
   53loPI    C3  835   0.424   8.389  11.071 -0.0831 -0.0551 -0.0698
   53loPI   PO4  836   0.865   8.659  10.640  0.2939  0.1636 -0.1658
   53loPI   GL1  837   0.716   8.757  10.307 -0.0330 -0.1546  0.2784
   53loPI   GL2  838   0.982   8.732  10.074  0.1243 -0.0799  0.2460
   53loPI   C1A  839   0.508   9.019   9.865 -0.1490 -0.0586  0.2506
   53loPI   C2A  840   0.559   9.155   9.436  0.1319  0.1309 -0.0257
   53loPI   C3A  841   0.824   9.139   9.016  0.0823  0.2211 -0.2083
   53loPI   C4A  842   1.054   8.956   8.714 -0.0771  0.2963 -0.4675
   53loPI   C5A  843   1.192   8.907   8.261  0.1553  0.3581  0.0228
   53loPI   C6A  844   1.280   8.849   7.870  0.1190  0.2834  0.1995
   53loPI   C1B  845   1.072   8.600   9.616  0.0107  0.0275 -0.3289
   53loPI   C2B  846   1.186   8.699   9.108  0.2193  0.1957 -0.5196
   53loPI   C3B  847   1.441   8.719   8.629 -0.1257  0.0444  0.0755
   53loPI   C4B  848   1.660   8.753   8.257  0.1033 -0.0023 -0.0118
   54loPI    C1  849  13.564   2.891  10.557  0.2621  0.0498  0.0378
   54loPI    C2  850  13.907   2.796  10.739  0.1517  0.0993  0.2746
   54loPI    C3  851  13.662   3.067  10.902 -0.0448 -0.0047  0.1563
   54loPI   PO4  852  13.658   2.893  10.316 -0.4373 -0.3224 -0.0720
   54loPI   GL1  853  13.494   2.846   9.881 -0.0092 -0.1282 -0.1234
   54loPI   GL2  854  13.066   2.842   9.763 -0.2783 -0.0426  0.3835
   54loPI   C1A  855  13.538   2.734   9.424  0.3540 -0.1347 -0.0929
   54loPI   C2A  856  13.848   2.701   9.126  0.2061  0.0230  0.0143
   54loPI   C3A  857  14.032   2.326   8.810 -0.0020  0.2726 -0.4337
   54loPI   C4A  858  14.146   2.198   8.427  0.1662  0.2027  0.1911
   54loPI   C5A  859  14.165   2.011   7.908  0.1515  0.1329 -0.1870
   54loPI   C6A  860  14.502   1.791   7.750 -0.1781 -0.0274 -0.2533
   54loPI   C1B  861  12.963   2.792   9.314  0.1218  0.2132  0.0200
   54loPI   C2B  862  13.096   2.876   8.818  0.1273 -0.0620  0.4514
   54loPI   C3B  863  13.183   2.799   8.452 -0.0467 -0.1783  0.3808
   54loPI   C4B  864  13.300   2.683   8.012 -0.1431 -0.0318 -0.0862
   55loPI    C1  865  16.851   9.835  10.497 -0.0067  0.0596  0.0009
   55loPI    C2  866  17.037   9.999  10.811  0.1153  0.0250 -0.0524
   55loPI    C3  867  16.786   9.692  10.865  0.0484  0.0927  0.0237
   55loPI   PO4  868  16.989   9.985  10.216  0.2299  0.0368  0.2396
   55loPI   GL1  869  17.416   9.893   9.991  0.0051  0.1302  0.0716
   55loPI   GL2  870  17.486  10.126   9.795  0.1410  0.0123  0.0855
   55loPI   C1A  871  17.498   9.722   9.492 -0.0498 -0.2061 -0.0132
   55loPI   C2A  872  17.504   9.292   9.224 -0.0947 -0.0978  0.0208
   55loPI   C3A  873  17.560   9.055   8.809 -0.1705  0.3604 -0.1072
   55loPI   C4A  874  17.587   9.190   8.468 -0.2048  0.0858 -0.0035
   55loPI   C5A  875  17.814   9.289   8.108  0.2260 -0.1980 -0.0120
   55loPI   C6A  876  17.916   9.249   7.693  0.3198 -0.1196  0.0074
   55loPI   C1B  877  17.680  10.267   9.407 -0.2857 -0.4081 -0.0424
   55loPI   C2B  878  17.768  10.366   8.971  0.3362 -0.4071 -0.1353
   55loPI   C3B  879  17.878  10.441   8.557 -0.0070  0.1621 -0.0900
   55loPI   C4B  880  18.040  10.588   8.146 -0.0499  0.2368 -0.2320
   56loPI    C1  881  10.147  17.873  10.294 -0.1550 -0.0604 -0.0365
   56loPI    C2  882  10.195  18.110  10.613 -0.5403  0.0053 -0.0229
   56loPI    C3  883  10.345  17.739  10.614 -0.2515  0.1200  0.1007
   56loPI   PO4  884  10.225  18.085  10.095  0.1538  0.3498 -0.1630
   56loPI   GL1  885  10.161  18.080   9.646 -0.1914 -0.2453 -0.1287
   56loPI   GL2  886  10.349  18.280   9.651 -0.0677  0.2649  0.4133
   56loPI   C1A  887  10.126  18.100   9.195  0.1237 -0.3675  0.0170
   56loPI   C2A  888  10.128  18.225   8.795  0.1805  0.0872  0.5573
   56loPI   C3A  889   9.958  18.235   8.328 -0.3504  0.0321  0.0612
   56loPI   C4A  890   9.915  18.273   7.843  0.1933  0.2287  0.1286
   56loPI   C5A  891   9.741  18.289   7.521  0.0105 -0.0419 -0.0535
   56loPI   C6A  892   9.479  18.500   7.271 -0.3953 -0.1865 -0.0934
   56loPI   C1B  893  10.536  18.376   9.239 -0.2437  0.3304 -0.3069
   56loPI   C2B  894  10.530  18.453   8.792  0.3684 -0.0129 -0.1900
   56loPI   C3B  895  10.453  18.341   8.343  0.2655  0.1701 -0.0938
   56loPI   C4B  896  10.415  18.251   7.870  0.1483  0.0256 -0.0080
   57loPI    C1  897  16.657  11.977  10.028 -0.0587  0.3186 -0.0112
   57loPI    C2  898  16.495  12.070  10.382 -0.2268 -0.1129  0.0313
   57loPI    C3  899  16.260  12.002  10.066 -0.0804  0.1975 -0.1491
   57loPI   PO4  900  16.775  12.181  10.004  0.3906  0.2693  0.0261
   57loPI   GL1  901  16.809  12.489   9.703 -0.1875  0.0829  0.0478
   57loPI   GL2  902  17.120  12.405   9.526 -0.1613 -0.0075 -0.3105
   57loPI   C1A  903  16.752  12.583   9.242  0.0780 -0.0854 -0.0744
   57loPI   C2A  904  16.799  12.650   8.799  0.1920  0.3025 -0.0362
   57loPI   C3A  905  17.035  12.738   8.363 -0.1237 -0.0758  0.1866
   57loPI   C4A  906  16.880  12.970   7.986 -0.1030 -0.3642  0.1212
   57loPI   C5A  907  16.633  12.851   7.585  0.0635 -0.2026  0.0148
   57loPI   C6A  908  16.534  12.423   7.369  0.3584 -0.1695 -0.0570
   57loPI   C1B  909  17.398  12.350   9.250  0.1295  0.2689 -0.0076
   57loPI   C2B  910  17.445  12.398   8.835 -0.1618  0.2571  0.2129
   57loPI   C3B  911  17.537  12.568   8.395 -0.0023 -0.3078  0.1235
   57loPI   C4B  912  17.460  12.772   8.083  0.2055  0.3362  0.0130
   58loPI    C1  913   1.331   4.184  10.324 -0.0389 -0.1513 -0.0707
   58loPI    C2  914   1.277   4.237  10.717  0.0306  0.3218 -0.1187
   58loPI    C3  915   1.602   4.386  10.538  0.1349 -0.1222 -0.3138
   58loPI   PO4  916   1.113   4.205  10.218  0.3394  0.0010 -0.4774
   58loPI   GL1  917   1.104   4.352   9.878  0.2073  0.2348 -0.2547
   58loPI   GL2  918   1.025   4.080   9.767  0.1506  0.1944 -0.0873
   58loPI   C1A  919   1.029   4.617   9.510  0.3588 -0.0268  0.3953
   58loPI   C2A  920   1.072   4.657   9.061 -0.1828 -0.2429 -0.4330
   58loPI   C3A  921   1.109   4.515   8.681 -0.0566  0.1517  0.1646
   58loPI   C4A  922   1.081   4.593   8.163  0.0403 -0.0695 -0.1383
   58loPI   C5A  923   1.197   4.760   7.860 -0.2322  0.0620 -0.1764
   58loPI   C6A  924   1.193   5.061   7.491 -0.2609  0.0686  0.2966
   58loPI   C1B  925   0.965   4.039   9.250 -0.1180  0.0037  0.1288
   58loPI   C2B  926   0.797   4.198   8.897 -0.3110  0.0472 -0.2075
   58loPI   C3B  927   0.994   4.080   8.456 -0.0545  0.0709  0.0319
   58loPI   C4B  928   0.926   3.933   8.060  0.1021 -0.0231 -0.0569
   59loPI    C1  929  12.862   5.561   9.724  0.0346 -0.0652 -0.1850
   59loPI    C2  930  13.079   5.841   9.538 -0.1196  0.1333 -0.0703
   59loPI    C3  931  13.124   5.781   9.931  0.0298 -0.1171 -0.1234
   59loPI   PO4  932  12.928   5.274   9.589 -0.1337  0.1591 -0.3875
   59loPI   GL1  933  13.170   5.158   9.296 -0.2699 -0.3433 -0.0529
   59loPI   GL2  934  13.273   4.865   9.307  0.1258 -0.0620 -0.1503
   59loPI   C1A  935  13.206   5.051   8.861 -0.2548 -0.0140 -0.2412
   59loPI   C2A  936  13.355   5.025   8.400  0.0450  0.1875 -0.2316
   59loPI   C3A  937  13.300   5.047   7.940  0.1303 -0.0260 -0.2654
   59loPI   C4A  938  13.593   5.037   7.752 -0.2960 -0.2888  0.1176
   59loPI   C5A  939  13.884   4.732   7.696 -0.2247 -0.0815  0.1712
   59loPI   C6A  940  14.133   4.362   7.690  0.0316  0.0418 -0.1593
   59loPI   C1B  941  13.613   4.847   9.111  0.0077 -0.0578  0.0315
   59loPI   C2B  942  13.725   4.761   8.682  0.0043  0.3377  0.1607
   59loPI   C3B  943  13.479   4.566   8.253  0.0016  0.1956  0.0998
   59loPI   C4B  944  13.424   4.515   7.856 -0.4379 -0.1336 -0.1309
   60loPI    C1  945  12.433  18.466   9.905  0.1116  0.0332  0.1538
   60loPI    C2  946  12.067  18.367   9.775  0.1626  0.0941 -0.0398
   60loPI    C3  947  12.128  18.442  10.164 -0.0797  0.3084 -0.0402
   60loPI   PO4  948  12.541  18.608   9.716  0.2304  0.0724  0.2614
   60loPI   GL1  949  12.930  18.431   9.549  0.0193  0.1253  0.0088
   60loPI   GL2  950  13.051  18.703   9.470  0.0054  0.0834 -0.0610
   60loPI   C1A  951  12.877  18.291   9.093  0.1919 -0.2332  0.1384
   60loPI   C2A  952  12.670  18.049   8.719 -0.1785 -0.0916 -0.0493
   60loPI   C3A  953  12.742  17.830   8.427  0.0290 -0.0436  0.4455
   60loPI   C4A  954  12.471  17.623   8.160  0.0350 -0.0945 -0.1058
   60loPI   C5A  955  12.392  17.579   7.792  0.2279  0.3009 -0.2975
   60loPI   C6A  956  12.268  17.251   7.571 -0.1655  0.1569 -0.0298
   60loPI   C1B  957  12.829  18.863   9.127  0.0674  0.3970 -0.3196
   60loPI   C2B  958  12.959  18.927   8.705 -0.0331  0.1999 -0.1732
   60loPI   C3B  959  12.961  18.797   8.224 -0.4353  0.1128 -0.0101
   60loPI   C4B  960  13.005  18.996   7.849  0.2821 -0.0947  0.2378
   61loPI    C1  961  16.562   4.741  10.350  0.0348 -0.0242 -0.0973
   61loPI    C2  962  16.707   4.581  10.687  0.1224 -0.1000 -0.1703
   61loPI    C3  963  16.728   4.976  10.629 -0.4326 -0.0075  0.1775
   61loPI   PO4  964  16.602   4.487  10.153  0.0693  0.0985 -0.2064
   61loPI   GL1  965  16.510   4.281   9.752 -0.0513  0.0634  0.1595
   61loPI   GL2  966  16.694   3.999   9.562 -0.3344 -0.1721  0.0110
   61loPI   C1A  967  16.207   4.312   9.340 -0.0525  0.0634  0.0751
   61loPI   C2A  968  16.000   4.021   9.065 -0.4509 -0.2683  0.0599
   61loPI   C3A  969  15.762   4.013   8.708  0.0262  0.0787 -0.0018
   61loPI   C4A  970  15.535   4.201   8.399 -0.2366  0.3977  0.1873
   61loPI   C5A  971  15.456   4.157   8.030  0.1814 -0.1902  0.1945
   61loPI   C6A  972  15.454   3.785   7.764  0.2832 -0.2012 -0.0040
   61loPI   C1B  973  16.533   3.940   9.167 -0.0105 -0.1091  0.0566
   61loPI   C2B  974  16.516   3.855   8.756  0.1996  0.1470 -0.1285
   61loPI   C3B  975  16.643   3.816   8.264  0.0826 -0.1179 -0.0801
   61loPI   C4B  976  16.799   3.573   7.946  0.0225  0.0126  0.1299
   62loPI    C1  977   5.276   1.001   9.778 -0.0807  0.1088  0.1414
   62loPI    C2  978   5.407   1.340   9.945  0.0916  0.1125  0.0015
   62loPI    C3  979   5.388   1.005  10.162 -0.2260  0.2437  0.1833
   62loPI   PO4  980   5.052   1.080   9.692 -0.0252  0.2058 -0.3207
   62loPI   GL1  981   4.874   1.144   9.312 -0.0007  0.0798 -0.2018
   62loPI   GL2  982   4.897   1.016   9.037 -0.2777  0.1791  0.0271
   62loPI   C1A  983   5.036   1.522   8.996  0.0995  0.2885  0.2540
   62loPI   C2A  984   5.146   1.652   8.618 -0.1503  0.0605 -0.1171
   62loPI   C3A  985   5.252   1.791   8.077 -0.0960  0.2006  0.1692
   62loPI   C4A  986   5.054   1.573   7.649 -0.0308 -0.2388 -0.1650
   62loPI   C5A  987   4.699   1.544   7.392  0.1676  0.2028 -0.2219
   62loPI   C6A  988   4.358   1.367   7.418  0.2461 -0.2696 -0.1365
   62loPI   C1B  989   4.901   0.848   8.692  0.3663 -0.0466 -0.1672
   62loPI   C2B  990   4.977   0.888   8.217 -0.0346  0.1484 -0.3130
   62loPI   C3B  991   4.996   0.781   7.867 -0.2665 -0.0145  0.0074
   62loPI   C4B  992   4.804   0.496   7.581 -0.0666 -0.0890 -0.0887
   63loPI    C1  993  10.812  16.901  10.325  0.0091  0.1328  0.1091
   63loPI    C2  994  10.583  17.163  10.522  0.1082  0.1718  0.1732
   63loPI    C3  995  10.416  16.851  10.337 -0.0046  0.2476  0.1465
   63loPI   PO4  996  10.937  17.028  10.124  0.1679  0.2088  0.1555
   63loPI   GL1  997  11.077  17.065   9.752  0.2922  0.0911  0.0452
   63loPI   GL2  998  10.885  17.366   9.650 -0.0171  0.0937  0.0176
   63loPI   C1A  999  11.150  17.093   9.367 -0.1132  0.1899 -0.4690
   63loPI   C2A 1000  11.123  17.198   8.906  0.0965 -0.1337  0.0131
   63loPI   C3A 1001  11.232  17.236   8.543  0.4235  0.1017 -0.0878
   63loPI   C4A 1002  11.438  17.336   8.191  0.0631  0.2672  0.1791
   63loPI   C5A 1003  11.496  17.277   7.811 -0.0574 -0.0046 -0.3983
   63loPI   C6A 1004  11.734  17.287   7.391 -0.1942  0.3378  0.1542
   63loPI   C1B 1005  11.051  17.562   9.187 -0.1789 -0.2428  0.1200
   63loPI   C2B 1006  11.123  17.720   8.855  0.1549  0.2796  0.2445
   63loPI   C3B 1007  11.108  17.694   8.381 -0.1190  0.0638 -0.1204
   63loPI   C4B 1008  10.989  17.951   8.035 -0.3525 -0.0448  0.0738
   64loPI    C1 1009   1.974  15.018  10.239 -0.0652  0.0400 -0.0954
   64loPI    C2 1010   1.970  15.265  10.554  0.1691 -0.1274  0.0415
   64loPI    C3 1011   1.661  15.020  10.489  0.0359  0.0414  0.0323
   64loPI   PO4 1012   2.059  15.198  10.012  0.2216 -0.1095  0.1436
   64loPI   GL1 1013   1.881  15.298   9.634  0.0946 -0.2572 -0.1412
   64loPI   GL2 1014   1.808  15.608   9.650 -0.0932  0.0957 -0.0755
   64loPI   C1A 1015   1.816  15.151   9.206 -0.1559 -0.0338  0.1058
   64loPI   C2A 1016   1.847  15.289   8.795 -0.0039 -0.2415 -0.0352
   64loPI   C3A 1017   1.659  15.262   8.416  0.0046 -0.0061  0.0203
   64loPI   C4A 1018   1.670  15.185   7.989 -0.1338 -0.3642 -0.3131
   64loPI   C5A 1019   1.839  15.296   7.552  0.0663 -0.2037 -0.0227
   64loPI   C6A 1020   2.038  15.518   7.168  0.0652  0.0270  0.1672
   64loPI   C1B 1021   1.625  15.617   9.252  0.0897  0.0315 -0.1282
   64loPI   C2B 1022   1.526  15.691   8.771 -0.3141  0.1289 -0.0032
   64loPI   C3B 1023   1.349  15.668   8.410  0.2440  0.0334 -0.1232
   64loPI   C4B 1024   1.267  15.532   7.986 -0.0975  0.1683 -0.3722
   65loPI    C1 1025   5.772  10.367  10.057 -0.0757  0.0151  0.0315
   65loPI    C2 1026   5.445  10.226  10.237 -0.0475 -0.0139  0.0602
   65loPI    C3 1027   5.636  10.002   9.967 -0.0941  0.0325 -0.0118
   65loPI   PO4 1028   5.689  10.663  10.016 -0.1220  0.1329 -0.1105
   65loPI   GL1 1029   5.611  10.826   9.574  0.1089 -0.2320 -0.2975
   65loPI   GL2 1030   5.945  11.079   9.407  0.0650 -0.1138  0.0663
   65loPI   C1A 1031   5.531  10.828   9.133 -0.0269 -0.1336  0.0287
   65loPI   C2A 1032   5.500  10.761   8.734 -0.2676 -0.1971  0.0111
   65loPI   C3A 1033   5.254  10.952   8.352 -0.0632 -0.0551  0.1509
   65loPI   C4A 1034   5.198  11.271   8.004  0.4169 -0.1478  0.1020
   65loPI   C5A 1035   5.217  11.350   7.565 -0.1050  0.0741 -0.0364
   65loPI   C6A 1036   5.096  11.416   7.155 -0.0290 -0.1122 -0.1748
   65loPI   C1B 1037   5.967  10.955   8.949  0.3408 -0.1688  0.0909
   65loPI   C2B 1038   6.106  11.007   8.541 -0.1632  0.2323 -0.3556
   65loPI   C3B 1039   5.892  10.871   8.208  0.0707  0.1230 -0.1494
   65loPI   C4B 1040   5.586  10.899   7.946  0.0343 -0.1293  0.2098
   66loPI    C1 1041   0.741   5.843  10.531 -0.2884 -0.1283 -0.0683
   66loPI    C2 1042   0.510   6.134  10.679 -0.0957  0.0485 -0.1102
   66loPI    C3 1043   0.687   5.874  10.926  0.0828  0.2347 -0.0394
   66loPI   PO4 1044   0.611   5.728  10.348 -0.1392  0.0588 -0.2983
   66loPI   GL1 1045   0.706   5.830   9.983 -0.0471  0.0478  0.0277
   66loPI   GL2 1046   1.041   5.906   9.999 -0.3110  0.2249 -0.2581
   66loPI   C1A 1047   0.835   5.593   9.567  0.2140  0.2161 -0.0192
   66loPI   C2A 1048   0.848   5.620   9.108  0.2916 -0.0461  0.3725
   66loPI   C3A 1049   0.856   5.539   8.680  0.1427 -0.0050  0.1203
   66loPI   C4A 1050   0.807   5.513   8.265  0.0152 -0.2196  0.4493
   66loPI   C5A 1051   1.151   5.413   7.969  0.0361 -0.1650 -0.3068
   66loPI   C6A 1052   1.521   5.286   7.889 -0.1962  0.0732  0.2239
   66loPI   C1B 1053   1.108   6.073   9.659 -0.3068  0.0150  0.1181
   66loPI   C2B 1054   1.129   5.951   9.272 -0.0717 -0.0818 -0.1988
   66loPI   C3B 1055   1.164   5.934   8.800 -0.0342  0.0225  0.4519
   66loPI   C4B 1056   1.203   5.877   8.284 -0.0107 -0.0734  0.2863
   67loPI    C1 1057  13.453  16.685  10.327  0.0840  0.0715  0.1063
   67loPI    C2 1058  13.784  16.895  10.408  0.1836 -0.0671  0.0614
   67loPI    C3 1059  13.663  16.608  10.659  0.1371 -0.0651  0.0414
   67loPI   PO4 1060  13.358  16.857  10.061  0.0609 -0.1533  0.0760
   67loPI   GL1 1061  13.445  16.885   9.648 -0.1628  0.1758 -0.0359
   67loPI   GL2 1062  13.497  16.642   9.451  0.1384  0.2812  0.0413
   67loPI   C1A 1063  13.554  17.063   9.194  0.2162  0.2497 -0.1542
   67loPI   C2A 1064  13.805  16.881   8.830 -0.3335 -0.0768  0.1438
   67loPI   C3A 1065  13.800  16.948   8.471 -0.0232  0.2650 -0.1702
   67loPI   C4A 1066  13.736  17.163   8.061 -0.1696  0.1720 -0.1084
   67loPI   C5A 1067  13.450  17.194   7.833 -0.0653 -0.3716  0.0909
   67loPI   C6A 1068  13.136  16.923   7.825  0.0854  0.0752  0.2042
   67loPI   C1B 1069  13.606  16.481   9.064  0.1184 -0.2739 -0.1737
   67loPI   C2B 1070  13.381  16.586   8.650 -0.0708  0.1464 -0.1299
   67loPI   C3B 1071  13.418  16.568   8.131 -0.0425  0.0416  0.2459
   67loPI   C4B 1072  13.628  16.670   7.685 -0.0977 -0.0070  0.2147
   68loPI    C1 1073   8.154   5.635  10.495  0.1484 -0.1229  0.0452
   68loPI    C2 1074   7.814   5.525  10.315  0.0979 -0.0585  0.1005
   68loPI    C3 1075   7.823   5.855  10.541  0.1522 -0.1568  0.2428
   68loPI   PO4 1076   8.354   5.511  10.311 -0.2265  0.3926 -0.3624
   68loPI   GL1 1077   8.260   5.431   9.892  0.2802 -0.1254 -0.1109
   68loPI   GL2 1078   8.140   5.281   9.917  0.6099 -0.0416  0.0804
   68loPI   C1A 1079   8.224   5.769   9.709 -0.2419 -0.2339  0.0802
   68loPI   C2A 1080   8.404   5.919   9.306 -0.0006 -0.3047 -0.2281
   68loPI   C3A 1081   8.429   5.841   8.843  0.1380 -0.1035 -0.2411
   68loPI   C4A 1082   8.497   5.952   8.462 -0.4580  0.1574  0.0865
   68loPI   C5A 1083   8.355   6.127   8.008  0.0111  0.1598  0.1573
   68loPI   C6A 1084   8.536   6.117   7.571  0.0200 -0.1265  0.2257
   68loPI   C1B 1085   8.127   5.356   9.398 -0.1022  0.0498  0.1021
   68loPI   C2B 1086   8.184   5.409   8.956  0.2498 -0.3305 -0.1692
   68loPI   C3B 1087   8.447   5.243   8.765 -0.1379  0.3798 -0.1998
   68loPI   C4B 1088   8.550   5.146   8.332  0.3752  0.0374 -0.3933
   69loPI    C1 1089  11.300  17.401  10.313 -0.1011 -0.1306  0.0909
   69loPI    C2 1090  11.670  17.292  10.419 -0.0954 -0.0032  0.2046
   69loPI    C3 1091  11.461  17.542  10.651 -0.0834  0.2800 -0.0824
   69loPI   PO4 1092  11.298  17.447  10.013 -0.1643  0.0943  0.2309
   69loPI   GL1 1093  11.403  17.566   9.538  0.3992  0.1773  0.2116
   69loPI   GL2 1094  11.219  17.816   9.675 -0.1557  0.1099 -0.1135
   69loPI   C1A 1095  11.538  17.561   9.069  0.0428 -0.0498 -0.2399
   69loPI   C2A 1096  11.639  17.553   8.616 -0.2429 -0.0905 -0.1511
   69loPI   C3A 1097  11.682  17.836   8.248  0.0653  0.1071  0.0504
   69loPI   C4A 1098  11.460  17.889   7.834  0.0171  0.2302  0.2667
   69loPI   C5A 1099  11.670  17.829   7.449  0.0779 -0.3073 -0.1989
   69loPI   C6A 1100  12.186  17.848   7.396 -0.0376 -0.4935 -0.0474
   69loPI   C1B 1101  11.117  18.150   9.398  0.0370 -0.0149 -0.4310
   69loPI   C2B 1102  10.986  18.193   9.029  0.2769  0.1839  0.3177
   69loPI   C3B 1103  10.929  18.137   8.546 -0.0655 -0.0052  0.3161
   69loPI   C4B 1104  10.879  18.454   8.106  0.0832 -0.0672 -0.2215
   70loPI    C1 1105  15.140   8.217   9.733 -0.1353 -0.0712 -0.0717
   70loPI    C2 1106  15.082   8.523   9.984 -0.0244 -0.0964 -0.0148
   70loPI    C3 1107  14.781   8.273   9.901 -0.0509 -0.1116  0.1246
   70loPI   PO4 1108  15.368   8.153   9.654  0.0092 -0.1783  0.1040
   70loPI   GL1 1109  15.393   8.312   9.231  0.0582  0.1540  0.1230
   70loPI   GL2 1110  15.166   8.524   9.111 -0.2018 -0.0495  0.3108
   70loPI   C1A 1111  15.542   8.363   8.779  0.3914  0.0607 -0.1145
   70loPI   C2A 1112  15.646   8.298   8.262  0.3648  0.1641 -0.0273
   70loPI   C3A 1113  15.664   8.442   7.961 -0.0711  0.3054 -0.1039
   70loPI   C4A 1114  15.660   8.957   7.866  0.1542  0.0073 -0.0950
   70loPI   C5A 1115  15.882   9.360   7.736 -0.0544 -0.2136  0.0080
   70loPI   C6A 1116  16.288   9.632   7.517 -0.2331  0.1831 -0.3773
   70loPI   C1B 1117  14.737   8.374   8.853 -0.1973 -0.0357  0.1227
   70loPI   C2B 1118  14.456   8.410   8.508  0.1960  0.0449 -0.1417
   70loPI   C3B 1119  14.305   8.370   8.130  0.0151  0.2369 -0.0267
   70loPI   C4B 1120  14.415   8.350   7.706  0.3731  0.1274 -0.0942
   71loPI    C1 1121  15.592   8.408  10.026 -0.0686  0.0084  0.0717
   71loPI    C2 1122  15.647   8.424  10.421 -0.1198 -0.1732  0.0869
   71loPI    C3 1123  15.336   8.222  10.270  0.0160 -0.2789 -0.0539
   71loPI   PO4 1124  15.627   8.651   9.952 -0.1393 -0.0661 -0.3468
   71loPI   GL1 1125  15.703   8.593   9.548 -0.1318  0.0666  0.2740
   71loPI   GL2 1126  15.666   8.936   9.462  0.0020 -0.1504 -0.2903
   71loPI   C1A 1127  15.881   8.615   9.117 -0.0585 -0.1423  0.0961
   71loPI   C2A 1128  15.695   8.889   8.792  0.3614  0.1193 -0.0415
   71loPI   C3A 1129  15.399   8.691   8.461 -0.2801  0.0498  0.3770
   71loPI   C4A 1130  15.167   8.847   8.075  0.2389  0.1695 -0.2298
   71loPI   C5A 1131  15.047   9.043   7.604  0.3339  0.0534 -0.0154
   71loPI   C6A 1132  14.608   9.282   7.453  0.0707 -0.2057  0.0355
   71loPI   C1B 1133  15.890   9.173   9.135  0.0639  0.1557  0.1371
   71loPI   C2B 1134  16.182   9.372   8.816 -0.0998 -0.1416  0.0148
   71loPI   C3B 1135  16.239   9.557   8.500 -0.1718  0.2481 -0.1650
   71loPI   C4B 1136  16.197   9.532   8.079 -0.1457  0.2344 -0.1328
   72loPI    C1 1137   9.563   1.505  10.065  0.1103  0.0907  0.0755
   72loPI    C2 1138   9.411   1.694  10.384  0.0016 -0.1941  0.1960
   72loPI    C3 1139   9.179   1.616  10.067  0.1224  0.1341  0.0215
   72loPI   PO4 1140   9.835   1.607  10.008  0.2635 -0.1234  0.0479
   72loPI   GL1 1141   9.901   1.760   9.657 -0.1755 -0.0280 -0.0662
   72loPI   GL2 1142   9.884   1.961   9.586  0.0900 -0.2030 -0.0306
   72loPI   C1A 1143   9.854   1.540   9.153  0.0391 -0.4510 -0.2052
   72loPI   C2A 1144   9.725   1.772   8.738 -0.1253  0.1469 -0.0439
   72loPI   C3A 1145   9.744   1.979   8.358 -0.0982  0.2528  0.2845
   72loPI   C4A 1146   9.858   2.015   7.952  0.1822 -0.2918  0.0311
   72loPI   C5A 1147   9.635   1.853   7.624  0.0535 -0.0820  0.0879
   72loPI   C6A 1148   9.777   1.426   7.520 -0.3978  0.0323  0.4110
   72loPI   C1B 1149   9.680   2.005   9.190 -0.1807  0.1257  0.6448
   72loPI   C2B 1150   9.485   2.165   8.838  0.0558 -0.0379 -0.1526
   72loPI   C3B 1151   9.426   2.269   8.471  0.1904  0.0616  0.3479
   72loPI   C4B 1152   9.642   2.554   8.115  0.3479 -0.4184  0.1918
   73loPI    C1 1153   1.001   9.345  10.554  0.0169 -0.1227  0.0772
   73loPI    C2 1154   1.202   9.012  10.463  0.0361 -0.1290  0.1420
   73loPI    C3 1155   1.101   9.087  10.842  0.2589  0.0652  0.1651
   73loPI   PO4 1156   0.740   9.349  10.348  0.0380  0.1100 -0.0788
   73loPI   GL1 1157   0.858   9.425  10.028 -0.4669  0.1092  0.2054
   73loPI   GL2 1158   0.714   9.742   9.912  0.0052 -0.1383  0.3098
   73loPI   C1A 1159   1.070   9.118   9.768 -0.0116 -0.0425  0.0108
   73loPI   C2A 1160   1.221   9.217   9.312  0.0031  0.2206  0.1597
   73loPI   C3A 1161   1.338   9.293   8.864  0.4268 -0.1552 -0.1063
   73loPI   C4A 1162   1.525   9.231   8.537  0.1290  0.0438 -0.0713
   73loPI   C5A 1163   1.576   9.270   8.130  0.1982 -0.1263 -0.0892
   73loPI   C6A 1164   1.457   9.637   7.836 -0.0658 -0.0256  0.0043
   73loPI   C1B 1165   0.863   9.528   9.550 -0.2553 -0.1156  0.0077
   73loPI   C2B 1166   0.978   9.639   9.128 -0.0283 -0.3716  0.2300
   73loPI   C3B 1167   0.968   9.556   8.730  0.0543  0.0150  0.1612
   73loPI   C4B 1168   1.009   9.452   8.291  0.2603  0.0895  0.2238
   74loPI    C1 1169   2.375   6.332  10.487  0.1932  0.0379 -0.0670
   74loPI    C2 1170   2.407   6.482  10.856 -0.0569  0.0867 -0.0627
   74loPI    C3 1171   2.542   6.114  10.777  0.0764  0.1093  0.0553
   74loPI   PO4 1172   2.107   6.277  10.457  0.0170 -0.1150  0.0631
   74loPI   GL1 1173   1.879   6.105  10.131 -0.0772  0.2079 -0.0135
   74loPI   GL2 1174   1.772   5.856  10.244  0.1577  0.3473 -0.0466
   74loPI   C1A 1175   1.732   6.076   9.728 -0.3021 -0.0198  0.1590
   74loPI   C2A 1176   2.104   6.120   9.382 -0.3074 -0.0237 -0.1620
   74loPI   C3A 1177   2.102   6.093   8.878 -0.0069 -0.1708 -0.0300
   74loPI   C4A 1178   2.195   6.045   8.438 -0.0660  0.1194  0.0142
   74loPI   C5A 1179   2.456   5.916   8.220 -0.2395 -0.1618 -0.2446
   74loPI   C6A 1180   2.591   5.578   8.085  0.2386 -0.1331 -0.1707
   74loPI   C1B 1181   1.997   5.649   9.938 -0.0084 -0.0223 -0.0878
   74loPI   C2B 1182   1.922   5.605   9.523 -0.1576 -0.0195  0.1082
   74loPI   C3B 1183   1.753   5.793   9.219  0.1270 -0.1556 -0.1041
   74loPI   C4B 1184   1.695   5.752   8.802  0.0274 -0.3106 -0.3296
   75loPI    C1 1185   7.165   2.335  10.362  0.1834  0.2139 -0.1086
   75loPI    C2 1186   6.948   2.041  10.524  0.1504  0.2784 -0.0347
   75loPI    C3 1187   7.282   2.167  10.706  0.1733  0.2759 -0.0747
   75loPI   PO4 1188   7.093   2.302  10.092  0.0038 -0.0557 -0.3109
   75loPI   GL1 1189   7.144   2.450   9.647 -0.0044 -0.0990  0.1261
   75loPI   GL2 1190   6.812   2.462   9.447 -0.2468  0.0665 -0.0554
   75loPI   C1A 1191   7.285   2.720   9.330  0.2642  0.1420 -0.0756
   75loPI   C2A 1192   7.092   2.886   8.988  0.0380 -0.1339  0.0596
   75loPI   C3A 1193   6.943   3.100   8.489  0.0217 -0.3090 -0.5958
   75loPI   C4A 1194   6.794   3.045   8.185 -0.1207  0.2587 -0.0146
   75loPI   C5A 1195   6.814   3.179   7.795 -0.1708  0.0536 -0.2776
   75loPI   C6A 1196   6.855   3.144   7.444 -0.0626 -0.1400 -0.2069
   75loPI   C1B 1197   6.883   2.495   9.067 -0.1393  0.3282  0.0452
   75loPI   C2B 1198   6.916   2.556   8.587 -0.0506  0.1935 -0.0755
   75loPI   C3B 1199   6.818   2.565   8.169 -0.2271  0.0871 -0.3086
   75loPI   C4B 1200   6.774   2.673   7.807  0.2172 -0.0547  0.0738
   76loPI    C1 1201   4.443  14.360   9.863 -0.0339  0.0595 -0.2598
   76loPI    C2 1202   4.410  14.757   9.902 -0.0665  0.0164  0.2131
   76loPI    C3 1203   4.676  14.556  10.124  0.4369 -0.1532 -0.5083
   76loPI   PO4 1204   4.355  14.320   9.562 -0.0857 -0.1469 -0.0181
   76loPI   GL1 1205   4.077  14.253   9.273  0.1708  0.1413  0.0561
   76loPI   GL2 1206   3.696  14.080   9.136  0.0752  0.1739  0.0046
   76loPI   C1A 1207   4.302  14.248   8.916  0.0724  0.2272  0.3334
   76loPI   C2A 1208   4.276  14.310   8.453  0.1477 -0.1719 -0.2578
   76loPI   C3A 1209   4.122  14.523   8.070  0.2124 -0.0720  0.1013
   76loPI   C4A 1210   4.075  14.227   7.643  0.0874  0.0859  0.1315
   76loPI   C5A 1211   4.368  14.003   7.409  0.1530 -0.0819  0.2679
   76loPI   C6A 1212   4.831  14.142   7.099  0.1766  0.2084 -0.3033
   76loPI   C1B 1213   3.575  14.019   8.690 -0.3809 -0.1057  0.0967
   76loPI   C2B 1214   3.777  14.222   8.385 -0.1085  0.0654  0.0990
   76loPI   C3B 1215   3.688  14.360   7.916  0.2374 -0.0902  0.0771
   76loPI   C4B 1216   3.225  14.410   7.746 -0.1419  0.1217  0.1050
   77loPI    C1 1217   7.956  15.994  10.266  0.2198 -0.0538  0.1828
   77loPI    C2 1218   7.956  15.641  10.454 -0.0665 -0.2052 -0.0927
   77loPI    C3 1219   7.681  15.916  10.546 -0.0634 -0.1909 -0.1262
   77loPI   PO4 1220   8.000  15.965  10.018  0.0359  0.1923 -0.0524
   77loPI   GL1 1221   8.144  15.873   9.665 -0.2580  0.0230  0.0368
   77loPI   GL2 1222   8.322  16.123   9.487 -0.2514  0.2997 -0.1075
   77loPI   C1A 1223   8.084  15.580   9.267 -0.0445 -0.2910  0.0576
   77loPI   C2A 1224   8.042  15.657   8.842 -0.1225 -0.0249 -0.0910
   77loPI   C3A 1225   8.114  15.818   8.362 -0.0412 -0.1481  0.2233
   77loPI   C4A 1226   8.089  15.834   7.947 -0.1563  0.1543 -0.1509
   77loPI   C5A 1227   7.975  16.027   7.642  0.1575  0.0057 -0.1803
   77loPI   C6A 1228   8.187  16.262   7.351  0.4104  0.0295  0.0472
   77loPI   C1B 1229   8.370  16.307   9.088  0.4440  0.1172  0.0228
   77loPI   C2B 1230   8.238  16.308   8.682  0.2042  0.3780 -0.4347
   77loPI   C3B 1231   8.226  16.256   8.323  0.0745  0.2125 -0.1524
   77loPI   C4B 1232   8.101  16.510   7.935 -0.1263 -0.1449 -0.4467
   78loPI    C1 1233  14.951   0.436  10.102  0.0257  0.1402  0.0900
   78loPI    C2 1234  15.324   0.298  10.142 -0.0686 -0.0892  0.1936
   78loPI    C3 1235  15.016   0.082  10.278 -0.2538  0.0110 -0.0611
   78loPI   PO4 1236  14.936   0.556   9.912  0.1815  0.1380  0.0449
   78loPI   GL1 1237  14.859   0.444   9.514  0.0211  0.2037  0.2174
   78loPI   GL2 1238  14.476   0.423   9.579  0.5434  0.0563  0.1578
   78loPI   C1A 1239  15.028   0.542   9.088 -0.1858  0.2104  0.1925
   78loPI   C2A 1240  15.064   0.375   8.710  0.0327  0.0904  0.1771
   78loPI   C3A 1241  14.958   0.345   8.282 -0.1410 -0.0284  0.1433
   78loPI   C4A 1242  14.929   0.040   7.939 -0.1062 -0.2697 -0.1702
   78loPI   C5A 1243  14.608  -0.181   7.657 -0.2676  0.0106  0.0849
   78loPI   C6A 1244  14.389  -0.547   7.676 -0.1613 -0.0249 -0.1988
   78loPI   C1B 1245  14.392   0.502   9.156  0.4095 -0.0487  0.3172
   78loPI   C2B 1246  14.159   0.561   8.803 -0.1447 -0.0117  0.2442
   78loPI   C3B 1247  13.970   0.417   8.401 -0.0029 -0.0617  0.1689
   78loPI   C4B 1248  14.035   0.383   8.002 -0.1547  0.2283  0.3180
   79loPI    C1 1249  12.274  17.497   9.746 -0.0284 -0.1615 -0.2686
   79loPI    C2 1250  12.610  17.591   9.551  0.0300 -0.0069 -0.0953
   79loPI    C3 1251  12.626  17.478   9.935 -0.1247  0.0958 -0.0578
   79loPI   PO4 1252  12.141  17.308   9.600  0.0311 -0.0896 -0.1009
   79loPI   GL1 1253  12.065  17.303   9.284  0.4140 -0.0124  0.1586
   79loPI   GL2 1254  11.928  17.142   9.107  0.0760  0.2051 -0.2514
   79loPI   C1A 1255  12.013  17.643   9.024  0.2524 -0.0838  0.0457
   79loPI   C2A 1256  12.082  17.882   8.605 -0.0991 -0.3027  0.1669
   79loPI   C3A 1257  12.347  18.106   8.226  0.1578  0.3663  0.2847
   79loPI   C4A 1258  12.629  18.052   7.896 -0.0349 -0.0239 -0.1244
   79loPI   C5A 1259  12.775  17.793   7.593  0.1396  0.0004 -0.0809
   79loPI   C6A 1260  12.662  17.993   7.226 -0.1445 -0.2609 -0.0533
   79loPI   C1B 1261  12.056  17.251   8.704  0.2828  0.1213  0.2176
   79loPI   C2B 1262  11.977  17.401   8.279 -0.0845  0.2340  0.3664
   79loPI   C3B 1263  11.875  17.603   7.867 -0.0702 -0.1184  0.1580
   79loPI   C4B 1264  11.965  18.037   7.878  0.2790  0.2737  0.4795
   80loPI    C1 1265   2.789   3.172  10.195 -0.1592 -0.1765 -0.3171
   80loPI    C2 1266   3.176   3.177  10.093 -0.0182 -0.1327  0.1905
   80loPI    C3 1267   3.023   2.859  10.283 -0.2232 -0.1308  0.0320
   80loPI   PO4 1268   2.681   3.230   9.991 -0.2669 -0.0128 -0.1634
   80loPI   GL1 1269   2.386   3.288   9.687 -0.4786  0.0919  0.1422
   80loPI   GL2 1270   2.321   2.935   9.709 -0.1282 -0.2970 -0.1737
   80loPI   C1A 1271   2.626   3.487   9.358  0.1088  0.0034 -0.4827
   80loPI   C2A 1272   2.717   3.445   8.874  0.1635 -0.0984  0.4457
   80loPI   C3A 1273   2.835   3.460   8.406 -0.0899  0.0429  0.0302
   80loPI   C4A 1274   2.747   3.524   8.033 -0.0827  0.1312  0.1782
   80loPI   C5A 1275   2.456   3.631   7.740  0.5132 -0.0579 -0.0793
   80loPI   C6A 1276   2.300   3.305   7.399 -0.1343 -0.3348 -0.0723
   80loPI   C1B 1277   2.266   3.033   9.220 -0.1032 -0.1794 -0.1005
   80loPI   C2B 1278   2.410   2.917   8.898  0.3470 -0.0088 -0.0379
   80loPI   C3B 1279   2.419   3.119   8.508 -0.0712 -0.1670 -0.1527
   80loPI   C4B 1280   2.250   3.423   8.127 -0.3242 -0.1731 -0.0252
   81loPI    C1 1281  18.029   4.889  10.276 -0.0673  0.2483 -0.0900
   81loPI    C2 1282  18.131   4.607  10.542 -0.1058  0.2033 -0.1226
   81loPI    C3 1283  18.098   4.989  10.658  0.1246  0.2231 -0.1167
   81loPI   PO4 1284  17.856   4.711  10.118  0.1643  0.0289 -0.0594
   81loPI   GL1 1285  17.755   4.835   9.742  0.2851  0.3014  0.1835
   81loPI   GL2 1286  17.767   4.546   9.528  0.0150  0.1722  0.0832
   81loPI   C1A 1287  17.838   5.018   9.305  0.2594 -0.2953  0.3193
   81loPI   C2A 1288  17.839   5.050   8.854  0.1724 -0.1894  0.0769
   81loPI   C3A 1289  17.759   5.159   8.425 -0.1315  0.1008 -0.1915
   81loPI   C4A 1290  17.600   5.268   8.079 -0.0060 -0.0363 -0.0051
   81loPI   C5A 1291  17.260   5.181   7.787  0.2465 -0.2009  0.2762
   81loPI   C6A 1292  17.251   5.184   7.303  0.2864 -0.0589 -0.3509
   81loPI   C1B 1293  17.877   4.451   9.083 -0.2521 -0.1477 -0.1370
   81loPI   C2B 1294  17.698   4.640   8.622 -0.1493  0.0695 -0.0213
   81loPI   C3B 1295  18.027   4.667   8.341 -0.2079 -0.4578  0.0820
   81loPI   C4B 1296  18.401   4.444   8.073  0.0159  0.0905  0.1404
   82loPI    C1 1297  11.532  12.427  10.201 -0.1066  0.0906 -0.0409
   82loPI    C2 1298  11.924  12.508  10.186 -0.0546 -0.1113  0.1724
   82loPI    C3 1299  11.716  12.587  10.518 -0.2107  0.0571  0.0368
   82loPI   PO4 1300  11.394  12.461   9.968 -0.0726  0.0587 -0.0953
   82loPI   GL1 1301  11.184  12.246   9.578  0.2840 -0.1890  0.0310
   82loPI   GL2 1302  10.865  12.049   9.450 -0.0708  0.0492 -0.1015
   82loPI   C1A 1303  11.398  12.293   9.220  0.0971  0.1422 -0.0729
   82loPI   C2A 1304  11.324  12.444   8.787 -0.1633  0.2326  0.1253
   82loPI   C3A 1305  11.265  12.403   8.364 -0.2380  0.0349  0.0526
   82loPI   C4A 1306  11.306  12.504   7.966  0.0738  0.2282  0.0097
   82loPI   C5A 1307  11.227  12.641   7.515  0.2523 -0.1231  0.0967
   82loPI   C6A 1308  11.155  12.435   7.115  0.1587  0.1312  0.1138
   82loPI   C1B 1309  10.799  12.031   9.019 -0.2781  0.2230 -0.1077
   82loPI   C2B 1310  10.763  12.134   8.600  0.0885 -0.0578  0.1687
   82loPI   C3B 1311  10.822  12.205   8.118 -0.0949 -0.1622  0.0289
   82loPI   C4B 1312  10.698  12.377   7.688  0.3500  0.3807 -0.1070
   83loPI    C1 1313   0.291  15.391  10.365 -0.0812 -0.0158 -0.0100
   83loPI    C2 1314   0.597  15.334  10.115 -0.2151  0.2418 -0.2373
   83loPI    C3 1315   0.555  15.685  10.303 -0.2640  0.1404 -0.0568
   83loPI   PO4 1316   0.057  15.304  10.271  0.0776 -0.2447  0.0018
   83loPI   GL1 1317  -0.176  15.409   9.974 -0.0045  0.2368  0.2656
   83loPI   GL2 1318  -0.412  15.220   9.891 -0.1151  0.2572 -0.0046
   83loPI   C1A 1319  -0.200  15.381   9.468  0.1602 -0.0563 -0.4158
   83loPI   C2A 1320   0.013  15.478   9.065 -0.0348  0.0268 -0.2652
   83loPI   C3A 1321   0.036  15.288   8.602 -0.1375 -0.0337 -0.1164
   83loPI   C4A 1322  -0.146  15.500   8.254  0.0080 -0.1705  0.1585
   83loPI   C5A 1323  -0.279  15.307   7.868  0.2399  0.0851 -0.1403
   83loPI   C6A 1324  -0.070  15.241   7.487 -0.1209 -0.1639  0.0825
   83loPI   C1B 1325  -0.607  15.074   9.642  0.3511  0.0742 -0.0071
   83loPI   C2B 1326  -0.541  15.031   9.200 -0.2541 -0.0761  0.0165
   83loPI   C3B 1327  -0.387  15.134   8.756 -0.2422  0.0899 -0.3479
   83loPI   C4B 1328  -0.420  15.017   8.324  0.0693 -0.0344 -0.0876
   84loPI    C1 1329   2.746  16.314   9.996 -0.3114 -0.1125 -0.1764
   84loPI    C2 1330   2.698  15.960   9.815  0.0220 -0.2831  0.0577
   84loPI    C3 1331   2.909  15.985  10.154  0.0761  0.1559 -0.0016
   84loPI   PO4 1332   2.801  16.583   9.839 -0.5112 -0.0700  0.2137
   84loPI   GL1 1333   2.419  16.827   9.603  0.0896  0.1858 -0.0813
   84loPI   GL2 1334   2.606  17.054   9.455 -0.5069 -0.0537 -0.0983
   84loPI   C1A 1335   2.288  16.660   9.356 -0.0362 -0.0917  0.2033
   84loPI   C2A 1336   2.012  16.687   8.960 -0.0580  0.1314  0.2582
   84loPI   C3A 1337   2.057  16.586   8.518 -0.0261 -0.0190  0.2983
   84loPI   C4A 1338   2.108  16.668   8.053  0.2724  0.4368  0.1329
   84loPI   C5A 1339   1.861  16.850   7.788 -0.2284  0.0788  0.1486
   84loPI   C6A 1340   1.568  16.976   7.522  0.1831  0.0859  0.0424
   84loPI   C1B 1341   2.814  17.104   9.028 -0.1709  0.2387  0.0199
   84loPI   C2B 1342   2.777  17.190   8.628  0.0619 -0.0894 -0.0783
   84loPI   C3B 1343   3.005  17.132   8.282 -0.0854  0.0590  0.1541
   84loPI   C4B 1344   3.447  16.993   8.143 -0.1504 -0.4042 -0.0333
   85loPI    C1 1345   0.417   7.693  10.385  0.2113  0.0561 -0.1978
   85loPI    C2 1346   0.756   7.634  10.590  0.0673  0.0496  0.0424
   85loPI    C3 1347   0.408   7.500  10.735 -0.0493  0.1204 -0.1670
   85loPI   PO4 1348   0.479   7.632  10.180 -0.0720 -0.2173  0.2888
   85loPI   GL1 1349   0.366   7.624   9.742 -0.2108  0.3028  0.1079
   85loPI   GL2 1350   0.697   7.811   9.711  0.0545 -0.1378 -0.0245
   85loPI   C1A 1351   0.529   7.332   9.345  0.0931 -0.0214 -0.3550
   85loPI   C2A 1352   0.408   7.098   8.975  0.0324  0.1325 -0.0694
   85loPI   C3A 1353   0.416   7.046   8.435  0.0907 -0.0168 -0.1455
   85loPI   C4A 1354   0.255   7.206   7.994  0.2612  0.1252 -0.2317
   85loPI   C5A 1355  -0.076   7.217   7.794 -0.1930  0.0966 -0.1280
   85loPI   C6A 1356  -0.480   6.847   7.819  0.2357  0.1398 -0.2788
   85loPI   C1B 1357   0.633   7.778   9.242  0.0192  0.1621  0.1243
   85loPI   C2B 1358   0.425   7.655   8.867 -0.2021 -0.1597 -0.1772
   85loPI   C3B 1359   0.439   7.565   8.410 -0.0964 -0.0172 -0.2930
   85loPI   C4B 1360   0.401   7.837   8.059  0.2060  0.1156 -0.0611
   86loPI    C1 1361  16.559  14.601  10.551 -0.0052  0.0281 -0.0162
   86loPI    C2 1362  16.643  14.684  10.933  0.0344 -0.0159 -0.0154
   86loPI    C3 1363  16.656  14.306  10.803  0.0229 -0.0008 -0.0608
   86loPI   PO4 1364  16.365  14.712  10.347 -0.0296  0.3772  0.0322
   86loPI   GL1 1365  16.380  14.548   9.894  0.3644  0.1195  0.0159
   86loPI   GL2 1366  16.321  14.835   9.852  0.2401  0.0435 -0.1871
   86loPI   C1A 1367  15.920  14.452   9.698  0.0858 -0.0288 -0.0814
   86loPI   C2A 1368  15.514  14.441   9.474 -0.0033 -0.0559  0.1884
   86loPI   C3A 1369  15.474  14.417   8.973  0.3360  0.0655  0.0514
   86loPI   C4A 1370  15.359  14.432   8.582 -0.0192  0.0154  0.2415
   86loPI   C5A 1371  15.490  14.200   8.302 -0.2019 -0.2635 -0.0012
   86loPI   C6A 1372  15.405  14.205   7.813  0.0854 -0.0702  0.2017
   86loPI   C1B 1373  16.359  14.780   9.464  0.0018  0.1636  0.3055
   86loPI   C2B 1374  16.521  14.790   9.017  0.3460  0.2480 -0.1608
   86loPI   C3B 1375  16.342  14.728   8.576 -0.0941  0.0757 -0.1868
   86loPI   C4B 1376  16.387  14.632   8.139 -0.2650 -0.1798 -0.1345
   87loPI    C1 1377   4.792   2.002   9.945  0.1410  0.0533  0.0455
   87loPI    C2 1378   4.577   1.870  10.256 -0.0513  0.0022 -0.1069
   87loPI    C3 1379   4.811   2.192  10.296 -0.3576  0.2170 -0.0084
   87loPI   PO4 1380   4.591   1.953   9.762 -0.1075  0.2201 -0.0315
   87loPI   GL1 1381   4.186   2.052   9.486 -0.1570  0.0047 -0.1353
   87loPI   GL2 1382   4.394   1.958   9.334 -0.1679  0.2098  0.1471
   87loPI   C1A 1383   4.011   2.278   9.173 -0.0066  0.0630  0.0125
   87loPI   C2A 1384   4.196   2.441   8.852 -0.1209 -0.2155  0.2129
   87loPI   C3A 1385   4.390   2.653   8.510 -0.0807 -0.0895 -0.2747
   87loPI   C4A 1386   4.569   2.470   8.154 -0.0829  0.0421  0.0544
   87loPI   C5A 1387   4.874   2.307   7.940  0.3010  0.1152  0.4346
   87loPI   C6A 1388   4.887   2.086   7.512  0.0266  0.0251  0.1126
   87loPI   C1B 1389   4.280   1.938   8.909 -0.0200 -0.0513  0.1831
   87loPI   C2B 1390   4.342   2.123   8.524 -0.1434 -0.0440  0.0333
   87loPI   C3B 1391   4.246   2.144   8.044  0.0852 -0.0054 -0.0925
   87loPI   C4B 1392   4.324   2.363   7.683 -0.0062 -0.1856  0.0115
   88loPI    C1 1393   8.613  13.590  10.017 -0.1661 -0.1543 -0.1283
   88loPI    C2 1394   8.785  13.313  10.248  0.1528 -0.0765 -0.2663
   88loPI    C3 1395   8.796  13.698  10.355 -0.4058 -0.1220 -0.0065
   88loPI   PO4 1396   8.598  13.521   9.729 -0.0181 -0.0536 -0.2318
   88loPI   GL1 1397   8.820  13.479   9.407  0.0138  0.2656 -0.3829
   88loPI   GL2 1398   9.094  13.339   9.444  0.0434  0.2014 -0.0831
   88loPI   C1A 1399   8.672  13.210   9.121 -0.0522  0.1607 -0.2328
   88loPI   C2A 1400   8.568  13.175   8.708 -0.1192  0.4020 -0.1467
   88loPI   C3A 1401   8.568  13.244   8.275 -0.0271 -0.1287 -0.3763
   88loPI   C4A 1402   8.595  13.174   7.749  0.0450 -0.2592 -0.0246
   88loPI   C5A 1403   8.706  13.604   7.481 -0.0628 -0.2198 -0.1406
   88loPI   C6A 1404   8.817  14.028   7.538 -0.1397 -0.2556 -0.1863
   88loPI   C1B 1405   9.074  13.448   8.955 -0.2157  0.0219 -0.1127
   88loPI   C2B 1406   9.025  13.494   8.463  0.1707  0.1748 -0.2720
   88loPI   C3B 1407   8.958  13.445   8.021  0.0425 -0.1370  0.1354
   88loPI   C4B 1408   9.047  13.172   7.636  0.2325 -0.0613  0.2255
   89loPI    C1 1409  15.418  10.714  10.302 -0.0687  0.2085 -0.0695
   89loPI    C2 1410  15.322  10.989  10.576 -0.0695  0.1106  0.0292
   89loPI    C3 1411  15.119  10.645  10.559  0.2110 -0.0668  0.1909
   89loPI   PO4 1412  15.402  10.836  10.110  0.0153  0.1990  0.0679
   89loPI   GL1 1413  15.523  10.801   9.647  0.1762 -0.1699  0.1683
   89loPI   GL2 1414  15.504  11.014   9.520  0.1336 -0.0962 -0.1305
   89loPI   C1A 1415  15.377  10.588   9.292 -0.0407 -0.1602 -0.1878
   89loPI   C2A 1416  15.367  10.563   8.797 -0.1755 -0.1341  0.2680
   89loPI   C3A 1417  15.406  10.680   8.395 -0.0823  0.1611  0.1015
   89loPI   C4A 1418  15.443  10.726   7.966  0.3164  0.3058  0.1012
   89loPI   C5A 1419  15.678  10.665   7.688 -0.1500  0.2021  0.1233
   89loPI   C6A 1420  16.040  10.755   7.426  0.0562  0.1904  0.2053
   89loPI   C1B 1421  15.781  10.986   9.226 -0.1180  0.0344 -0.0083
   89loPI   C2B 1422  15.884  11.043   8.727 -0.1454 -0.0356 -0.0551
   89loPI   C3B 1423  15.852  10.933   8.265  0.0672 -0.1177  0.0556
   89loPI   C4B 1424  16.041  10.840   7.960  0.1169  0.1494  0.3515
   90loPI    C1 1425   9.393   7.427  10.698 -0.1141 -0.1389  0.0443
   90loPI    C2 1426   9.644   7.140  10.819 -0.2123 -0.1632  0.1932
   90loPI    C3 1427   9.514   7.414  11.080 -0.0242  0.0906  0.0254
   90loPI   PO4 1428   9.520   7.480  10.412  0.1449  0.1429  0.2978
   90loPI   GL1 1429   9.467   7.367   9.969  0.1925  0.0228 -0.0127
   90loPI   GL2 1430   9.499   7.113   9.799 -0.0133 -0.1748 -0.3671
   90loPI   C1A 1431   9.078   7.468   9.702 -0.0952 -0.1423  0.0912
   90loPI   C2A 1432   9.059   7.401   9.242  0.1018 -0.0386 -0.0970
   90loPI   C3A 1433   8.961   7.332   8.852  0.2946  0.3372 -0.0297
   90loPI   C4A 1434   8.719   7.328   8.377  0.0489 -0.1750 -0.0940
   90loPI   C5A 1435   8.757   7.484   8.025 -0.0950 -0.2570  0.2671
   90loPI   C6A 1436   9.131   7.745   7.809 -0.5777 -0.3454  0.2784
   90loPI   C1B 1437   9.369   6.950   9.376 -0.2949 -0.2338  0.3776
   90loPI   C2B 1438   9.280   6.968   8.926  0.1343  0.3448  0.2240
   90loPI   C3B 1439   9.349   7.253   8.504  0.0865 -0.1244  0.1576
   90loPI   C4B 1440   9.302   6.967   8.164 -0.3439 -0.0634  0.0709
   91loPI    C1 1441   7.187  12.299  10.011 -0.0239  0.2684 -0.2369
   91loPI    C2 1442   6.988  12.545  10.255 -0.0931  0.1164 -0.1384
   91loPI    C3 1443   7.334  12.381  10.373 -0.1958 -0.0657 -0.0863
   91loPI   PO4 1444   7.064  12.133   9.886 -0.1347  0.0347  0.3148
   91loPI   GL1 1445   6.945  12.051   9.472 -0.1291 -0.0783 -0.1982
   91loPI   GL2 1446   6.703  12.267   9.499 -0.0167  0.1687 -0.0027
   91loPI   C1A 1447   7.074  11.905   9.152  0.3020  0.1956 -0.1161
   91loPI   C2A 1448   7.214  11.570   8.878 -0.1124 -0.0377  0.0184
   91loPI   C3A 1449   7.087  11.395   8.532 -0.3307 -0.0217  0.1874
   91loPI   C4A 1450   6.906  11.336   8.194 -0.1226 -0.0542  0.2413
   91loPI   C5A 1451   6.922  11.145   7.722  0.0893  0.3045  0.0453
   91loPI   C6A 1452   6.834  11.176   7.263 -0.0033 -0.1098 -0.2127
   91loPI   C1B 1453   6.580  12.291   9.117 -0.3413  0.0891  0.1999
   91loPI   C2B 1454   6.571  12.628   8.780  0.2817 -0.0211  0.1070
   91loPI   C3B 1455   6.789  12.592   8.375  0.0578  0.1411 -0.1551
   91loPI   C4B 1456   6.968  12.265   8.010  0.0932  0.0486  0.2550
   92loPI    C1 1457   8.251  12.474  10.093 -0.0659  0.1715 -0.0536
   92loPI    C2 1458   8.463  12.513  10.430 -0.0804  0.1896 -0.0467
   92loPI    C3 1459   8.598  12.279  10.136 -0.0226  0.2455 -0.0647
   92loPI   PO4 1460   8.203  12.702  10.002 -0.2008  0.2013  0.0116
   92loPI   GL1 1461   8.269  12.793   9.561  0.2137 -0.0307  0.1189
   92loPI   GL2 1462   8.365  13.123   9.571 -0.0037  0.2314  0.1090
   92loPI   C1A 1463   8.594  12.718   9.233  0.2246 -0.0097  0.4074
   92loPI   C2A 1464   8.598  12.674   8.682  0.0295 -0.2074  0.2071
   92loPI   C3A 1465   8.556  12.598   8.250  0.0780  0.0716  0.3521
   92loPI   C4A 1466   8.421  12.541   7.795  0.2020 -0.1166 -0.0122
   92loPI   C5A 1467   8.331  12.757   7.351 -0.1854 -0.0914  0.2548
   92loPI   C6A 1468   8.290  12.794   6.873 -0.1120  0.3215 -0.4614
   92loPI   C1B 1469   8.185  13.394   9.156 -0.2434 -0.0106  0.0974
   92loPI   C2B 1470   8.091  13.343   8.747 -0.0535 -0.1484  0.0846
   92loPI   C3B 1471   8.064  13.366   8.340  0.1042 -0.3710 -0.2243
   92loPI   C4B 1472   7.871  13.332   7.894  0.0291  0.1045  0.1452
   93loPI    C1 1473   0.175  14.094  10.515 -0.0378 -0.0519  0.0365
   93loPI    C2 1474   0.025  14.412  10.324 -0.2509 -0.0761  0.1596
   93loPI    C3 1475   0.130  14.441  10.709  0.0559 -0.0627  0.0777
   93loPI   PO4 1476  -0.027  13.947  10.442 -0.2549 -0.0689 -0.2387
   93loPI   GL1 1477  -0.404  13.940  10.202  0.1368  0.0189  0.4646
   93loPI   GL2 1478  -0.423  13.738   9.865 -0.1708  0.1029  0.1209
   93loPI   C1A 1479  -0.507  14.249   9.981 -0.1574  0.0111  0.1834
   93loPI   C2A 1480  -0.309  14.441   9.688  0.2624 -0.0738 -0.3326
   93loPI   C3A 1481  -0.316  14.549   9.262  0.3375  0.0129 -0.1056
   93loPI   C4A 1482  -0.319  14.590   8.891  0.1349 -0.0142  0.1594
   93loPI   C5A 1483  -0.045  14.794   8.625 -0.0431  0.0298 -0.1047
   93loPI   C6A 1484   0.182  14.944   8.224 -0.3819 -0.0573  0.0780
   93loPI   C1B 1485  -0.676  13.731   9.581 -0.1112  0.1491  0.0783
   93loPI   C2B 1486  -0.689  13.653   9.198 -0.1109 -0.3422 -0.5081
   93loPI   C3B 1487  -0.578  13.726   8.792 -0.1253  0.1725  0.1102
   93loPI   C4B 1488  -0.537  13.860   8.386 -0.0637 -0.1968  0.2476
   94loPI    C1 1489  12.296  12.989   9.939 -0.0990 -0.1323  0.0297
   94loPI    C2 1490  12.486  13.123   9.614  0.2466 -0.1517  0.2189
   94loPI    C3 1491  12.404  13.373   9.915 -0.1160 -0.1229  0.1010
   94loPI   PO4 1492  12.099  12.815   9.804  0.1480  0.2399 -0.1395
   94loPI   GL1 1493  12.263  12.762   9.361 -0.1787  0.1768  0.4316
   94loPI   GL2 1494  12.269  12.403   9.298  0.3276  0.2425 -0.2571
   94loPI   C1A 1495  12.311  13.100   9.082  0.0490  0.0901 -0.1650
   94loPI   C2A 1496  12.105  13.090   8.632 -0.1148  0.0123 -0.0017
   94loPI   C3A 1497  12.096  13.030   8.210 -0.0737 -0.0580  0.0112
   94loPI   C4A 1498  12.270  12.853   7.798 -0.0615  0.1738 -0.1544
   94loPI   C5A 1499  12.575  12.715   7.593 -0.1344  0.0176  0.0077
   94loPI   C6A 1500  12.987  12.749   7.437  0.1559 -0.1049  0.0003
   94loPI   C1B 1501  12.318  12.597   8.826  0.1980  0.0428  0.0314
   94loPI   C2B 1502  12.200  12.523   8.383 -0.2640 -0.1102 -0.0325
   94loPI   C3B 1503  12.250  12.361   7.950  0.2420 -0.1069  0.2132
   94loPI   C4B 1504  12.502  12.211   7.596  0.0626 -0.0516 -0.0586
   95loPI    C1 1505   9.735  15.508  10.283  0.0165  0.0389 -0.2962
   95loPI    C2 1506   9.836  15.817  10.515 -0.0274 -0.1037 -0.0840
   95loPI    C3 1507  10.007  15.772  10.156  0.0075  0.1436 -0.1001
   95loPI   PO4 1508   9.472  15.473  10.245  0.0513  0.0328 -0.1910
   95loPI   GL1 1509   9.532  15.510   9.738  0.2499  0.1207 -0.1019
   95loPI   GL2 1510   9.467  15.148   9.728  0.2149 -0.2732 -0.3987
   95loPI   C1A 1511   9.295  15.601   9.333  0.2256 -0.0375 -0.1026
   95loPI   C2A 1512   9.389  15.569   8.934 -0.0328 -0.0593  0.0365
   95loPI   C3A 1513   9.458  15.719   8.528  0.0895  0.1814 -0.0012
   95loPI   C4A 1514   9.513  15.607   8.164  0.0459  0.3158  0.0639
   95loPI   C5A 1515   9.881  15.509   7.980 -0.0794  0.1051 -0.1893
   95loPI   C6A 1516  10.298  15.637   7.881  0.2805  0.1584  0.0007
   95loPI   C1B 1517   9.621  15.231   9.264 -0.0789 -0.0479  0.0468
   95loPI   C2B 1518   9.796  15.367   8.831 -0.1786 -0.0141  0.1948
   95loPI   C3B 1519   9.788  15.252   8.363 -0.2626  0.0276  0.2468
   95loPI   C4B 1520  10.059  14.985   8.061  0.0652 -0.1949 -0.2125
   96loPI    C1 1521  16.074   4.564  10.288 -0.0888 -0.1633  0.0881
   96loPI    C2 1522  16.145   4.253  10.046  0.3384 -0.1110  0.1386
   96loPI    C3 1523  16.259   4.238  10.430 -0.1951 -0.1315  0.3044
   96loPI   PO4 1524  16.081   4.754  10.028  0.2340  0.1782  0.2241
   96loPI   GL1 1525  16.100   5.013   9.655  0.0453  0.1476  0.1152
   96loPI   GL2 1526  15.792   5.002   9.671  0.5672  0.1351  0.1829
   96loPI   C1A 1527  16.043   4.962   9.248  0.0888  0.2275  0.2694
   96loPI   C2A 1528  15.995   5.003   8.899 -0.2258 -0.0141 -0.0342
   96loPI   C3A 1529  16.228   4.850   8.513  0.0056 -0.0353 -0.1132
   96loPI   C4A 1530  16.360   4.836   8.126  0.0249  0.1434  0.1007
   96loPI   C5A 1531  16.420   4.456   7.815  0.0445 -0.1020  0.0522
   96loPI   C6A 1532  16.631   4.033   7.794  0.2718 -0.1063 -0.1421
   96loPI   C1B 1533  15.540   5.163   9.434 -0.1742 -0.0266  0.1661
   96loPI   C2B 1534  15.531   5.055   8.996 -0.2780  0.0589 -0.2483
   96loPI   C3B 1535  15.591   4.995   8.541 -0.0413 -0.1190  0.2877
   96loPI   C4B 1536  15.874   4.987   8.208  0.1351  0.1067  0.1224
   97loPI    C1 1537  18.611  10.474  10.141  0.0676 -0.1279  0.1394
   97loPI    C2 1538  18.400  10.808  10.203  0.0217 -0.1006 -0.1494
   97loPI    C3 1539  18.387  10.510  10.470  0.1018  0.1461  0.1347
   97loPI   PO4 1540  18.542  10.327   9.983 -0.1168 -0.1669 -0.1845
   97loPI   GL1 1541  18.338  10.117   9.786 -0.0984  0.0589  0.3161
   97loPI   GL2 1542  18.070  10.200   9.682 -0.2194 -0.2313 -0.1627
   97loPI   C1A 1543  18.325  10.128   9.265  0.2930 -0.1241  0.2618
   97loPI   C2A 1544  18.378  10.184   8.863 -0.3259 -0.0944 -0.0750
   97loPI   C3A 1545  18.380  10.312   8.455 -0.0392 -0.1153 -0.0546
   97loPI   C4A 1546  18.473  10.337   8.014 -0.0569 -0.2456  0.2066
   97loPI   C5A 1547  18.367  10.038   7.807 -0.0854 -0.0826  0.1976
   97loPI   C6A 1548  18.690   9.864   7.549  0.0830  0.0334 -0.1176
   97loPI   C1B 1549  17.950   9.870   9.429 -0.2476  0.2453 -0.2111
   97loPI   C2B 1550  17.709   9.816   9.028 -0.1231  0.2432  0.1025
   97loPI   C3B 1551  17.924   9.943   8.718  0.4010  0.1141 -0.0530
   97loPI   C4B 1552  18.009  10.080   8.196  0.0509  0.0363  0.0993
   98loPI    C1 1553  15.025   7.533   9.917  0.1327  0.0466 -0.1021
   98loPI    C2 1554  14.769   7.794   9.755 -0.0094  0.0179  0.0732
   98loPI    C3 1555  14.935   7.872  10.110  0.1767  0.0060 -0.0101
   98loPI   PO4 1556  15.215   7.529   9.713  0.1261  0.1260 -0.1760
   98loPI   GL1 1557  15.089   7.772   9.407  0.3304  0.0446 -0.0074
   98loPI   GL2 1558  14.917   8.113   9.336 -0.1567 -0.0055  0.2663
   98loPI   C1A 1559  15.032   7.501   9.096 -0.0914 -0.1067 -0.0067
   98loPI   C2A 1560  15.333   7.364   8.745  0.0308 -0.1438  0.0254
   98loPI   C3A 1561  15.445   7.397   8.362  0.0851  0.3276  0.1924
   98loPI   C4A 1562  15.393   7.251   7.952 -0.2003 -0.1152  0.2599
   98loPI   C5A 1563  15.371   7.065   7.493  0.0133  0.0989  0.0361
   98loPI   C6A 1564  15.532   6.988   7.050  0.0635 -0.0498 -0.1216
   98loPI   C1B 1565  14.960   7.943   8.918  0.0008 -0.0063  0.3255
   98loPI   C2B 1566  15.106   8.225   8.582  0.3071 -0.0092 -0.1158
   98loPI   C3B 1567  14.877   8.263   8.195 -0.0946  0.2319 -0.0047
   98loPI   C4B 1568  14.879   8.400   7.782  0.1277  0.0757 -0.4215
   99loPI    C1 1569  15.008   3.349   9.990  0.2919  0.3676  0.1725
   99loPI    C2 1570  14.719   3.285  10.259  0.0494  0.2634 -0.1062
   99loPI    C3 1571  15.046   3.492  10.361  0.0516  0.0600  0.3202
   99loPI   PO4 1572  14.969   3.091   9.871  0.2246 -0.3257  0.1759
   99loPI   GL1 1573  15.030   3.034   9.324  0.0513  0.1253 -0.0398
   99loPI   GL2 1574  14.763   2.944   9.454  0.0304 -0.1617 -0.0344
   99loPI   C1A 1575  14.970   2.870   8.896 -0.1294  0.0009  0.1334
   99loPI   C2A 1576  14.998   2.746   8.456  0.1274 -0.1855  0.3450
   99loPI   C3A 1577  14.905   2.606   7.971 -0.1031 -0.0454 -0.1481
   99loPI   C4A 1578  15.053   2.571   7.545 -0.0224  0.2524  0.0252
   99loPI   C5A 1579  14.972   2.753   7.146  0.1625  0.0640 -0.5429
   99loPI   C6A 1580  14.650   2.747   6.777  0.1229  0.0107 -0.0445
   99loPI   C1B 1581  14.486   3.180   9.173  0.2983 -0.1270 -0.0633
   99loPI   C2B 1582  14.607   3.143   8.713 -0.2348  0.1239 -0.5104
   99loPI   C3B 1583  14.688   3.087   8.291 -0.1620 -0.0774 -0.2260
   99loPI   C4B 1584  14.470   3.137   7.945 -0.0775 -0.1017 -0.1522
  100loPI    C1 1585  16.685   7.379  10.347  0.3370  0.0648 -0.1503
  100loPI    C2 1586  16.659   7.666  10.625  0.0844  0.0345 -0.1398
  100loPI    C3 1587  16.738   7.289  10.733  0.3878  0.0922 -0.1507
  100loPI   PO4 1588  16.408   7.381  10.206 -0.0569 -0.2759 -0.0046
  100loPI   GL1 1589  16.339   7.297   9.768  0.0936  0.0919  0.2533
  100loPI   GL2 1590  16.149   7.628   9.768  0.3540 -0.2681  0.3128
  100loPI   C1A 1591  16.422   7.301   9.314 -0.2443  0.0678  0.3107
  100loPI   C2A 1592  16.328   7.255   8.840 -0.0076 -0.2291 -0.1377
  100loPI   C3A 1593  16.181   7.161   8.391  0.2419  0.0688  0.0141
  100loPI   C4A 1594  16.394   7.237   8.056 -0.0299  0.2822  0.0208
  100loPI   C5A 1595  16.767   7.492   7.875  0.0168 -0.1726  0.3432
  100loPI   C6A 1596  17.141   7.444   7.874 -0.3281  0.3256  0.2716
  100loPI   C1B 1597  16.045   7.655   9.334  0.0960 -0.0383  0.2757
  100loPI   C2B 1598  16.013   7.583   8.966 -0.1452  0.2674 -0.1535
  100loPI   C3B 1599  15.857   7.472   8.616 -0.0619  0.2134 -0.0680
  100loPI   C4B 1600  16.052   7.593   8.207 -0.4508 -0.1098 -0.0763
  101loPI    C1 1601  12.976   7.135   9.828 -0.0349  0.0275 -0.0372
  101loPI    C2 1602  13.007   7.279  10.201  0.1211  0.0058 -0.0407
  101loPI    C3 1603  12.813   6.935  10.134  0.0340  0.0444  0.0110
  101loPI   PO4 1604  12.844   7.330   9.627  0.0932 -0.0050 -0.0080
  101loPI   GL1 1605  12.948   7.464   9.258 -0.0502 -0.2000  0.0676
  101loPI   GL2 1606  12.553   7.407   9.208  0.0306 -0.0650  0.2853
  101loPI   C1A 1607  12.820   7.553   8.850  0.4214 -0.4581  0.0815
  101loPI   C2A 1608  12.840   7.425   8.443 -0.0273  0.2288  0.3242
  101loPI   C3A 1609  13.043   7.348   8.000  0.2375 -0.1365 -0.0214
  101loPI   C4A 1610  13.268   7.659   7.779 -0.1966  0.2521 -0.2738
  101loPI   C5A 1611  13.718   7.707   7.674 -0.1662 -0.1835  0.0986
  101loPI   C6A 1612  14.008   7.427   7.639  0.0795  0.2649  0.0865
  101loPI   C1B 1613  12.726   7.108   8.956  0.0945 -0.0842  0.1399
  101loPI   C2B 1614  12.539   6.782   8.715  0.1777 -0.2221 -0.1000
  101loPI   C3B 1615  12.391   6.697   8.254 -0.0536  0.1290 -0.0353
  101loPI   C4B 1616  12.122   6.832   7.943  0.4054 -0.0519 -0.0022
  102loPI    C1 1617   1.039   4.652  10.606 -0.1973 -0.0102  0.0632
  102loPI    C2 1618   1.373   4.731  10.812 -0.2530 -0.0014  0.1509
  102loPI    C3 1619   1.031   4.657  11.006 -0.3185  0.0626  0.0604
  102loPI   PO4 1620   1.180   4.668  10.341  0.1043  0.0595  0.1190
  102loPI   GL1 1621   1.534   4.556  10.022  0.2636  0.1731 -0.1130
  102loPI   GL2 1622   1.853   4.570   9.920 -0.0277 -0.0202  0.0014
  102loPI   C1A 1623   1.453   4.800   9.705  0.2633 -0.1821 -0.1935
  102loPI   C2A 1624   1.500   4.757   9.262 -0.1936 -0.2818 -0.3380
  102loPI   C3A 1625   1.526   4.907   8.822  0.3511 -0.0878 -0.0993
  102loPI   C4A 1626   1.452   4.917   8.381 -0.0926  0.2640  0.1384
  102loPI   C5A 1627   1.723   4.738   8.105  0.1049 -0.1601 -0.2293
  102loPI   C6A 1628   1.913   4.385   8.150 -0.0545 -0.0269  0.2957
  102loPI   C1B 1629   1.931   4.727   9.583  0.1159 -0.0690 -0.0472
  102loPI   C2B 1630   1.900   4.641   9.015 -0.2952  0.4947 -0.2071
  102loPI   C3B 1631   2.031   4.725   8.602  0.1425 -0.2903  0.1048
  102loPI   C4B 1632   2.313   4.674   8.266 -0.0390 -0.4291  0.0912
  103loPI    C1 1633   5.963   2.629   9.994 -0.0171 -0.0227  0.0997
  103loPI    C2 1634   6.246   2.908  10.043  0.0970 -0.1251  0.0321
  103loPI    C3 1635   5.894   2.943  10.231  0.1121  0.0616  0.0269
  103loPI   PO4 1636   5.917   2.634   9.705  0.0190  0.0729 -0.1651
  103loPI   GL1 1637   6.001   2.417   9.369  0.0496 -0.2033  0.0776
  103loPI   GL2 1638   6.340   2.627   9.323  0.2555 -0.1725 -0.1208
  103loPI   C1A 1639   6.188   2.522   8.882 -0.2555 -0.0552  0.0816
  103loPI   C2A 1640   6.390   2.387   8.436 -0.1485 -0.1041  0.2592
  103loPI   C3A 1641   6.251   2.256   8.006  0.2613  0.0039 -0.1891
  103loPI   C4A 1642   5.915   2.441   7.660  0.3985  0.2324 -0.0591
  103loPI   C5A 1643   5.777   2.828   7.643  0.1337 -0.3138 -0.2214
  103loPI   C6A 1644   5.505   3.125   7.437 -0.1904 -0.1840  0.0938
  103loPI   C1B 1645   6.158   2.937   9.058 -0.3409 -0.2516  0.1780
  103loPI   C2B 1646   6.011   3.030   8.705  0.0257 -0.1734 -0.2274
  103loPI   C3B 1647   5.913   2.995   8.319  0.1839  0.3179  0.2016
  103loPI   C4B 1648   5.851   3.219   7.994  0.0692 -0.2495 -0.1061
  104loPI    C1 1649  13.298   0.434  10.335 -0.1139 -0.0307  0.0247
  104loPI    C2 1650  13.064   0.109  10.342 -0.2831  0.0924  0.1496
  104loPI    C3 1651  13.391   0.125  10.571 -0.3649  0.0754  0.2686
  104loPI   PO4 1652  13.121   0.583  10.258  0.1537 -0.3100  0.0218
  104loPI   GL1 1653  13.187   0.767   9.866 -0.0933 -0.2945 -0.1822
  104loPI   GL2 1654  12.892   0.923   9.854  0.2818 -0.1347  0.2691
  104loPI   C1A 1655  13.197   0.956   9.377 -0.0122  0.0055 -0.2183
  104loPI   C2A 1656  13.394   1.408   9.207 -0.3319 -0.0282  0.2538
  104loPI   C3A 1657  13.628   1.691   9.017 -0.0681 -0.2947  0.2009
  104loPI   C4A 1658  13.569   1.531   8.601 -0.1733  0.0881 -0.0171
  104loPI   C5A 1659  13.597   1.201   8.211  0.1574 -0.0986 -0.2282
  104loPI   C6A 1660  13.798   1.056   7.732  0.0178 -0.1036 -0.0105
  104loPI   C1B 1661  12.618   0.949   9.499  0.1666 -0.0730  0.3401
  104loPI   C2B 1662  12.412   1.004   9.175  0.1569 -0.0194 -0.1856
  104loPI   C3B 1663  12.385   0.900   8.708 -0.0540  0.3593  0.3693
  104loPI   C4B 1664  12.421   0.914   8.226 -0.0825 -0.2218  0.0669
  105loPI    C1 1665   0.261   6.095  10.204  0.2348  0.1135  0.2441
  105loPI    C2 1666   0.015   6.387  10.324  0.0042  0.0598 -0.0841
  105loPI    C3 1667   0.039   6.046  10.533  0.1197  0.2289  0.1843
  105loPI   PO4 1668   0.272   6.075   9.977  0.1351  0.1304  0.1385
  105loPI   GL1 1669   0.158   5.918   9.657 -0.0385  0.2392 -0.0439
  105loPI   GL2 1670   0.246   5.616   9.662  0.0592 -0.1945 -0.2074
  105loPI   C1A 1671   0.582   6.012   9.394  0.2092 -0.1685 -0.3094
  105loPI   C2A 1672   0.649   6.153   8.965 -0.3979 -0.0467 -0.0893
  105loPI   C3A 1673   0.642   6.111   8.512  0.1498  0.2571 -0.0528
  105loPI   C4A 1674   0.697   6.056   8.199 -0.2635 -0.2169 -0.0716
  105loPI   C5A 1675   0.862   5.910   7.825 -0.0825  0.0177  0.2344
  105loPI   C6A 1676   0.925   6.108   7.542 -0.2125 -0.1213  0.1897
  105loPI   C1B 1677   0.273   5.736   9.160 -0.0610  0.4327 -0.2478
  105loPI   C2B 1678   0.361   5.678   8.817 -0.1049 -0.2908  0.0287
  105loPI   C3B 1679   0.354   5.716   8.447  0.0013  0.0637 -0.1310
  105loPI   C4B 1680   0.317   5.616   8.026  0.0000 -0.2644 -0.0008
  106loPI    C1 1681   6.936   7.363  10.362 -0.1672 -0.1242 -0.0716
  106loPI    C2 1682   7.080   7.114  10.640 -0.1015 -0.0702 -0.0570
  106loPI    C3 1683   6.699   7.236  10.659 -0.0987 -0.0709  0.0060
  106loPI   PO4 1684   7.193   7.276  10.149 -0.0579 -0.0526 -0.0226
  106loPI   GL1 1685   7.448   7.102   9.919  0.0445  0.2670  0.1732
  106loPI   GL2 1686   7.455   6.750   9.835  0.0383  0.1439 -0.3486
  106loPI   C1A 1687   7.656   7.179   9.503 -0.0939 -0.2902 -0.2855
  106loPI   C2A 1688   7.627   7.419   9.148  0.1520  0.2564  0.0739
  106loPI   C3A 1689   7.491   7.648   8.853  0.3173  0.2131  0.0207
  106loPI   C4A 1690   7.277   8.078   8.801  0.0179  0.0266  0.1408
  106loPI   C5A 1691   7.418   8.483   9.064 -0.2798  0.0820  0.0865
  106loPI   C6A 1692   7.431   8.512   9.549  0.5741 -0.1059 -0.0617
  106loPI   C1B 1693   7.302   6.601   9.461  0.2316  0.0910 -0.2681
  106loPI   C2B 1694   7.268   6.626   8.997  0.3159  0.0507 -0.1705
  106loPI   C3B 1695   7.196   6.695   8.579  0.0106  0.2293  0.1459
  106loPI   C4B 1696   6.866   6.733   8.349  0.1405  0.0253  0.0305
  107loPI    C1 1697  11.380  11.511  10.199 -0.0553  0.4387 -0.0687
  107loPI    C2 1698  11.604  11.537  10.530 -0.2260  0.0034  0.0884
  107loPI    C3 1699  11.278  11.767  10.489 -0.2630 -0.0155  0.2706
  107loPI   PO4 1700  11.532  11.553   9.965  0.0614 -0.0723  0.1597
  107loPI   GL1 1701  11.276  11.617   9.649  0.2549 -0.0948  0.0031
  107loPI   GL2 1702  11.543  11.889   9.546 -0.1188 -0.2174  0.0531
  107loPI   C1A 1703  11.190  11.287   9.359  0.2083 -0.0118 -0.1659
  107loPI   C2A 1704  11.149  11.260   8.915  0.1937 -0.0838 -0.0741
  107loPI   C3A 1705  11.254  11.478   8.475 -0.0497 -0.2253 -0.2216
  107loPI   C4A 1706  11.224  11.425   8.065 -0.2901 -0.2465 -0.2481
  107loPI   C5A 1707  11.286  11.600   7.641 -0.2375  0.0752  0.1403
  107loPI   C6A 1708  11.623  11.629   7.344  0.3387 -0.1478  0.1636
  107loPI   C1B 1709  11.246  11.814   9.164  0.3706  0.0825  0.0759
  107loPI   C2B 1710  11.298  11.927   8.803 -0.0075  0.3301  0.0289
  107loPI   C3B 1711  11.186  11.913   8.438  0.0601 -0.2783 -0.1992
  107loPI   C4B 1712  11.257  11.947   8.073  0.1999  0.1584 -0.1000
  108loPI    C1 1713   8.354   7.769  10.167 -0.0637 -0.2064  0.0670
  108loPI    C2 1714   8.322   7.880  10.550  0.2157  0.2062 -0.0217
  108loPI    C3 1715   8.193   7.519  10.434  0.2124  0.0397  0.4755
  108loPI   PO4 1716   8.623   7.866  10.111  0.3856  0.0499  0.0328
  108loPI   GL1 1717   8.820   7.868   9.839  0.4401 -0.0393  0.0582
  108loPI   GL2 1718   9.212   7.875   9.942 -0.0765 -0.2722 -0.0624
  108loPI   C1A 1719   8.684   7.811   9.414  0.3422  0.1201  0.0733
  108loPI   C2A 1720   8.617   7.862   9.109 -0.1251 -0.1390 -0.1454
  108loPI   C3A 1721   8.660   7.715   8.857  0.0909 -0.3301  0.3215
  108loPI   C4A 1722   8.622   7.815   8.398 -0.0716 -0.1349 -0.1502
  108loPI   C5A 1723   8.262   7.572   8.094  0.0590  0.1780  0.4075
  108loPI   C6A 1724   8.261   7.490   7.594 -0.2575  0.1356  0.0299
  108loPI   C1B 1725   9.186   7.954   9.478  0.1010  0.0953  0.1429
  108loPI   C2B 1726   9.163   8.024   9.068  0.0103  0.0288  0.0769
  108loPI   C3B 1727   8.967   8.047   8.709  0.2450  0.1160 -0.2434
  108loPI   C4B 1728   8.946   8.173   8.259 -0.1424  0.2809 -0.0384
  109loPI    C1 1729  14.385   9.163   9.720  0.0553 -0.3089  0.0425
  109loPI    C2 1730  14.258   9.425   9.994  0.0238 -0.2271 -0.0496
  109loPI    C3 1731  14.277   9.035  10.083  0.0544 -0.1960  0.0823
  109loPI   PO4 1732  14.520   9.322   9.530  0.0427 -0.0832  0.0054
  109loPI   GL1 1733  14.597   9.344   9.178 -0.0372 -0.0493 -0.0994
  109loPI   GL2 1734  14.434   9.661   9.137  0.0764 -0.0751  0.2052
  109loPI   C1A 1735  14.624   9.264   8.798  0.3661 -0.2837  0.2160
  109loPI   C2A 1736  14.432   9.089   8.483 -0.1469 -0.1771 -0.3842
  109loPI   C3A 1737  14.176   8.862   8.174 -0.0050  0.2896 -0.2597
  109loPI   C4A 1738  14.018   8.611   7.839 -0.2686 -0.0289  0.1213
  109loPI   C5A 1739  13.757   8.469   7.520 -0.1308  0.0897 -0.1585
  109loPI   C6A 1740  13.587   8.166   7.527  0.1174 -0.0274  0.0097
  109loPI   C1B 1741  14.369   9.697   8.684 -0.3114 -0.0454 -0.3170
  109loPI   C2B 1742  14.620   9.703   8.304 -0.1546  0.1297  0.1095
  109loPI   C3B 1743  15.029   9.844   8.000 -0.1304  0.1598 -0.2972
  109loPI   C4B 1744  15.023  10.143   7.619  0.1463  0.2575 -0.2060
  110loPI    C1 1745  12.370  15.332  10.104 -0.1821 -0.1763  0.0434
  110loPI    C2 1746  12.470  15.640  10.338 -0.0101 -0.1492 -0.0642
  110loPI    C3 1747  12.422  15.276  10.496  0.0399 -0.1181  0.0236
  110loPI   PO4 1748  12.455  15.356   9.794  0.1310 -0.0445 -0.1211
  110loPI   GL1 1749  12.363  15.299   9.353  0.1293 -0.2346 -0.0542
  110loPI   GL2 1750  12.318  14.952   9.437  0.0754  0.0374 -0.0648
  110loPI   C1A 1751  12.456  15.149   8.977  0.1210  0.2038  0.2277
  110loPI   C2A 1752  12.449  15.355   8.514 -0.0280  0.0233  0.0390
  110loPI   C3A 1753  12.277  15.419   8.155 -0.0868 -0.2938 -0.0035
  110loPI   C4A 1754  12.262  15.464   7.682  0.1408  0.0972 -0.0682
  110loPI   C5A 1755  11.971  15.540   7.221  0.3226 -0.0928  0.0320
  110loPI   C6A 1756  11.794  15.405   6.948  0.1924  0.1353 -0.1128
  110loPI   C1B 1757  12.144  14.713   9.101 -0.0119 -0.2680  0.0862
  110loPI   C2B 1758  11.938  14.597   8.802  0.2538 -0.0356  0.1208
  110loPI   C3B 1759  12.007  14.499   8.324  0.1820  0.1218 -0.1099
  110loPI   C4B 1760  11.875  14.222   8.135 -0.1836  0.1817  0.2593
  111loPI    C1 1761  17.531   5.803  10.255  0.0530  0.0789  0.1496
  111loPI    C2 1762  17.269   5.502  10.224 -0.1028  0.2404 -0.1458
  111loPI    C3 1763  17.405   5.612  10.584 -0.3410  0.0699 -0.0005
  111loPI   PO4 1764  17.602   5.778  10.021  0.1187 -0.1921  0.0185
  111loPI   GL1 1765  18.032   5.657   9.751  0.1901 -0.0195  0.2452
  111loPI   GL2 1766  18.113   5.507   9.476  0.0060  0.1089 -0.1414
  111loPI   C1A 1767  17.958   5.976   9.536  0.0175 -0.1221  0.4549
  111loPI   C2A 1768  17.791   6.238   9.157  0.0838 -0.0387 -0.1118
  111loPI   C3A 1769  17.867   6.133   8.762 -0.1852 -0.0065  0.1408
  111loPI   C4A 1770  17.908   6.154   8.286 -0.1775  0.0748  0.1227
  111loPI   C5A 1771  17.946   6.424   7.939  0.0223 -0.1724  0.1483
  111loPI   C6A 1772  18.135   6.508   7.491  0.3226 -0.2046 -0.1134
  111loPI   C1B 1773  18.187   5.390   9.163  0.1675 -0.0287 -0.2280
  111loPI   C2B 1774  18.209   5.379   8.673  0.3416 -0.0053 -0.1359
  111loPI   C3B 1775  18.188   5.348   8.227 -0.0188 -0.1026 -0.1361
  111loPI   C4B 1776  18.047   5.077   7.981 -0.1816 -0.0999 -0.2632
  112loPI    C1 1777  12.324  17.932  10.093  0.1669  0.1702 -0.0024
  112loPI    C2 1778  12.304  17.966  10.491  0.0047  0.0869 -0.0023
  112loPI    C3 1779  12.555  17.702  10.324  0.1530  0.1994  0.0404
  112loPI   PO4 1780  12.002  17.934  10.007 -0.2451 -0.1964  0.1274
  112loPI   GL1 1781  11.764  17.915   9.660  0.2394 -0.0456 -0.0803
  112loPI   GL2 1782  12.030  17.908   9.499 -0.0650 -0.0319 -0.0021
  112loPI   C1A 1783  11.480  17.992   9.185 -0.0475 -0.2248 -0.1693
  112loPI   C2A 1784  11.446  18.102   8.754 -0.2017 -0.3384  0.1558
  112loPI   C3A 1785  11.372  18.201   8.257 -0.0472 -0.0617 -0.0507
  112loPI   C4A 1786  11.316  18.500   7.937 -0.0133 -0.0426 -0.0521
  112loPI   C5A 1787  11.677  18.360   7.532 -0.0057  0.1472  0.2083
  112loPI   C6A 1788  11.784  18.232   7.118  0.2694 -0.0761  0.1869
  112loPI   C1B 1789  11.919  18.216   9.264 -0.1710 -0.2484 -0.2235
  112loPI   C2B 1790  11.924  18.315   8.855 -0.0223  0.1107 -0.1529
  112loPI   C3B 1791  11.891  18.402   8.461 -0.0714 -0.1356  0.0620
  112loPI   C4B 1792  11.864  18.506   8.096 -0.0056 -0.1088  0.0312
  113loPI    C1 1793   6.542  14.856  10.288 -0.0031  0.1408  0.0835
  113loPI    C2 1794   6.818  14.974  10.552  0.0554  0.1341  0.0253
  113loPI    C3 1795   6.431  14.987  10.649  0.0755  0.1531  0.1034
  113loPI   PO4 1796   6.698  14.932  10.063 -0.2693  0.0188 -0.1042
  113loPI   GL1 1797   6.886  14.832   9.591 -0.2349 -0.3356  0.0556
  113loPI   GL2 1798   6.816  15.126   9.617  0.1074  0.1515 -0.0652
  113loPI   C1A 1799   6.919  14.814   9.154  0.0384  0.4226  0.2571
  113loPI   C2A 1800   6.966  14.856   8.781 -0.0708  0.0016 -0.1874
  113loPI   C3A 1801   7.008  14.977   8.341  0.0590 -0.1496 -0.1437
  113loPI   C4A 1802   6.919  15.002   7.928 -0.1142  0.1069 -0.1974
  113loPI   C5A 1803   7.122  15.121   7.636  0.0520  0.0373 -0.0466
  113loPI   C6A 1804   7.521  15.283   7.494 -0.1745  0.1481  0.1752
  113loPI   C1B 1805   6.502  15.022   9.306  0.1213  0.1776  0.3301
  113loPI   C2B 1806   6.478  14.926   8.800  0.1396 -0.0350 -0.0981
  113loPI   C3B 1807   6.359  14.982   8.326  0.1305 -0.0215  0.2083
  113loPI   C4B 1808   6.447  14.799   7.943  0.1655 -0.0273 -0.2438
  114loPI    C1 1809   3.840  14.231   9.738 -0.0485 -0.1545 -0.1303
  114loPI    C2 1810   3.967  13.996  10.036  0.0767  0.0498 -0.0206
  114loPI    C3 1811   4.004  13.875   9.656 -0.3060 -0.3188  0.0525
  114loPI   PO4 1812   3.596  14.304   9.843 -0.0616 -0.1444  0.1751
  114loPI   GL1 1813   3.227  14.480   9.621  0.1121  0.0443  0.0244
  114loPI   GL2 1814   3.567  14.548   9.425 -0.1382 -0.0751  0.1288
  114loPI   C1A 1815   3.058  14.642   9.237  0.0325 -0.1918  0.0425
  114loPI   C2A 1816   3.167  14.922   8.811 -0.2154  0.3633  0.2045
  114loPI   C3A 1817   3.071  15.024   8.414  0.2060 -0.1600  0.0403
  114loPI   C4A 1818   3.045  15.281   8.052  0.1070  0.1747 -0.1902
  114loPI   C5A 1819   2.896  15.300   7.619  0.1691  0.3285 -0.1404
  114loPI   C6A 1820   2.538  15.432   7.372 -0.1720 -0.3702  0.0349
  114loPI   C1B 1821   3.452  14.570   8.951  0.1395  0.0508 -0.1138
  114loPI   C2B 1822   3.115  14.390   8.775  0.1229  0.2448  0.4531
  114loPI   C3B 1823   2.942  14.523   8.438  0.0522 -0.2488 -0.0901
  114loPI   C4B 1824   2.848  14.431   8.047 -0.2355 -0.0334 -0.0012
  115loPI    C1 1825   5.845  17.405  10.177 -0.0009 -0.1659 -0.1921
  115loPI    C2 1826   5.461  17.329  10.094 -0.0795 -0.0692  0.0713
  115loPI    C3 1827   5.560  17.658  10.298  0.1390 -0.1225  0.0536
  115loPI   PO4 1828   5.984  17.348  10.016  0.2153  0.0276 -0.1025
  115loPI   GL1 1829   6.176  17.421   9.632  0.0028  0.2629  0.0835
  115loPI   GL2 1830   6.425  17.291   9.503  0.1282 -0.0859 -0.2114
  115loPI   C1A 1831   6.024  17.297   9.241  0.1277 -0.3127  0.0178
  115loPI   C2A 1832   6.019  17.560   8.861  0.1608 -0.2509  0.0649
  115loPI   C3A 1833   6.127  17.560   8.482 -0.2062  0.0063 -0.0522
  115loPI   C4A 1834   6.398  17.441   8.136  0.1898 -0.0507  0.0286
  115loPI   C5A 1835   6.710  17.315   7.740 -0.0428  0.1803 -0.1945
  115loPI   C6A 1836   6.727  16.904   7.520  0.2753 -0.1000 -0.1031
  115loPI   C1B 1837   6.491  17.371   9.015  0.0402  0.1504  0.1063
  115loPI   C2B 1838   6.546  17.274   8.652 -0.1958 -0.1812 -0.0898
  115loPI   C3B 1839   6.507  16.990   8.348 -0.0869 -0.0563  0.1179
  115loPI   C4B 1840   6.737  16.813   8.055 -0.1678  0.0781  0.4348
  116loPI    C1 1841  16.719   8.328  10.588  0.1250  0.2600  0.2028
  116loPI    C2 1842  16.923   8.090  10.837 -0.1438 -0.2223 -0.0250
  116loPI    C3 1843  16.601   8.287  10.968 -0.0184 -0.1141  0.1226
  116loPI   PO4 1844  16.982   8.431  10.436  0.1385  0.2429  0.1267
  116loPI   GL1 1845  17.205   8.708  10.067  0.0995  0.0114 -0.1189
  116loPI   GL2 1846  17.086   8.947   9.851  0.0456 -0.3566 -0.0692
  116loPI   C1A 1847  17.666   8.612   9.921  0.1538 -0.1988 -0.0273
  116loPI   C2A 1848  17.735   8.481   9.498  0.1787  0.1300  0.1359
  116loPI   C3A 1849  17.803   8.410   9.079  0.2905 -0.0185  0.0238
  116loPI   C4A 1850  17.719   8.508   8.620 -0.1223 -0.1012 -0.1582
  116loPI   C5A 1851  17.486   8.768   8.283 -0.4562  0.0782 -0.1547
  116loPI   C6A 1852  17.462   9.063   7.940 -0.2981 -0.0138 -0.0116
  116loPI   C1B 1853  17.117   8.958   9.423 -0.1441  0.1572 -0.0221
  116loPI   C2B 1854  17.059   9.069   8.939 -0.1490  0.0486 -0.1730
  116loPI   C3B 1855  17.090   9.137   8.495 -0.0286  0.2366  0.1095
  116loPI   C4B 1856  17.156   9.382   8.187  0.0156 -0.3304 -0.1573
  117loPI    C1 1857  12.108  16.036  10.107 -0.0052 -0.0556 -0.1641
  117loPI    C2 1858  12.162  16.186   9.740 -0.1980  0.1323 -0.1179
  117loPI    C3 1859  12.410  15.904   9.879 -0.0767  0.1158 -0.3613
  117loPI   PO4 1860  11.827  16.071  10.103  0.1602  0.0953  0.0442
  117loPI   GL1 1861  11.462  16.089   9.762  0.3939  0.3063 -0.2297
  117loPI   GL2 1862  11.684  16.176   9.491 -0.0937 -0.2868 -0.1872
  117loPI   C1A 1863  11.210  15.978   9.407 -0.0272 -0.1199  0.0916
  117loPI   C2A 1864  11.198  15.892   8.998 -0.1384 -0.0371 -0.1563
  117loPI   C3A 1865  11.211  15.804   8.591  0.0174  0.0086 -0.2211
  117loPI   C4A 1866  11.198  15.923   8.177  0.0136 -0.0544  0.1902
  117loPI   C5A 1867  11.196  16.153   7.691 -0.2443  0.0968 -0.1538
  117loPI   C6A 1868  11.082  16.081   7.325  0.2430 -0.1007  0.0670
  117loPI   C1B 1869  11.503  16.301   9.067 -0.4401 -0.3004 -0.0620
  117loPI   C2B 1870  11.448  16.198   8.620 -0.0784 -0.0474  0.1297
  117loPI   C3B 1871  11.526  16.281   8.215  0.0106  0.6202  0.0753
  117loPI   C4B 1872  11.789  16.469   8.015  0.0455  0.0344  0.2655
  118loPI    C1 1873   6.842   0.991   9.837  0.0893  0.0667  0.3737
  118loPI    C2 1874   6.753   0.626   9.973  0.2190 -0.1510 -0.1021
  118loPI    C3 1875   7.103   0.794  10.067  0.3189 -0.3100 -0.1857
  118loPI   PO4 1876   6.788   1.068   9.519 -0.3000 -0.1969  0.1420
  118loPI   GL1 1877   6.652   1.223   9.168  0.1762 -0.2969  0.2007
  118loPI   GL2 1878   7.135   1.267   9.183 -0.0655 -0.0305  0.2164
  118loPI   C1A 1879   6.807   1.603   8.946  0.0893 -0.1221  0.3001
  118loPI   C2A 1880   7.145   1.587   8.758  0.0133  0.2606  0.3631
  118loPI   C3A 1881   7.321   1.390   8.459  0.1416  0.1256 -0.1798
  118loPI   C4A 1882   7.217   1.367   8.173  0.3044 -0.4321  0.1304
  118loPI   C5A 1883   7.047   1.079   7.941 -0.5152  0.2568  0.1600
  118loPI   C6A 1884   7.155   0.722   7.821 -0.1083  0.1844 -0.1583
  118loPI   C1B 1885   7.004   1.038   8.891 -0.1895  0.1082 -0.1175
  118loPI   C2B 1886   7.288   0.843   8.553  0.1107 -0.1018 -0.0553
  118loPI   C3B 1887   7.497   0.943   8.209 -0.2882 -0.2810 -0.2543
  118loPI   C4B 1888   7.541   1.058   7.670  0.2717  0.3267 -0.3385
  119loPI    C1 1889   4.122  16.576   9.781  0.2932  0.0277 -0.1226
  119loPI    C2 1890   3.833  16.838   9.691  0.1557 -0.0843 -0.0130
  119loPI    C3 1891   4.036  16.873  10.035 -0.0551 -0.2830  0.1344
  119loPI   PO4 1892   4.212  16.496   9.599 -0.0696 -0.1006 -0.0522
  119loPI   GL1 1893   4.557  16.588   9.401 -0.2116  0.5193  0.0714
  119loPI   GL2 1894   4.749  16.778   9.343 -0.2098 -0.3314  0.1435
  119loPI   C1A 1895   4.717  16.483   8.893  0.0799 -0.0465 -0.1999
  119loPI   C2A 1896   4.938  16.220   8.611  0.0699 -0.0130  0.0662
  119loPI   C3A 1897   5.287  16.278   8.405 -0.0648 -0.0597 -0.2492
  119loPI   C4A 1898   5.707  16.249   8.254  0.0151 -0.1196 -0.0184
  119loPI   C5A 1899   5.784  16.186   7.912 -0.1194  0.3282  0.2454
  119loPI   C6A 1900   5.590  16.167   7.511  0.0697 -0.4776  0.0945
  119loPI   C1B 1901   4.588  17.000   9.022 -0.1871  0.1511 -0.0967
  119loPI   C2B 1902   4.716  16.916   8.611  0.0104  0.2145 -0.0870
  119loPI   C3B 1903   4.801  17.067   8.261 -0.0362  0.0051  0.1707
  119loPI   C4B 1904   4.902  17.337   7.856  0.3075  0.0377 -0.0323
  120loPI    C1 1905   6.134   0.571  10.113  0.0234  0.1888 -0.1887
  120loPI    C2 1906   6.333   0.780  10.391 -0.0782 -0.1546  0.1512
  120loPI    C3 1907   5.945   0.854  10.324  0.0328  0.1733 -0.1593
  120loPI   PO4 1908   6.220   0.531   9.918  0.1343  0.1925  0.2989
  120loPI   GL1 1909   6.041   0.337   9.518  0.2249  0.1066 -0.1481
  120loPI   GL2 1910   6.239   0.101   9.591 -0.1163 -0.1937  0.3686
  120loPI   C1A 1911   6.161   0.579   9.097 -0.2349 -0.4023 -0.1001
  120loPI   C2A 1912   6.558   0.621   8.709  0.2265  0.1502  0.2708
  120loPI   C3A 1913   6.742   0.607   8.266  0.1248 -0.0973  0.1099
  120loPI   C4A 1914   6.645   0.639   7.734  0.0563  0.0093 -0.2127
  120loPI   C5A 1915   6.867   0.739   7.411  0.2105  0.3103  0.1067
  120loPI   C6A 1916   6.995   0.691   7.033 -0.0331 -0.0603  0.3836
  120loPI   C1B 1917   6.171   0.024   9.147  0.2648 -0.0885 -0.1622
  120loPI   C2B 1918   6.371   0.149   8.842  0.0998  0.1468 -0.1683
  120loPI   C3B 1919   6.465   0.187   8.483  0.1596  0.1306  0.1411
  120loPI   C4B 1920   6.307   0.308   8.055 -0.2807 -0.0704 -0.1443
  121loPI    C1 1921  15.983  16.464  10.158 -0.3025  0.0176 -0.1406
  121loPI    C2 1922  16.058  16.157  10.404  0.0570  0.2340  0.0285
  121loPI    C3 1923  15.685  16.295  10.364 -0.1092 -0.2207 -0.0507
  121loPI   PO4 1924  16.124  16.362   9.965 -0.1009  0.0611 -0.0043
  121loPI   GL1 1925  16.085  16.262   9.564 -0.2662 -0.1807 -0.1094
  121loPI   GL2 1926  15.770  16.141   9.499 -0.1026 -0.1302  0.1149
  121loPI   C1A 1927  16.115  16.239   9.127  0.1590 -0.0612  0.1241
  121loPI   C2A 1928  16.252  16.100   8.705  0.2332  0.1144 -0.0935
  121loPI   C3A 1929  16.226  16.253   8.418 -0.0247 -0.1513  0.0214
  121loPI   C4A 1930  16.378  16.490   8.055 -0.0401 -0.0636 -0.1854
  121loPI   C5A 1931  16.543  16.721   7.606  0.1834 -0.3842 -0.0502
  121loPI   C6A 1932  16.471  16.999   7.282  0.0693  0.0107  0.1966
  121loPI   C1B 1933  15.628  15.964   9.146 -0.3034 -0.3393 -0.2641
  121loPI   C2B 1934  15.652  16.010   8.726 -0.0739 -0.0647  0.0235
  121loPI   C3B 1935  15.734  16.059   8.304  0.2011  0.3879  0.2988
  121loPI   C4B 1936  16.002  16.134   7.996  0.2311  0.2235  0.1121
  122loPI    C1 1937   1.246  16.082  10.043 -0.0567 -0.0853  0.1458
  122loPI    C2 1938   1.106  16.372  10.280 -0.0228  0.0769 -0.0304
  122loPI    C3 1939   1.429  16.163  10.389 -0.0523  0.0991  0.1011
  122loPI   PO4 1940   1.236  16.140   9.831  0.2900  0.1992 -0.0964
  122loPI   GL1 1941   1.405  15.921   9.555 -0.1444  0.1754  0.0151
  122loPI   GL2 1942   1.649  16.106   9.453  0.0115  0.0106  0.1159
  122loPI   C1A 1943   1.239  16.078   9.121 -0.0102  0.0765  0.2419
  122loPI   C2A 1944   1.246  16.137   8.618 -0.3008  0.1044 -0.2566
  122loPI   C3A 1945   1.110  16.044   8.140  0.2397  0.0702  0.1749
  122loPI   C4A 1946   0.942  16.122   7.793 -0.3695  0.2750 -0.0754
  122loPI   C5A 1947   0.653  16.457   7.695  0.1799 -0.0816 -0.0215
  122loPI   C6A 1948   0.499  16.596   7.282  0.0063  0.2930  0.1025
  122loPI   C1B 1949   1.874  15.980   9.076 -0.0035 -0.3862  0.0950
  122loPI   C2B 1950   1.856  16.045   8.641  0.5074 -0.1012 -0.1832
  122loPI   C3B 1951   1.653  16.080   8.323  0.1374  0.0246 -0.0609
  122loPI   C4B 1952   1.675  15.797   8.001 -0.1858 -0.2279  0.0918
  123loPI    C1 1953   1.875  17.726  10.436 -0.1779  0.0278 -0.0183
  123loPI    C2 1954   1.833  17.328  10.438 -0.1909  0.0281 -0.1291
  123loPI    C3 1955   2.199  17.490  10.434 -0.1853  0.0179 -0.0572
  123loPI   PO4 1956   1.710  17.784  10.313 -0.2637  0.0172 -0.0571
  123loPI   GL1 1957   1.585  17.774   9.823 -0.2347 -0.0372  0.2435
  123loPI   GL2 1958   1.308  17.943   9.698 -0.1831  0.2870 -0.0120
  123loPI   C1A 1959   1.777  17.604   9.430  0.0263 -0.1030 -0.0496
  123loPI   C2A 1960   1.903  17.472   9.000  0.0085  0.2356 -0.0220
  123loPI   C3A 1961   1.975  17.421   8.648 -0.1665  0.1399  0.2711
  123loPI   C4A 1962   1.983  17.463   8.169  0.0339  0.1229 -0.2933
  123loPI   C5A 1963   2.203  17.235   7.787 -0.0055 -0.1294  0.2877
  123loPI   C6A 1964   2.533  17.187   7.433  0.2120 -0.1992 -0.1308
  123loPI   C1B 1965   1.289  17.829   9.310  0.1619  0.3051 -0.2066
  123loPI   C2B 1966   1.506  17.768   8.923  0.6083  0.0822 -0.1099
  123loPI   C3B 1967   1.580  17.917   8.488  0.1271 -0.0008 -0.0143
  123loPI   C4B 1968   1.331  18.134   8.231 -0.0014  0.0295 -0.0738
  124loPI    C1 1969   0.878  18.269  10.299  0.0733 -0.0617 -0.0253
  124loPI    C2 1970   0.484  18.206  10.323  0.0338  0.1242 -0.1632
  124loPI    C3 1971   0.634  18.568  10.403  0.1947  0.0125  0.0489
  124loPI   PO4 1972   1.008  18.290  10.012  0.3356  0.1619  0.1913
  124loPI   GL1 1973   0.971  18.577   9.681 -0.1497  0.1737 -0.1573
  124loPI   GL2 1974   1.318  18.480   9.690  0.2812  0.0460  0.3223
  124loPI   C1A 1975   1.140  18.259   9.311  0.1895  0.0791 -0.0806
  124loPI   C2A 1976   1.171  18.128   8.844  0.1549 -0.0784  0.0995
  124loPI   C3A 1977   0.979  17.968   8.513 -0.0050 -0.1307  0.0848
  124loPI   C4A 1978   1.124  17.630   8.222 -0.0319 -0.1890 -0.2713
  124loPI   C5A 1979   1.004  17.419   7.885 -0.1124  0.1768  0.0323
  124loPI   C6A 1980   1.162  17.230   7.593  0.0002  0.2151  0.5134
  124loPI   C1B 1981   1.523  18.634   9.388 -0.2110  0.1089 -0.0788
  124loPI   C2B 1982   1.434  18.635   8.952 -0.1896  0.0523 -0.1448
  124loPI   C3B 1983   1.314  18.545   8.534  0.2081 -0.1318  0.2351
  124loPI   C4B 1984   1.202  18.619   8.117  0.1242  0.1507 -0.1317
  125loPI    C1 1985   8.507   9.773  10.166 -0.1628  0.0149 -0.1368
  125loPI    C2 1986   8.223   9.496  10.214  0.0554 -0.1726  0.0970
  125loPI    C3 1987   8.439   9.617  10.528  0.1519  0.0582 -0.0562
  125loPI   PO4 1988   8.413   9.971  10.081 -0.0790 -0.0164  0.1555
  125loPI   GL1 1989   8.500  10.020   9.642  0.2486 -0.1789 -0.0748
  125loPI   GL2 1990   8.355   9.910   9.420 -0.1566  0.0942 -0.0495
  125loPI   C1A 1991   8.764  10.186   9.251  0.0042 -0.2280 -0.0841
  125loPI   C2A 1992   8.782  10.252   8.848  0.1315 -0.2977 -0.0201
  125loPI   C3A 1993   8.473  10.042   8.660  0.0705  0.1284 -0.1550
  125loPI   C4A 1994   8.261   9.832   8.340 -0.0710 -0.3549  0.0578
  125loPI   C5A 1995   8.240   9.640   7.950  0.1698 -0.2256  0.2646
  125loPI   C6A 1996   7.898   9.347   7.984 -0.1010 -0.3170 -0.0663
  125loPI   C1B 1997   8.260  10.020   9.094 -0.0355  0.1508 -0.1309
  125loPI   C2B 1998   8.111   9.753   8.796 -0.0872  0.1459  0.0277
  125loPI   C3B 1999   7.712   9.573   8.652  0.0723 -0.2086 -0.0452
  125loPI   C4B 2000   7.493   9.603   8.273 -0.0872  0.0013 -0.1560
  126loPI    C1 2001  15.054  17.958  10.074 -0.0791 -0.0438 -0.0704
  126loPI    C2 2002  15.448  18.020  10.109 -0.0750 -0.0020 -0.1863
  126loPI    C3 2003  15.192  18.230  10.333 -0.0367  0.0593 -0.2000
  126loPI   PO4 2004  15.032  18.052   9.757 -0.0205  0.2216 -0.1716
  126loPI   GL1 2005  15.091  17.887   9.418  0.0450  0.2082 -0.0850
  126loPI   GL2 2006  15.215  18.064   9.106 -0.2263 -0.1861 -0.1241
  126loPI   C1A 2007  14.811  17.640   9.133  0.2286 -0.0315  0.0109
  126loPI   C2A 2008  14.782  17.461   8.759  0.3295 -0.0254  0.1922
  126loPI   C3A 2009  14.865  17.621   8.416 -0.0363 -0.0052  0.1234
  126loPI   C4A 2010  15.189  17.830   8.157 -0.0351 -0.4416 -0.1265
  126loPI   C5A 2011  15.584  17.887   7.899  0.0859 -0.3459  0.0115
  126loPI   C6A 2012  15.576  18.113   7.558 -0.1904  0.1028 -0.3485
  126loPI   C1B 2013  15.225  18.197   8.653  0.0923  0.2551  0.1758
  126loPI   C2B 2014  15.493  18.270   8.320 -0.0567 -0.0229  0.2553
  126loPI   C3B 2015  15.829  18.456   7.951 -0.0278  0.1309  0.1577
  126loPI   C4B 2016  16.198  18.574   7.881  0.2229  0.0123 -0.1717
  127loPI    C1 2017   2.653  11.506  10.121  0.0133 -0.0056 -0.2338
  127loPI    C2 2018   2.590  11.792  10.393 -0.0095 -0.0791 -0.1615
  127loPI    C3 2019   2.808  11.871  10.068  0.2646 -0.0720  0.0211
  127loPI   PO4 2020   2.380  11.387  10.090 -0.1481  0.2027 -0.1317
  127loPI   GL1 2021   2.291  11.171   9.672 -0.0170 -0.0122  0.0710
  127loPI   GL2 2022   2.055  11.533   9.696 -0.0191 -0.0255 -0.2806
  127loPI   C1A 2023   1.960  10.949   9.419 -0.1779 -0.0035  0.0896
  127loPI   C2A 2024   1.957  10.840   8.982 -0.0070  0.1872 -0.0312
  127loPI   C3A 2025   2.191  10.570   8.622 -0.0684 -0.0307  0.3054
  127loPI   C4A 2026   2.118  10.406   8.291 -0.4093  0.2356 -0.0083
  127loPI   C5A 2027   1.952  10.435   7.894  0.0302  0.0971  0.0382
  127loPI   C6A 2028   2.099  10.573   7.520  0.1780  0.1959  0.2726
  127loPI   C1B 2029   2.189  11.596   9.322 -0.0235 -0.0249 -0.0549
  127loPI   C2B 2030   2.237  11.563   8.851 -0.1796  0.0493  0.0639
  127loPI   C3B 2031   2.162  11.656   8.487  0.0313 -0.1109  0.2114
  127loPI   C4B 2032   2.122  11.571   8.023 -0.3241  0.1593 -0.0579
  128loPI    C1 2033   3.683   8.397  10.194  0.2609 -0.0875  0.0370
  128loPI    C2 2034   3.999   8.615  10.084  0.0018  0.2968  0.0337
  128loPI    C3 2035   3.924   8.553  10.472  0.0858  0.1967  0.0343
  128loPI   PO4 2036   3.526   8.436  10.028  0.0548 -0.0724  0.0784
  128loPI   GL1 2037   3.615   8.416   9.689  0.1449 -0.0328  0.1427
  128loPI   GL2 2038   3.828   8.664   9.617  0.0297 -0.2010  0.0552
  128loPI   C1A 2039   3.410   8.314   9.365 -0.2070  0.1521 -0.0087
  128loPI   C2A 2040   3.298   8.384   8.929 -0.1250  0.1716  0.0612
  128loPI   C3A 2041   3.282   8.522   8.554 -0.0544  0.2764 -0.0424
  128loPI   C4A 2042   3.209   8.411   7.968  0.3042 -0.0424  0.1101
  128loPI   C5A 2043   3.214   8.600   7.617  0.2369  0.0048  0.1617
  128loPI   C6A 2044   3.284   9.027   7.515  0.3475  0.3057 -0.0550
  128loPI   C1B 2045   3.725   8.771   9.229  0.3909  0.1311 -0.2247
  128loPI   C2B 2046   3.712   8.821   8.790  0.0887 -0.0752  0.2056
  128loPI   C3B 2047   3.583   8.948   8.368 -0.1068 -0.1468  0.0781
  128loPI   C4B 2048   3.512   8.971   7.926  0.2139  0.0379 -0.3084
  129loPI    C1 2049  12.297   2.769  10.250 -0.0007  0.1252  0.1526
  129loPI    C2 2050  12.671   2.877  10.157 -0.0441  0.1255 -0.0246
  129loPI    C3 2051  12.607   2.582  10.419  0.0849 -0.0859 -0.2278
  129loPI   PO4 2052  12.196   2.747  10.042 -0.0904  0.2048  0.1614
  129loPI   GL1 2053  12.077   2.916   9.618 -0.1278  0.0728 -0.0250
  129loPI   GL2 2054  11.748   2.963   9.526  0.2742 -0.1391 -0.3440
  129loPI   C1A 2055  12.136   3.376   9.501 -0.1491  0.3073  0.1192
  129loPI   C2A 2056  12.316   3.642   9.245 -0.0855  0.1053 -0.0606
  129loPI   C3A 2057  12.668   3.746   8.998 -0.1079 -0.3157  0.2441
  129loPI   C4A 2058  12.708   3.646   8.673 -0.1817 -0.0745  0.1259
  129loPI   C5A 2059  12.970   3.692   8.280 -0.2237 -0.0975 -0.0914
  129loPI   C6A 2060  13.232   3.695   7.931  0.2911 -0.3036  0.2421
  129loPI   C1B 2061  11.811   2.972   9.115 -0.2280  0.2065  0.0468
  129loPI   C2B 2062  11.883   3.030   8.664 -0.2374 -0.2196  0.1934
  129loPI   C3B 2063  11.731   3.161   8.253  0.4492  0.5156  0.0373
  129loPI   C4B 2064  11.754   3.519   7.965  0.2996 -0.3828  0.0273
  130loPI    C1 2065  15.380   6.644  10.191 -0.1860  0.1093 -0.0366
  130loPI    C2 2066  15.338   6.956  10.438 -0.0102  0.2233 -0.1490
  130loPI    C3 2067  15.312   6.584  10.581  0.1232  0.2886  0.0481
  130loPI   PO4 2068  15.172   6.746   9.948  0.1208  0.1125  0.4393
  130loPI   GL1 2069  15.336   6.898   9.509  0.0223  0.0411 -0.1382
  130loPI   GL2 2070  15.375   7.276   9.321 -0.0257  0.1964 -0.2094
  130loPI   C1A 2071  15.433   6.579   9.221  0.2378 -0.2387 -0.0689
  130loPI   C2A 2072  15.415   6.482   8.939  0.0668  0.0993 -0.0375
  130loPI   C3A 2073  15.501   6.429   8.471  0.1115 -0.0372 -0.2738
  130loPI   C4A 2074  15.411   6.389   8.124 -0.0906 -0.0727 -0.0096
  130loPI   C5A 2075  15.619   6.473   7.769  0.2586  0.2147 -0.2510
  130loPI   C6A 2076  16.020   6.463   7.559  0.1826 -0.3885  0.1933
  130loPI   C1B 2077  15.210   7.017   9.065 -0.1336 -0.0886  0.0222
  130loPI   C2B 2078  15.274   6.863   8.672 -0.1076  0.0153 -0.1942
  130loPI   C3B 2079  15.076   6.826   8.248  0.0093  0.2746 -0.0978
  130loPI   C4B 2080  15.106   6.851   7.867  0.1463  0.0423  0.1120
  131loPI    C1 2081  13.100   8.897   9.977  0.3172 -0.2137  0.0526
  131loPI    C2 2082  12.879   8.862  10.308  0.2145 -0.2309 -0.0174
  131loPI    C3 2083  13.278   8.849  10.332  0.2039 -0.4071  0.0846
  131loPI   PO4 2084  12.996   8.683   9.865  0.1248  0.0811  0.1325
  131loPI   GL1 2085  13.116   8.489   9.522  0.2226  0.0426 -0.1057
  131loPI   GL2 2086  12.930   8.356   9.376 -0.0891  0.1103 -0.0834
  131loPI   C1A 2087  13.183   8.624   9.044 -0.0239  0.0495 -0.0095
  131loPI   C2A 2088  13.031   8.492   8.607 -0.4551 -0.1650 -0.2469
  131loPI   C3A 2089  13.088   8.513   8.231  0.3753 -0.3079  0.0298
  131loPI   C4A 2090  13.086   8.204   7.902 -0.0121 -0.2459 -0.2798
  131loPI   C5A 2091  12.889   7.944   7.717  0.0779  0.1337 -0.0328
  131loPI   C6A 2092  12.798   7.620   7.621  0.0444 -0.2772 -0.0249
  131loPI   C1B 2093  12.649   8.509   9.070 -0.0805  0.0357 -0.3900
  131loPI   C2B 2094  12.560   8.504   8.608  0.0625  0.0315 -0.0748
  131loPI   C3B 2095  12.477   8.745   8.301  0.1838 -0.0910  0.1794
  131loPI   C4B 2096  12.436   8.966   7.854 -0.1670 -0.1632  0.1274
  132loPI    C1 2097   9.632  16.694  10.087  0.2185 -0.2140 -0.0515
  132loPI    C2 2098   9.401  16.440   9.880  0.0839 -0.1625  0.0341
  132loPI    C3 2099   9.322  16.516  10.265  0.0508  0.0996 -0.0222
  132loPI   PO4 2100   9.520  16.978   9.925 -0.0623  0.2564  0.1620
  132loPI   GL1 2101   9.381  17.014   9.534 -0.1137 -0.0612  0.0305
  132loPI   GL2 2102   9.381  17.373   9.587  0.1447 -0.0147  0.0959
  132loPI   C1A 2103   9.006  17.108   9.248 -0.0103  0.2997 -0.1620
  132loPI   C2A 2104   8.961  16.900   8.924  0.0544 -0.3580  0.0125
  132loPI   C3A 2105   8.981  16.864   8.544 -0.1634 -0.4579 -0.0425
  132loPI   C4A 2106   8.948  16.888   8.148 -0.1410 -0.0020  0.1121
  132loPI   C5A 2107   8.822  16.939   7.709  0.0004  0.0168 -0.1103
  132loPI   C6A 2108   9.105  17.225   7.439 -0.0603 -0.1709  0.2974
  132loPI   C1B 2109   9.598  17.299   9.148 -0.0176  0.0983  0.2145
  132loPI   C2B 2110   9.744  17.373   8.648 -0.4723  0.3051  0.2189
  132loPI   C3B 2111   9.786  17.353   8.259  0.0090 -0.3832 -0.0256
  132loPI   C4B 2112   9.718  17.296   7.809  0.2331 -0.0151 -0.1460
  133loPI    C1 2113  14.734   5.329  10.199 -0.1111  0.0754  0.1419
  133loPI    C2 2114  15.038   5.531  10.036 -0.0059 -0.0884  0.1329
  133loPI    C3 2115  15.041   5.448  10.427 -0.0468 -0.0767  0.1358
  133loPI   PO4 2116  14.688   5.128   9.945 -0.1390  0.2613 -0.2616
  133loPI   GL1 2117  14.802   5.391   9.496  0.2407 -0.1326  0.1988
  133loPI   GL2 2118  15.082   5.333   9.590 -0.1660  0.2173  0.0790
  133loPI   C1A 2119  14.659   5.320   9.033  0.1680 -0.0480 -0.1423
  133loPI   C2A 2120  14.602   5.187   8.677  0.0424  0.0138  0.2221
  133loPI   C3A 2121  14.699   5.364   8.324 -0.1029 -0.0882 -0.2517
  133loPI   C4A 2122  14.814   5.405   8.011  0.1033  0.0590  0.0265
  133loPI   C5A 2123  14.914   5.678   7.657  0.1956 -0.0465 -0.3541
  133loPI   C6A 2124  15.067   5.930   7.371  0.0108  0.1230  0.0267
  133loPI   C1B 2125  15.012   5.044   9.315  0.0264 -0.0080 -0.0317
  133loPI   C2B 2126  15.033   5.001   8.968 -0.0335  0.0994 -0.0785
  133loPI   C3B 2127  15.092   5.022   8.570  0.2994  0.1700  0.3444
  133loPI   C4B 2128  15.199   5.086   8.136 -0.1466 -0.1186 -0.0378
  134loPI    C1 2129  17.415   4.547  10.109 -0.0673  0.0715 -0.0570
  134loPI    C2 2130  17.047   4.689  10.172 -0.1491  0.0448 -0.4514
  134loPI    C3 2131  17.219   4.453  10.445 -0.3219  0.2605 -0.1494
  134loPI   PO4 2132  17.418   4.480   9.861  0.0149  0.0604  0.2159
  134loPI   GL1 2133  17.245   4.687   9.589 -0.3255  0.1297  0.1493
  134loPI   GL2 2134  16.993   4.590   9.691 -0.0591  0.0801  0.1293
  134loPI   C1A 2135  17.411   4.781   9.173  0.0759  0.0988 -0.1131
  134loPI   C2A 2136  17.246   4.935   8.738  0.4075 -0.0247  0.1041
  134loPI   C3A 2137  17.264   4.988   8.332 -0.3754  0.2254 -0.1881
  134loPI   C4A 2138  17.466   4.812   8.028  0.0644  0.0291 -0.0871
  134loPI   C5A 2139  17.804   4.646   7.827  0.1129  0.1030 -0.1558
  134loPI   C6A 2140  17.969   4.281   7.692 -0.0500 -0.0430 -0.1738
  134loPI   C1B 2141  16.911   4.383   9.331 -0.0399  0.0639  0.1073
  134loPI   C2B 2142  16.780   4.316   8.967 -0.2907  0.0130  0.0598
  134loPI   C3B 2143  16.828   4.308   8.602  0.2341 -0.0433 -0.1439
  134loPI   C4B 2144  16.869   4.231   8.193 -0.0946  0.0536 -0.0571
  135loPI    C1 2145   5.249   5.730  10.276 -0.1604  0.1268 -0.1299
  135loPI    C2 2146   5.084   5.647  10.631 -0.1145  0.2309 -0.0837
  135loPI    C3 2147   5.330   5.383  10.457 -0.2109  0.1397 -0.0825
  135loPI   PO4 2148   5.132   5.789  10.078  0.1563  0.0502  0.3250
  135loPI   GL1 2149   4.795   5.647   9.886  0.1930  0.1921  0.0268
  135loPI   GL2 2150   4.893   6.028   9.726  0.1495 -0.1313  0.2005
  135loPI   C1A 2151   4.563   5.696   9.501 -0.0457 -0.0564 -0.4504
  135loPI   C2A 2152   4.483   5.678   9.038 -0.0271  0.0979 -0.2299
  135loPI   C3A 2153   4.459   5.801   8.630 -0.3286  0.0760  0.1376
  135loPI   C4A 2154   4.487   5.794   8.214  0.1412  0.2093  0.1747
  135loPI   C5A 2155   4.460   5.786   7.774 -0.0303 -0.0148  0.4600
  135loPI   C6A 2156   4.407   6.107   7.486 -0.2340 -0.1956  0.2823
  135loPI   C1B 2157   4.691   6.166   9.356  0.0262 -0.2061  0.3486
  135loPI   C2B 2158   4.687   6.231   8.908 -0.1589  0.2147 -0.3763
  135loPI   C3B 2159   4.787   6.160   8.484 -0.1079 -0.1205  0.0090
  135loPI   C4B 2160   4.682   6.192   7.960  0.0138  0.0868 -0.0439
  136loPI    C1 2161  10.283  16.284  10.185 -0.0720  0.0910  0.0675
  136loPI    C2 2162  10.441  15.948  10.335  0.0100  0.0983 -0.0015
  136loPI    C3 2163  10.236  16.196  10.573 -0.2295 -0.1030  0.0064
  136loPI   PO4 2164  10.321  16.223   9.921  0.1054  0.1023 -0.0034
  136loPI   GL1 2165  10.197  16.361   9.574  0.1313  0.2034 -0.0008
  136loPI   GL2 2166  10.227  16.660   9.401  0.3059  0.2260  0.0212
  136loPI   C1A 2167   9.896  16.264   9.249 -0.0280  0.3178  0.1660
  136loPI   C2A 2168   9.904  16.464   8.811  0.0264  0.0543 -0.1551
  136loPI   C3A 2169   9.901  16.500   8.344 -0.1567  0.3601  0.0939
  136loPI   C4A 2170   9.908  16.514   7.900  0.0176  0.0735 -0.0705
  136loPI   C5A 2171   9.967  16.869   7.605 -0.0477  0.1695  0.2453
  136loPI   C6A 2172   9.682  17.127   7.355 -0.4604 -0.1865 -0.1775
  136loPI   C1B 2173  10.380  16.557   9.099  0.0541 -0.0645  0.0094
  136loPI   C2B 2174  10.397  16.507   8.662 -0.2511  0.1165  0.3436
  136loPI   C3B 2175  10.416  16.511   8.233  0.0735  0.0950 -0.2472
  136loPI   C4B 2176  10.392  16.395   7.808  0.2770  0.1371  0.3680
  137loPI    C1 2177   7.544   0.160   9.709 -0.0321 -0.0153 -0.0529
  137loPI    C2 2178   7.551   0.218  10.105 -0.0671 -0.2786 -0.0119
  137loPI    C3 2179   7.437   0.514   9.862  0.1171 -0.0608  0.1619
  137loPI   PO4 2180   7.755   0.094   9.644 -0.0278  0.0663  0.0232
  137loPI   GL1 2181   8.091   0.015   9.321 -0.0552  0.1296  0.1563
  137loPI   GL2 2182   7.776   0.092   9.167 -0.1351  0.0951  0.0780
  137loPI   C1A 2183   8.253   0.121   8.921 -0.1458 -0.0995  0.2210
  137loPI   C2A 2184   8.508   0.276   8.544 -0.1814  0.0418  0.2301
  137loPI   C3A 2185   8.475   0.093   8.116  0.1643  0.0317 -0.0920
  137loPI   C4A 2186   8.636  -0.289   7.743 -0.2744 -0.0598 -0.0249
  137loPI   C5A 2187   9.030  -0.549   7.725  0.0637 -0.4358 -0.0156
  137loPI   C6A 2188   9.005  -0.959   7.651 -0.1102 -0.0038 -0.1240
  137loPI   C1B 2189   7.780   0.070   8.722 -0.3434  0.0959 -0.0779
  137loPI   C2B 2190   7.864   0.009   8.236  0.1983 -0.0341  0.1201
  137loPI   C3B 2191   8.122   0.270   7.850 -0.1391  0.1268 -0.3206
  137loPI   C4B 2192   8.047   0.560   7.468 -0.2806 -0.4269 -0.3646
  138loPI    C1 2193   6.248  16.447  10.199  0.1715 -0.1025  0.1344
  138loPI    C2 2194   6.349  16.276  10.546  0.4452  0.0883  0.1523
  138loPI    C3 2195   6.098  16.587  10.542  0.2246 -0.0870  0.1515
  138loPI   PO4 2196   6.289  16.299  10.013  0.0832 -0.1307 -0.0570
  138loPI   GL1 2197   6.148  16.423   9.615  0.2456 -0.0904  0.0545
  138loPI   GL2 2198   5.877  16.550   9.534  0.0967 -0.2421 -0.0036
  138loPI   C1A 2199   6.055  15.994   9.382  0.2271 -0.0707  0.0734
  138loPI   C2A 2200   6.152  15.910   8.981  0.1771 -0.1322  0.1433
  138loPI   C3A 2201   6.352  15.794   8.637  0.2644 -0.1299  0.0590
  138loPI   C4A 2202   6.235  16.038   8.220  0.3362  0.0145 -0.0442
  138loPI   C5A 2203   6.568  16.323   8.006 -0.2086 -0.1217  0.1051
  138loPI   C6A 2204   6.878  16.420   7.738 -0.0235 -0.2262  0.2141
  138loPI   C1B 2205   5.740  16.886   9.161  0.1125 -0.1110  0.1118
  138loPI   C2B 2206   5.503  17.072   8.833  0.1755 -0.0314  0.0907
  138loPI   C3B 2207   5.490  17.205   8.388  0.0573 -0.1665 -0.0039
  138loPI   C4B 2208   5.297  16.994   8.056 -0.0699  0.0521 -0.1773
  139loPI    C1 2209   6.850  18.317  10.158 -0.0346  0.1928 -0.0210
  139loPI    C2 2210   6.640  18.563  10.394 -0.4971 -0.1490 -0.0642
  139loPI    C3 2211   6.830  18.248  10.551  0.2059  0.2913  0.0105
  139loPI   PO4 2212   6.771  18.258   9.975 -0.0366  0.1584 -0.1612
  139loPI   GL1 2213   6.922  18.341   9.612  0.3074 -0.0475 -0.1807
  139loPI   GL2 2214   6.710  18.573   9.611 -0.0910  0.2602  0.2053
  139loPI   C1A 2215   6.898  18.136   9.221  0.0100 -0.4251 -0.3203
  139loPI   C2A 2216   6.874  18.113   8.758  0.0317  0.4462 -0.2329
  139loPI   C3A 2217   6.935  18.215   8.343 -0.1446 -0.0028  0.1215
  139loPI   C4A 2218   6.975  18.345   7.982  0.1465 -0.0389  0.2325
  139loPI   C5A 2219   7.250  18.155   7.678  0.1960  0.1332 -0.2325
  139loPI   C6A 2220   7.289  17.890   7.389  0.0858 -0.1095  0.3279
  139loPI   C1B 2221   6.728  18.724   9.137  0.0126 -0.1607  0.4409
  139loPI   C2B 2222   6.830  18.669   8.713  0.0140  0.2552  0.0956
  139loPI   C3B 2223   6.820  18.713   8.305  0.0095 -0.0522 -0.0286
  139loPI   C4B 2224   6.903  19.013   7.979 -0.1428 -0.1521  0.2366
  140loPI    C1 2225  10.105  10.109  10.098 -0.0785  0.2704  0.0189
  140loPI    C2 2226  10.322  10.442  10.138  0.1083  0.1459  0.0518
  140loPI    C3 2227  10.216  10.232  10.461  0.4110 -0.0916  0.0017
  140loPI   PO4 2228  10.226   9.939   9.852  0.2477 -0.1121 -0.0919
  140loPI   GL1 2229   9.992   9.813   9.545  0.0344  0.0788 -0.1985
  140loPI   GL2 2230  10.157   9.956   9.350  0.0724 -0.2340  0.1071
  140loPI   C1A 2231   9.570   9.814   9.316  0.1888 -0.1209 -0.0036
  140loPI   C2A 2232   9.207  10.010   8.939 -0.2223 -0.1885 -0.1889
  140loPI   C3A 2233   8.939   9.941   8.536 -0.1744 -0.1193 -0.3839
  140loPI   C4A 2234   8.787  10.206   8.277 -0.1280  0.0612 -0.0314
  140loPI   C5A 2235   8.684  10.426   8.002 -0.2332  0.0169  0.2389
  140loPI   C6A 2236   9.013  10.273   7.759  0.2293  0.2006  0.2370
  140loPI   C1B 2237  10.034   9.869   9.004 -0.0315  0.1378 -0.1038
  140loPI   C2B 2238   9.980   9.874   8.552 -0.1206  0.2052 -0.1415
  140loPI   C3B 2239  10.016   9.762   8.241 -0.0260 -0.2064  0.2455
  140loPI   C4B 2240  10.192   9.539   7.958  0.2035  0.0374 -0.2742
  141loPI    C1 2241   3.239   2.255  10.298  0.2575 -0.2049 -0.0784
  141loPI    C2 2242   3.110   2.173  10.667 -0.2056  0.0584 -0.1747
  141loPI    C3 2243   3.328   2.502  10.599 -0.0378 -0.0409 -0.1221
  141loPI   PO4 2244   3.334   2.010  10.148  0.1672 -0.0736 -0.1741
  141loPI   GL1 2245   3.357   1.941   9.657  0.0191  0.0341 -0.1004
  141loPI   GL2 2246   3.046   1.794   9.733  0.3090 -0.1258 -0.0175
  141loPI   C1A 2247   3.767   1.884   9.396  0.2362  0.4252 -0.0486
  141loPI   C2A 2248   3.782   1.796   9.025  0.4784 -0.0140  0.1254
  141loPI   C3A 2249   3.820   1.969   8.591 -0.3290 -0.0977 -0.1445
  141loPI   C4A 2250   3.727   2.030   8.108 -0.0494  0.1980 -0.2577
  141loPI   C5A 2251   3.539   1.783   7.764 -0.0310  0.1268 -0.0287
  141loPI   C6A 2252   3.408   1.855   7.465 -0.2484 -0.0010  0.0973
  141loPI   C1B 2253   2.957   1.924   9.278  0.0052  0.0286  0.1372
  141loPI   C2B 2254   2.734   1.998   8.980 -0.0660  0.0615  0.1656
  141loPI   C3B 2255   2.792   2.152   8.608 -0.0259  0.7304  0.1836
  141loPI   C4B 2256   2.833   1.975   8.240 -0.0801 -0.0420 -0.3565
  142loPI    C1 2257   3.291   0.896  10.397 -0.0118  0.0042  0.1660
  142loPI    C2 2258   3.143   1.113  10.699 -0.1711  0.0675  0.0439
  142loPI    C3 2259   3.188   0.717  10.740 -0.3495  0.0511  0.0928
  142loPI   PO4 2260   3.219   0.990  10.211  0.6131  0.1454 -0.2657
  142loPI   GL1 2261   3.413   1.159   9.766  0.0116 -0.0877 -0.0575
  142loPI   GL2 2262   3.089   1.307   9.762 -0.3575 -0.0594  0.0064
  142loPI   C1A 2263   3.501   1.380   9.387  0.4933  0.1374  0.1351
  142loPI   C2A 2264   3.298   1.683   9.076 -0.1001  0.3496  0.0825
  142loPI   C3A 2265   3.274   1.900   8.684  0.1749 -0.0820 -0.2498
  142loPI   C4A 2266   3.337   2.136   8.342 -0.0497  0.1088 -0.2485
  142loPI   C5A 2267   3.228   2.212   7.874  0.0043  0.3368 -0.3308
  142loPI   C6A 2268   3.100   2.225   7.507  0.1346  0.0138  0.1876
  142loPI   C1B 2269   3.016   1.436   9.361  0.0072  0.0751 -0.0485
  142loPI   C2B 2270   2.855   1.522   8.892  0.1623  0.3177 -0.0160
  142loPI   C3B 2271   2.938   1.575   8.481  0.2831 -0.0652  0.0425
  142loPI   C4B 2272   3.189   1.643   8.170 -0.0169  0.0743  0.0859
  143loPI    C1 2273   0.674  14.310  10.506  0.1396  0.1639 -0.2671
  143loPI    C2 2274   0.604  14.638  10.725  0.1933  0.1060 -0.1623
  143loPI    C3 2275   0.980  14.517  10.660  0.1651 -0.1042  0.0531
  143loPI   PO4 2276   0.507  14.390  10.227  0.2968 -0.4992  0.1742
  143loPI   GL1 2277   0.279  14.507   9.803  0.0274 -0.0479  0.0304
  143loPI   GL2 2278   0.449  14.182   9.752  0.1336 -0.1520  0.2657
  143loPI   C1A 2279   0.136  14.510   9.390  0.0039 -0.2774 -0.4451
  143loPI   C2A 2280   0.145  14.567   9.060 -0.1117  0.2199  0.1951
  143loPI   C3A 2281   0.251  14.438   8.648 -0.0163 -0.0073  0.1884
  143loPI   C4A 2282   0.159  14.457   8.273 -0.0332 -0.0585  0.2845
  143loPI   C5A 2283  -0.008  14.391   7.869 -0.0353 -0.0862  0.1741
  143loPI   C6A 2284  -0.215  14.298   7.524  0.1414 -0.1208  0.1846
  143loPI   C1B 2285   0.432  14.105   9.416 -0.0875  0.0351 -0.0111
  143loPI   C2B 2286   0.348  14.036   8.965  0.1621  0.1117 -0.1563
  143loPI   C3B 2287   0.332  13.963   8.554 -0.2152  0.0218 -0.0305
  143loPI   C4B 2288   0.379  14.038   8.190  0.3104 -0.0622 -0.0501
  144loPI    C1 2289  16.567   6.323  10.440  0.0516  0.1072  0.0059
  144loPI    C2 2290  16.759   6.312  10.089  0.0324  0.1758 -0.0071
  144loPI    C3 2291  16.924   6.500  10.402  0.0429  0.1271  0.0168
  144loPI   PO4 2292  16.321   6.448  10.324  0.0731  0.2448 -0.3210
  144loPI   GL1 2293  16.264   6.734   9.907  0.0511  0.3266 -0.2414
  144loPI   GL2 2294  16.639   6.716   9.756  0.0862  0.1930  0.0685
  144loPI   C1A 2295  16.269   6.861   9.536 -0.2405 -0.0369 -0.1786
  144loPI   C2A 2296  16.257   6.793   9.062 -0.2957  0.0513 -0.0352
  144loPI   C3A 2297  16.328   6.717   8.622 -0.0490  0.1906 -0.2071
  144loPI   C4A 2298  16.544   6.748   8.186 -0.0681 -0.0457  0.0735
  144loPI   C5A 2299  16.441   6.574   7.797  0.0321  0.0282 -0.1330
  144loPI   C6A 2300  16.484   6.649   7.337 -0.1622 -0.0240 -0.0408
  144loPI   C1B 2301  16.739   6.851   9.357 -0.0228  0.0375  0.2003
  144loPI   C2B 2302  16.802   7.037   8.970 -0.2622  0.2542 -0.1008
  144loPI   C3B 2303  16.811   6.775   8.579  0.1613 -0.0653 -0.2320
  144loPI   C4B 2304  17.132   6.610   8.306  0.1810  0.1027 -0.0134
  145loPI    C1 2305   7.188  16.068  10.247  0.0718  0.1552 -0.1281
  145loPI    C2 2306   7.150  16.453  10.144  0.0568  0.1319 -0.2100
  145loPI    C3 2307   7.298  16.356  10.502 -0.2466  0.2189 -0.0580
  145loPI   PO4 2308   7.313  15.945  10.042  0.1693 -0.1630 -0.0538
  145loPI   GL1 2309   7.241  15.821   9.741  0.0050  0.2056  0.2205
  145loPI   GL2 2310   7.249  15.404   9.676 -0.1283  0.1816 -0.0911
  145loPI   C1A 2311   7.087  15.677   9.256  0.0176  0.0201  0.2357
  145loPI   C2A 2312   6.824  15.332   9.113 -0.0232  0.0330 -0.0891
  145loPI   C3A 2313   6.783  15.337   8.645 -0.0946  0.0100 -0.0274
  145loPI   C4A 2314   6.620  15.367   8.212 -0.2572  0.2468 -0.1318
  145loPI   C5A 2315   6.335  15.232   7.810  0.5041 -0.3404 -0.0744
  145loPI   C6A 2316   6.041  15.208   7.498 -0.2621 -0.1022  0.0654
  145loPI   C1B 2317   7.261  15.157   9.235  0.1961  0.1108  0.0550
  145loPI   C2B 2318   7.249  15.264   8.788 -0.0808  0.0793 -0.1241
  145loPI   C3B 2319   7.196  15.445   8.375 -0.0249  0.1018 -0.1839
  145loPI   C4B 2320   7.047  15.554   7.960  0.2011  0.0964  0.3311
  146loPI    C1 2321   3.647  16.800  10.312 -0.3299 -0.1617 -0.0657
  146loPI    C2 2322   3.401  16.756  10.624  0.0157  0.0784  0.2498
  146loPI    C3 2323   3.749  16.947  10.669  0.1632 -0.0589 -0.2409
  146loPI   PO4 2324   3.599  16.892  10.160 -0.0527  0.0421  0.2226
  146loPI   GL1 2325   3.401  17.027   9.855 -0.0353 -0.4025  0.0434
  146loPI   GL2 2326   3.194  16.896   9.723  0.0443 -0.1113 -0.1384
  146loPI   C1A 2327   3.552  17.202   9.502  0.0481  0.1089 -0.0049
  146loPI   C2A 2328   3.651  17.087   9.062  0.0653 -0.0307  0.0659
  146loPI   C3A 2329   3.370  17.210   8.656 -0.1329  0.1553 -0.0897
  146loPI   C4A 2330   3.421  17.483   8.365 -0.2247 -0.2554 -0.1800
  146loPI   C5A 2331   3.454  17.554   7.891 -0.2106  0.1717  0.1217
  146loPI   C6A 2332   3.672  17.925   7.647  0.3366  0.2093 -0.2051
  146loPI   C1B 2333   3.221  16.994   9.220 -0.0091 -0.2269  0.0625
  146loPI   C2B 2334   3.252  16.778   8.780 -0.1160 -0.0106 -0.3393
  146loPI   C3B 2335   3.197  16.671   8.406 -0.0395 -0.1671  0.1018
  146loPI   C4B 2336   3.192  16.623   7.947 -0.2253  0.2840  0.2024
  147loPI    C1 2337  10.857   6.076  10.548  0.1562  0.1287 -0.1538
  147loPI    C2 2338  11.013   5.709  10.510  0.1601  0.1053  0.0735
  147loPI    C3 2339  11.253   6.023  10.574  0.1451  0.1275  0.0219
  147loPI   PO4 2340  10.719   6.177  10.402  0.0177 -0.0031 -0.0707
  147loPI   GL1 2341  10.704   6.349  10.109 -0.1710  0.0428 -0.1724
  147loPI   GL2 2342  11.078   6.439  10.184  0.0266 -0.3315 -0.0595
  147loPI   C1A 2343  10.737   6.171   9.696 -0.0010  0.2736 -0.1573
  147loPI   C2A 2344  10.828   5.939   9.289  0.2840 -0.2045  0.2142
  147loPI   C3A 2345  10.865   5.711   8.843 -0.1150 -0.1982 -0.1009
  147loPI   C4A 2346  10.720   5.839   8.483 -0.4153  0.0587 -0.1447
  147loPI   C5A 2347  10.663   5.970   8.039 -0.0802 -0.0080  0.0324
  147loPI   C6A 2348  10.552   6.202   7.666  0.2209 -0.0215  0.1394
  147loPI   C1B 2349  11.149   6.496   9.746  0.2621  0.0358  0.1646
  147loPI   C2B 2350  11.055   6.469   9.274  0.3016 -0.1339 -0.1056
  147loPI   C3B 2351  10.982   6.300   8.907  0.0355  0.0636  0.2668
  147loPI   C4B 2352  11.043   6.294   8.432 -0.1335  0.1367 -0.1664
  148loPI    C1 2353  14.435   0.061  10.256 -0.1028  0.1045 -0.1851
  148loPI    C2 2354  14.568   0.391  10.439 -0.0105  0.1769 -0.3789
  148loPI    C3 2355  14.350   0.123  10.641 -0.0132  0.3142 -0.1976
  148loPI   PO4 2356  14.415   0.092  10.026 -0.1617  0.1025  0.0999
  148loPI   GL1 2357  14.349  -0.054   9.611 -0.1296  0.1429 -0.0852
  148loPI   GL2 2358  14.233  -0.201   9.302 -0.1659  0.0421 -0.0167
  148loPI   C1A 2359  14.650   0.001   9.346  0.0414 -0.1322 -0.3904
  148loPI   C2A 2360  14.707   0.173   9.044 -0.0441  0.1238 -0.0136
  148loPI   C3A 2361  14.574   0.383   8.663 -0.4166  0.1024 -0.4713
  148loPI   C4A 2362  14.433   0.568   8.309 -0.1571  0.0652 -0.0397
  148loPI   C5A 2363  14.491   0.361   7.871  0.0552  0.1400 -0.1479
  148loPI   C6A 2364  14.763   0.338   7.541 -0.0032  0.0351  0.1784
  148loPI   C1B 2365  13.961  -0.152   9.054  0.0271  0.1039 -0.0621
  148loPI   C2B 2366  14.141   0.044   8.691  0.3903 -0.2431 -0.1414
  148loPI   C3B 2367  14.293   0.006   8.266  0.0338 -0.1002 -0.0078
  148loPI   C4B 2368  14.213  -0.123   7.927 -0.1508  0.2149  0.0738
  149loPI    C1 2369  15.175   4.144  10.166  0.0147  0.0988  0.1282
  149loPI    C2 2370  14.843   4.209  10.380  0.0019  0.1287  0.0993
  149loPI    C3 2371  15.162   4.445  10.429  0.1474 -0.1212  0.3918
  149loPI   PO4 2372  15.119   3.855  10.009 -0.2455 -0.0285  0.1155
  149loPI   GL1 2373  14.786   3.725   9.674 -0.0439 -0.0669  0.1999
  149loPI   GL2 2374  14.949   3.464   9.523 -0.2831 -0.0453 -0.0756
  149loPI   C1A 2375  15.130   3.944   9.336  0.0685  0.2410  0.1218
  149loPI   C2A 2376  15.372   3.772   9.015 -0.2439 -0.1037 -0.1416
  149loPI   C3A 2377  15.383   3.759   8.556  0.0751  0.3635 -0.0957
  149loPI   C4A 2378  15.185   3.532   8.178  0.1142  0.0079  0.3779
  149loPI   C5A 2379  14.960   3.526   7.772  0.3100 -0.2110  0.1383
  149loPI   C6A 2380  14.566   3.382   7.528  0.1068 -0.1466 -0.1018
  149loPI   C1B 2381  14.930   3.487   9.049  0.0637 -0.1193 -0.0317
  149loPI   C2B 2382  14.876   3.602   8.602  0.1597 -0.1539 -0.1028
  149loPI   C3B 2383  14.711   3.601   8.283  0.1908  0.3514  0.2438
  149loPI   C4B 2384  14.427   3.814   8.081 -0.0484 -0.0871 -0.0780
  150loPI    C1 2385  15.557   4.704  10.125 -0.1234  0.2960 -0.2074
  150loPI    C2 2386  15.591   4.675  10.523 -0.0205 -0.2267 -0.2477
  150loPI    C3 2387  15.688   5.016  10.339  0.0239 -0.0110  0.1634
  150loPI   PO4 2388  15.460   4.558  10.060  0.0313 -0.2995 -0.1972
  150loPI   GL1 2389  15.028   4.675   9.958 -0.2363  0.0510  0.0890
  150loPI   GL2 2390  15.222   4.847   9.711  0.1570 -0.0468  0.0617
  150loPI   C1A 2391  14.876   4.556   9.494 -0.0585 -0.0646  0.2054
  150loPI   C2A 2392  15.062   4.515   9.092  0.3184  0.2053  0.2945
  150loPI   C3A 2393  15.046   4.127   8.838 -0.0533 -0.2311  0.1865
  150loPI   C4A 2394  15.044   4.083   8.378  0.1674 -0.1018 -0.0109
  150loPI   C5A 2395  14.942   3.959   7.999 -0.0509  0.1829 -0.3195
  150loPI   C6A 2396  14.712   4.001   7.683  0.1777 -0.2653  0.0282
  150loPI   C1B 2397  15.465   4.624   9.385 -0.0505 -0.2665 -0.4497
  150loPI   C2B 2398  15.850   4.564   9.082  0.1058  0.0253 -0.0812
  150loPI   C3B 2399  15.877   4.527   8.583  0.1169 -0.1962 -0.0103
  150loPI   C4B 2400  15.833   4.492   8.043  0.0578 -0.5435  0.1401
  151loPI    C1 2401  13.214  12.009  10.044 -0.3298 -0.2027 -0.0469
  151loPI    C2 2402  13.105  12.166   9.693  0.0719 -0.0699 -0.1170
  151loPI    C3 2403  12.948  12.307  10.032  0.0147  0.1064 -0.2158
  151loPI   PO4 2404  13.486  11.993   9.976 -0.0988 -0.0210  0.1777
  151loPI   GL1 2405  13.646  12.135   9.497 -0.0173 -0.1888  0.2243
  151loPI   GL2 2406  13.854  12.080   9.404 -0.1398 -0.3017  0.1945
  151loPI   C1A 2407  13.427  12.253   9.275  0.2433 -0.1873  0.1294
  151loPI   C2A 2408  13.160  12.213   8.874  0.2701  0.1946  0.3322
  151loPI   C3A 2409  13.122  11.937   8.456  0.3472 -0.0494 -0.1642
  151loPI   C4A 2410  13.197  12.002   8.096  0.0212 -0.3681 -0.1781
  151loPI   C5A 2411  13.420  11.810   7.687  0.2108 -0.0812 -0.3742
  151loPI   C6A 2412  13.670  11.883   7.318  0.1013 -0.2431  0.0949
  151loPI   C1B 2413  13.953  12.018   9.020  0.0344 -0.3762 -0.1751
  151loPI   C2B 2414  14.047  11.977   8.559  0.3510  0.2053 -0.0140
  151loPI   C3B 2415  14.069  12.138   8.190 -0.1246 -0.0405  0.2268
  151loPI   C4B 2416  14.103  12.477   8.017  0.0957 -0.2626  0.0344
  152loPI    C1 2417   7.020  13.070  10.082  0.0754 -0.1503 -0.0153
  152loPI    C2 2418   6.806  13.087  10.419 -0.0326 -0.1484 -0.0834
  152loPI    C3 2419   7.093  13.358  10.351  0.1402 -0.2801  0.1071
  152loPI   PO4 2420   6.867  13.112   9.879 -0.0327 -0.1726  0.2339
  152loPI   GL1 2421   6.696  13.268   9.592  0.0723 -0.2174  0.2747
  152loPI   GL2 2422   6.401  13.430   9.642 -0.0643  0.0842  0.0551
  152loPI   C1A 2423   6.666  13.473   9.185 -0.1595 -0.1218  0.0253
  152loPI   C2A 2424   6.707  13.577   8.685 -0.1753 -0.0765  0.0530
  152loPI   C3A 2425   6.463  13.512   8.387  0.2522 -0.0129 -0.4562
  152loPI   C4A 2426   6.395  13.705   7.952 -0.2189 -0.1133  0.1359
  152loPI   C5A 2427   6.616  13.973   7.518 -0.2524 -0.1957  0.0257
  152loPI   C6A 2428   6.734  14.076   7.127  0.0221  0.1490 -0.0841
  152loPI   C1B 2429   6.171  13.608   9.398 -0.1982  0.0548  0.0296
  152loPI   C2B 2430   6.160  13.640   8.933 -0.1636  0.0467  0.0132
  152loPI   C3B 2431   6.065  13.752   8.480 -0.0046 -0.0005 -0.0093
  152loPI   C4B 2432   6.032  14.038   8.126 -0.1068 -0.1049  0.0758
  153loPI    C1 2433  11.298  16.625  10.231 -0.0127  0.0148 -0.1293
  153loPI    C2 2434  11.471  16.956  10.089  0.1985 -0.1199 -0.1910
  153loPI    C3 2435  11.651  16.744  10.376 -0.0555 -0.0459  0.0268
  153loPI   PO4 2436  11.151  16.518  10.073 -0.3056 -0.5774  0.0538
  153loPI   GL1 2437  11.116  16.466   9.632 -0.0146 -0.1126 -0.2853
  153loPI   GL2 2438  11.369  16.651   9.608  0.0408  0.3111  0.0343
  153loPI   C1A 2439  11.114  16.618   9.144  0.0026  0.2282 -0.1056
  153loPI   C2A 2440  11.264  16.663   8.803 -0.2690 -0.1724 -0.2997
  153loPI   C3A 2441  11.260  16.767   8.354  0.0325  0.4316 -0.1950
  153loPI   C4A 2442  11.254  16.838   7.925 -0.1787 -0.2595  0.3631
  153loPI   C5A 2443  11.560  16.714   7.634  0.3507  0.1005  0.0250
  153loPI   C6A 2444  11.940  16.697   7.554 -0.1307  0.0791  0.0545
  153loPI   C1B 2445  11.611  16.798   9.191 -0.2310 -0.2217 -0.4398
  153loPI   C2B 2446  11.672  16.936   8.763  0.0309  0.2319 -0.3654
  153loPI   C3B 2447  11.865  16.937   8.342 -0.0299  0.4480  0.0671
  153loPI   C4B 2448  11.919  17.047   7.895 -0.2623 -0.2991  0.0888
  154loPI    C1 2449  15.232  12.219  10.138 -0.2758 -0.4653 -0.1765
  154loPI    C2 2450  15.146  11.984  10.450 -0.0546 -0.1010  0.1686
  154loPI    C3 2451  15.070  12.376  10.469  0.0844 -0.0536 -0.1859
  154loPI   PO4 2452  15.161  12.137   9.959 -0.2494 -0.0649 -0.2294
  154loPI   GL1 2453  15.315  12.051   9.603 -0.1861  0.1171  0.2439
  154loPI   GL2 2454  15.461  11.821   9.618  0.1841 -0.0111  0.1583
  154loPI   C1A 2455  15.359  12.322   9.362  0.2321 -0.2976  0.2160
  154loPI   C2A 2456  15.364  12.400   8.887 -0.0600  0.0722  0.1733
  154loPI   C3A 2457  15.404  12.398   8.459  0.0763 -0.0598  0.0459
  154loPI   C4A 2458  15.565  12.336   8.041  0.2519 -0.0978 -0.1123
  154loPI   C5A 2459  15.880  12.244   7.921 -0.1294 -0.2746  0.1181
  154loPI   C6A 2460  16.133  12.531   7.724  0.2817  0.1017 -0.0347
  154loPI   C1B 2461  15.458  11.956   9.095  0.1078  0.1873 -0.1883
  154loPI   C2B 2462  15.575  12.003   8.726  0.0980 -0.1692  0.0687
  154loPI   C3B 2463  15.853  12.088   8.412 -0.1188 -0.0900  0.2544
  154loPI   C4B 2464  16.240  12.260   8.222  0.2504  0.0424 -0.0269
  155loPI    C1 2465   3.812   5.843  10.464 -0.1165 -0.0533  0.0039
  155loPI    C2 2466   3.777   5.983  10.837 -0.0111  0.3721 -0.1403
  155loPI    C3 2467   4.133   5.858  10.703 -0.1094 -0.0702 -0.0044
  155loPI   PO4 2468   3.674   5.972  10.237  0.2340  0.1663 -0.2370
  155loPI   GL1 2469   3.432   5.857   9.879  0.2641 -0.0776  0.0119
  155loPI   GL2 2470   3.773   5.933   9.742  0.2667 -0.0991  0.0361
  155loPI   C1A 2471   3.390   5.624   9.444 -0.1221 -0.1521 -0.6264
  155loPI   C2A 2472   3.406   5.638   8.979  0.0907  0.0160  0.1915
  155loPI   C3A 2473   3.467   5.607   8.541 -0.0471  0.0876 -0.2376
  155loPI   C4A 2474   3.249   5.876   8.193 -0.0557 -0.0653 -0.0058
  155loPI   C5A 2475   2.900   5.953   7.980 -0.0319 -0.1989  0.1183
  155loPI   C6A 2476   2.757   6.329   7.641  0.0380  0.3439 -0.0566
  155loPI   C1B 2477   3.626   6.019   9.251  0.0040  0.0694 -0.1024
  155loPI   C2B 2478   3.518   6.176   8.769  0.0044  0.0866 -0.1210
  155loPI   C3B 2479   3.712   6.268   8.375  0.0688 -0.1692 -0.1858
  155loPI   C4B 2480   3.726   6.147   7.905  0.0930  0.1461 -0.3019
  156loPI    C1 2481  15.481   3.525  10.104  0.1607  0.1466 -0.1391
  156loPI    C2 2482  15.656   3.457  10.457  0.1055  0.0698 -0.1263
  156loPI    C3 2483  15.457   3.798  10.395  0.2758  0.1666 -0.1479
  156loPI   PO4 2484  15.603   3.359   9.939  0.1414 -0.0657 -0.0082
  156loPI   GL1 2485  15.491   3.092   9.657  0.1405  0.2681 -0.0168
  156loPI   GL2 2486  15.353   2.885   9.676  0.2684  0.0531 -0.1817
  156loPI   C1A 2487  15.418   3.355   9.287  0.2400  0.3725 -0.0292
  156loPI   C2A 2488  15.338   3.275   8.942  0.0234  0.2718  0.0173
  156loPI   C3A 2489  15.320   3.111   8.500 -0.2865 -0.2169  0.1884
  156loPI   C4A 2490  15.223   3.066   8.103  0.3655  0.0723  0.0333
  156loPI   C5A 2491  15.082   3.062   7.709  0.0395  0.2751  0.1724
  156loPI   C6A 2492  15.057   3.296   7.308  0.3451  0.2677 -0.0046
  156loPI   C1B 2493  15.532   2.778   9.261  0.0712  0.2121  0.1550
  156loPI   C2B 2494  15.457   2.715   8.846  0.2150  0.0343  0.0987
  156loPI   C3B 2495  15.469   2.526   8.312  0.3171  0.0139 -0.2684
  156loPI   C4B 2496  15.436   2.643   7.879 -0.2216 -0.0128 -0.0710
  157loPI    C1 2497  12.623   5.608  10.120  0.2592 -0.1439  0.0126
  157loPI    C2 2498  12.342   5.355  10.252  0.0602  0.1178  0.0993
  157loPI    C3 2499  12.690   5.214  10.114 -0.1427 -0.2150 -0.0844
  157loPI   PO4 2500  12.369   5.776   9.934 -0.0501  0.2984 -0.1193
  157loPI   GL1 2501  12.053   5.901   9.755  0.0048 -0.2171  0.0561
  157loPI   GL2 2502  11.738   5.760   9.650 -0.1935 -0.0860  0.2302
  157loPI   C1A 2503  12.118   5.582   9.356 -0.0767 -0.0334  0.0525
  157loPI   C2A 2504  11.884   5.607   8.949  0.0583  0.2580  0.2884
  157loPI   C3A 2505  11.740   5.724   8.565 -0.1003 -0.1143 -0.1271
  157loPI   C4A 2506  11.848   5.788   8.153 -0.1912 -0.2344  0.0307
  157loPI   C5A 2507  11.891   6.054   7.880  0.0914 -0.1208  0.1343
  157loPI   C6A 2508  11.803   6.446   7.801 -0.1056  0.0567  0.1264
  157loPI   C1B 2509  11.761   5.950   9.309  0.4351  0.0882  0.3399
  157loPI   C2B 2510  11.846   6.104   8.865  0.2490  0.0707  0.4113
  157loPI   C3B 2511  12.049   6.143   8.465  0.1510  0.0397  0.0115
  157loPI   C4B 2512  12.024   6.391   8.190  0.0514  0.3611 -0.1579
  158loPI    C1 2513  10.206  15.224  10.636 -0.2608 -0.0003 -0.1783
  158loPI    C2 2514  10.305  15.604  10.708 -0.0854 -0.0869  0.0485
  158loPI    C3 2515  10.171  15.372  11.005  0.2464 -0.3310  0.0138
  158loPI   PO4 2516  10.147  15.243  10.304  0.1473 -0.0648 -0.6694
  158loPI   GL1 2517   9.896  15.220   9.922  0.0124  0.0782  0.3651
  158loPI   GL2 2518  10.108  15.445   9.755 -0.0015  0.0456  0.0090
  158loPI   C1A 2519  10.056  14.990   9.481  0.1542  0.3754  0.1395
  158loPI   C2A 2520  10.167  15.086   9.071  0.0569  0.2801  0.0088
  158loPI   C3A 2521  10.055  14.927   8.671  0.0251  0.2436  0.3083
  158loPI   C4A 2522   9.650  14.772   8.337 -0.0253  0.1869  0.2187
  158loPI   C5A 2523   9.472  14.660   7.917 -0.3889  0.0753  0.2748
  158loPI   C6A 2524   9.176  14.447   7.644  0.0576  0.0509 -0.0381
  158loPI   C1B 2525  10.213  15.487   9.321  0.2779  0.3085 -0.0847
  158loPI   C2B 2526  10.321  15.609   8.912  0.1350  0.4600 -0.2842
  158loPI   C3B 2527  10.250  15.476   8.459 -0.1624 -0.0284  0.0664
  158loPI   C4B 2528  10.456  15.215   8.112 -0.3871  0.0083  0.1666
  159loPI    C1 2529  17.286  12.425  10.339 -0.1419  0.0627  0.1199
  159loPI    C2 2530  16.933  12.332  10.503 -0.0619 -0.3165  0.0880
  159loPI    C3 2531  17.272  12.198  10.668  0.0486 -0.2486 -0.0814
  159loPI   PO4 2532  17.204  12.434  10.056 -0.0568  0.0666  0.2542
  159loPI   GL1 2533  17.172  11.977   9.826 -0.1883 -0.0074 -0.2155
  159loPI   GL2 2534  17.485  11.949   9.696 -0.0578 -0.2358  0.1437
  159loPI   C1A 2535  17.048  11.961   9.354 -0.0014  0.1984 -0.4164
  159loPI   C2A 2536  16.986  12.158   8.951  0.1792 -0.1697  0.4797
  159loPI   C3A 2537  17.083  12.238   8.515  0.0261  0.1476 -0.0397
  159loPI   C4A 2538  17.283  12.272   8.056  0.0423  0.1138 -0.2377
  159loPI   C5A 2539  17.581  12.341   7.706 -0.0921 -0.0624 -0.0924
  159loPI   C6A 2540  17.701  12.201   7.336 -0.1866 -0.2074  0.0611
  159loPI   C1B 2541  17.548  11.856   9.376 -0.0762 -0.2211 -0.1482
  159loPI   C2B 2542  17.472  11.897   8.919  0.2324 -0.0331  0.0539
  159loPI   C3B 2543  17.529  12.015   8.506  0.4560 -0.0083  0.0028
  159loPI   C4B 2544  17.689  12.057   8.109  0.0765  0.6337 -0.3157
  160loPI    C1 2545  10.966   1.922  10.392 -0.0619 -0.1099 -0.4141
  160loPI    C2 2546  10.949   1.664  10.697 -0.0167  0.0928 -0.2382
  160loPI    C3 2547  10.654   1.928  10.641  0.0741  0.1933 -0.2464
  160loPI   PO4 2548  11.100   1.833  10.243  0.1416  0.0329 -0.0681
  160loPI   GL1 2549  11.172   1.859   9.777  0.0379 -0.3794  0.2280
  160loPI   GL2 2550  10.849   1.773   9.662 -0.3973 -0.0984 -0.0369
  160loPI   C1A 2551  11.284   1.785   9.329  0.0532 -0.0075 -0.1507
  160loPI   C2A 2552  11.237   1.980   8.845  0.1546 -0.0188  0.1707
  160loPI   C3A 2553  11.341   2.164   8.412  0.0468 -0.3139  0.0274
  160loPI   C4A 2554  11.521   2.068   8.113  0.2239 -0.3563 -0.0823
  160loPI   C5A 2555  11.793   1.807   8.000 -0.1709 -0.3827 -0.1622
  160loPI   C6A 2556  11.646   1.488   7.912 -0.1891  0.5021  0.2179
  160loPI   C1B 2557  10.728   1.624   9.341 -0.1846 -0.2213  0.3687
  160loPI   C2B 2558  10.907   1.542   9.023  0.0997 -0.1694 -0.0531
  160loPI   C3B 2559  11.038   1.530   8.576 -0.0641 -0.1284 -0.2521
  160loPI   C4B 2560  11.153   1.545   8.130 -0.0548  0.3706 -0.0791
  161loPI    C1 2561  16.231  12.998  10.252 -0.3487  0.0382 -0.1594
  161loPI    C2 2562  16.014  13.248  10.476  0.1071  0.0727  0.2608
  161loPI    C3 2563  16.183  13.379  10.138 -0.1782  0.1551  0.1469
  161loPI   PO4 2564  16.095  12.778  10.078 -0.3662  0.0338 -0.0572
  161loPI   GL1 2565  15.893  12.734   9.673  0.1484  0.0599  0.2007
  161loPI   GL2 2566  15.871  13.084   9.752  0.1750 -0.0534 -0.1927
  161loPI   C1A 2567  15.887  12.919   9.229  0.2014  0.1183 -0.0458
  161loPI   C2A 2568  15.959  13.152   8.968  0.0079  0.2375  0.0918
  161loPI   C3A 2569  15.934  13.066   8.564  0.0287  0.0710  0.2714
  161loPI   C4A 2570  16.022  13.232   8.168  0.2609  0.1293 -0.3754
  161loPI   C5A 2571  15.972  13.555   7.886 -0.1490 -0.1633 -0.1446
  161loPI   C6A 2572  16.063  13.950   7.673  0.3123 -0.2660  0.1429
  161loPI   C1B 2573  15.647  13.290   9.413  0.1060  0.0945 -0.0155
  161loPI   C2B 2574  15.765  13.586   9.073 -0.1084  0.0263  0.0809
  161loPI   C3B 2575  15.936  13.545   8.619  0.1059  0.1869  0.0714
  161loPI   C4B 2576  15.896  13.837   8.315  0.2885 -0.0433  0.2906
  162loPI    C1 2577   1.270   8.296  10.672 -0.2142 -0.2452  0.4085
  162loPI    C2 2578   1.214   8.581  10.947  0.1401  0.0182  0.2161
  162loPI    C3 2579   1.569   8.399  10.917  0.1215  0.0283 -0.0975
  162loPI   PO4 2580   1.284   8.425  10.417 -0.0470  0.1689  0.1981
  162loPI   GL1 2581   1.253   8.350  10.048  0.2873 -0.2239  0.0377
  162loPI   GL2 2582   1.008   8.196   9.843  0.1677  0.0446 -0.1122
  162loPI   C1A 2583   1.480   8.347   9.700  0.0872  0.1955  0.2959
  162loPI   C2A 2584   1.545   8.376   9.289  0.1279 -0.2410 -0.0781
  162loPI   C3A 2585   1.695   8.472   8.966  0.2387  0.0559  0.1696
  162loPI   C4A 2586   1.866   8.453   8.639  0.1250 -0.1578  0.0867
  162loPI   C5A 2587   2.023   8.441   8.172 -0.1275 -0.0048  0.2290
  162loPI   C6A 2588   2.201   8.160   7.780 -0.5266 -0.3665 -0.2118
  162loPI   C1B 2589   1.092   8.097   9.397 -0.2281  0.1053  0.2851
  162loPI   C2B 2590   1.103   8.234   9.025  0.0590 -0.2617  0.3557
  162loPI   C3B 2591   1.010   8.401   8.530  0.2147 -0.0139  0.1146
  162loPI   C4B 2592   0.974   8.414   8.084 -0.3040 -0.1453 -0.2932
  163loPI    C1 2593   8.324  10.732  10.004  0.3338  0.2192  0.0427
  163loPI    C2 2594   8.549  10.414   9.917 -0.0311 -0.0259 -0.0283
  163loPI    C3 2595   8.466  10.501  10.298  0.1163  0.0191 -0.0058
  163loPI   PO4 2596   8.078  10.696   9.838 -0.2928  0.0246 -0.0489
  163loPI   GL1 2597   7.912  10.671   9.446  0.2713 -0.0639 -0.1777
  163loPI   GL2 2598   7.894  10.932   9.459  0.0617 -0.2238  0.3743
  163loPI   C1A 2599   7.814  10.379   9.112 -0.0861 -0.0146 -0.0874
  163loPI   C2A 2600   7.909  10.174   8.756  0.1176  0.1043 -0.0862
  163loPI   C3A 2601   7.806  10.047   8.464  0.1052 -0.0744  0.0690
  163loPI   C4A 2602   7.840   9.870   8.070  0.1911  0.0979 -0.2285
  163loPI   C5A 2603   7.553   9.825   7.721 -0.0526  0.2612  0.0985
  163loPI   C6A 2604   7.077   9.729   7.537 -0.1670 -0.1005 -0.0846
  163loPI   C1B 2605   7.984  10.885   8.973 -0.3789 -0.1444 -0.0696
  163loPI   C2B 2606   7.953  10.887   8.437  0.0192 -0.1298 -0.1987
  163loPI   C3B 2607   7.973  10.756   8.117 -0.1388  0.4771  0.2136
  163loPI   C4B 2608   7.828  10.421   7.840  0.0722 -0.0697 -0.2225
  164loPI    C1 2609   5.621   6.135  10.421  0.2132  0.0401  0.0361
  164loPI    C2 2610   5.564   5.806  10.642  0.2788  0.1263  0.1824
  164loPI    C3 2611   5.508   6.168  10.804  0.4067  0.1918  0.0811
  164loPI   PO4 2612   5.602   6.074  10.188 -0.1317 -0.0228  0.1170
  164loPI   GL1 2613   5.547   6.046   9.755 -0.4079  0.1858 -0.0045
  164loPI   GL2 2614   5.583   6.338   9.684 -0.1280  0.0275 -0.0068
  164loPI   C1A 2615   5.618   5.950   9.284 -0.1756 -0.3000  0.1490
  164loPI   C2A 2616   5.648   5.920   8.825  0.2490 -0.0140 -0.0686
  164loPI   C3A 2617   5.701   5.848   8.362  0.0528 -0.0301  0.2664
  164loPI   C4A 2618   5.466   6.022   7.993 -0.0698 -0.0160  0.2215
  164loPI   C5A 2619   5.338   6.198   7.658  0.0224 -0.1917 -0.0708
  164loPI   C6A 2620   5.364   6.689   7.592 -0.1358  0.0376  0.0115
  164loPI   C1B 2621   5.191   6.366   9.433 -0.1744  0.2098 -0.1236
  164loPI   C2B 2622   5.039   6.658   9.150  0.1026  0.2100  0.1112
  164loPI   C3B 2623   4.832   6.883   8.883  0.2715  0.1879  0.1216
  164loPI   C4B 2624   4.974   6.693   8.542 -0.0251  0.0741  0.2417
  165loPI    C1 2625  11.473   3.903  10.624  0.0682  0.1972  0.2158
  165loPI    C2 2626  11.203   3.990  10.342  0.0077 -0.1353  0.1664
  165loPI    C3 2627  11.134   4.091  10.723 -0.0246  0.0922  0.1019
  165loPI   PO4 2628  11.701   3.924  10.450  0.1614 -0.1241 -0.2434
  165loPI   GL1 2629  11.710   3.981  10.004  0.0847 -0.1382  0.0310
  165loPI   GL2 2630  11.556   3.708   9.975 -0.0735 -0.1051  0.1749
  165loPI   C1A 2631  11.729   4.335   9.754 -0.0949  0.1165  0.0957
  165loPI   C2A 2632  11.817   4.436   9.338  0.0594 -0.2147 -0.0184
  165loPI   C3A 2633  11.769   4.369   8.853  0.3068  0.3071 -0.0032
  165loPI   C4A 2634  11.926   4.301   8.448 -0.2963  0.0624  0.1607
  165loPI   C5A 2635  11.699   4.116   8.133 -0.0155  0.1104  0.0938
  165loPI   C6A 2636  11.261   4.000   8.047 -0.2255 -0.1009  0.0146
  165loPI   C1B 2637  11.689   3.595   9.515 -0.0145 -0.1539 -0.1774
  165loPI   C2B 2638  11.846   3.466   9.081  0.0107  0.0234 -0.1141
  165loPI   C3B 2639  11.552   3.419   8.741  0.2365  0.0152 -0.0056
  165loPI   C4B 2640  11.314   3.574   8.386 -0.1004 -0.1041  0.2272
  166loPI    C1 2641   5.808   1.616   9.868 -0.0234 -0.1504 -0.0162
  166loPI    C2 2642   6.173   1.516   9.998 -0.0584 -0.1090  0.1155
  166loPI    C3 2643   5.849   1.395  10.199 -0.1137 -0.0584  0.0573
  166loPI   PO4 2644   5.746   1.589   9.682 -0.0338  0.1797 -0.0606
  166loPI   GL1 2645   5.623   1.246   9.415  0.1176 -0.0768  0.1118
  166loPI   GL2 2646   5.379   1.121   9.250 -0.0148  0.3059  0.1369
  166loPI   C1A 2647   5.941   1.292   9.107  0.0719  0.0831  0.0710
  166loPI   C2A 2648   6.338   1.057   8.879 -0.1632  0.0691  0.2802
  166loPI   C3A 2649   6.374   1.077   8.418  0.3022 -0.0012  0.2794
  166loPI   C4A 2650   6.576   1.095   8.009 -0.0256  0.1129 -0.0598
  166loPI   C5A 2651   6.670   1.323   7.708  0.0088  0.0083 -0.3893
  166loPI   C6A 2652   6.748   1.669   7.640  0.0844  0.1834 -0.0481
  166loPI   C1B 2653   5.454   1.205   8.844 -0.2183 -0.1878 -0.1103
  166loPI   C2B 2654   5.292   1.209   8.409 -0.0182  0.1879  0.2335
  166loPI   C3B 2655   5.213   1.262   8.044  0.0111  0.2650 -0.1088
  166loPI   C4B 2656   5.311   1.143   7.576  0.1534 -0.2372 -0.1819
  167loPI    C1 2657   9.718   3.539  10.058  0.3478  0.1271 -0.1495
  167loPI    C2 2658  10.075   3.361  10.025  0.3056 -0.0113  0.1155
  167loPI    C3 2659   9.936   3.468  10.385  0.0333 -0.0538  0.0260
  167loPI   PO4 2660   9.603   3.493   9.891  0.0095 -0.1798  0.0037
  167loPI   GL1 2661   9.819   3.389   9.579 -0.2168 -0.2260  0.0954
  167loPI   GL2 2662   9.793   3.054   9.618  0.0725  0.0753 -0.0583
  167loPI   C1A 2663   9.813   3.238   9.152 -0.0082  0.0235 -0.0421
  167loPI   C2A 2664   9.774   3.250   8.733  0.1642 -0.1976 -0.1282
  167loPI   C3A 2665  10.013   3.391   8.352  0.2470 -0.0905 -0.0557
  167loPI   C4A 2666  10.021   3.520   7.927  0.2023 -0.0915  0.0668
  167loPI   C5A 2667  10.004   3.198   7.642  0.1167  0.0669  0.2436
  167loPI   C6A 2668   9.746   2.934   7.719  0.0713 -0.0274  0.2443
  167loPI   C1B 2669   9.425   2.990   9.327  0.0425 -0.2903  0.2239
  167loPI   C2B 2670   9.391   3.044   8.943 -0.0349 -0.2561  0.1145
  167loPI   C3B 2671   9.347   3.250   8.565 -0.1098  0.0238 -0.0427
  167loPI   C4B 2672   9.274   3.632   8.382 -0.0829  0.1408  0.2098
  168loPI    C1 2673  14.575  10.653  10.264 -0.0557  0.1333  0.1193
  168loPI    C2 2674  14.191  10.729  10.347 -0.0440  0.0804  0.2233
  168loPI    C3 2675  14.372  10.412  10.510 -0.0124 -0.0099  0.0159
  168loPI   PO4 2676  14.573  10.776   9.989 -0.0550 -0.0609  0.2330
  168loPI   GL1 2677  14.624  10.705   9.443  0.0344 -0.1276  0.0267
  168loPI   GL2 2678  14.387  10.913   9.541  0.0522 -0.3387  0.2326
  168loPI   C1A 2679  14.809  10.832   9.085  0.0032 -0.2168  0.1895
  168loPI   C2A 2680  15.005  10.832   8.682 -0.3985  0.3597  0.1138
  168loPI   C3A 2681  14.956  10.951   8.322 -0.0476  0.1221  0.1477
  168loPI   C4A 2682  14.911  11.238   8.007  0.0665 -0.0481  0.2030
  168loPI   C5A 2683  14.783  11.116   7.627 -0.3226 -0.0105 -0.4678
  168loPI   C6A 2684  14.836  10.831   7.218  0.1828  0.0677  0.0856
  168loPI   C1B 2685  14.382  11.098   9.148 -0.2965 -0.1008 -0.2515
  168loPI   C2B 2686  14.524  11.112   8.690 -0.0663  0.1995  0.1215
  168loPI   C3B 2687  14.423  11.169   8.234 -0.1086 -0.3755 -0.0878
  168loPI   C4B 2688  14.462  11.460   7.933 -0.1587 -0.0742 -0.1144
  169loPI    C1 2689  10.700  12.292  10.199 -0.0098 -0.0848  0.4697
  169loPI    C2 2690  10.369  12.067  10.185 -0.0855  0.0464 -0.0978
  169loPI    C3 2691  10.377  12.397  10.410 -0.2374 -0.1121  0.1440
  169loPI   PO4 2692  10.782  12.270   9.958 -0.1046  0.1101  0.1750
  169loPI   GL1 2693  10.825  12.621   9.719  0.3382  0.1720 -0.0270
  169loPI   GL2 2694  10.504  12.702   9.814 -0.0519  0.1023 -0.0694
  169loPI   C1A 2695  10.526  12.502   9.372  0.1485  0.3162  0.2672
  169loPI   C2A 2696  10.309  12.517   9.014  0.2456  0.2460  0.0030
  169loPI   C3A 2697  10.244  12.465   8.620 -0.3154 -0.2050  0.0696
  169loPI   C4A 2698  10.319  12.492   8.243  0.0970  0.0445  0.1090
  169loPI   C5A 2699  10.268  12.544   7.871 -0.0477  0.0896  0.0664
  169loPI   C6A 2700  10.131  12.519   7.394 -0.1652  0.0360 -0.1014
  169loPI   C1B 2701  10.502  12.988   9.432 -0.2526  0.0776 -0.3412
  169loPI   C2B 2702  10.363  12.981   8.968  0.0449  0.0905 -0.0311
  169loPI   C3B 2703  10.282  12.945   8.517  0.0487  0.0318 -0.2691
  169loPI   C4B 2704  10.344  12.953   8.127 -0.0786  0.1487  0.0680
  170loPI    C1 2705   6.716   9.201  10.123  0.3793  0.1651  0.1191
  170loPI    C2 2706   6.482   9.526  10.130 -0.0418 -0.1275 -0.0075
  170loPI    C3 2707   6.730   9.451  10.435 -0.1953  0.1287  0.1840
  170loPI   PO4 2708   6.528   9.033  10.074 -0.1226  0.1300  0.1317
  170loPI   GL1 2709   6.211   9.137   9.813  0.0065 -0.3325  0.1577
  170loPI   GL2 2710   6.331   9.417   9.692 -0.0438 -0.1142 -0.1553
  170loPI   C1A 2711   6.320   8.892   9.463 -0.0832  0.2685 -0.0735
  170loPI   C2A 2712   6.375   8.825   9.110 -0.1178 -0.1705 -0.1387
  170loPI   C3A 2713   6.561   8.748   8.666 -0.0936 -0.3088  0.0200
  170loPI   C4A 2714   6.684   8.587   8.351  0.2668  0.1230 -0.0425
  170loPI   C5A 2715   6.488   8.174   8.054  0.0218  0.0119 -0.1495
  170loPI   C6A 2716   6.371   7.760   7.987  0.1155  0.1465 -0.3863
  170loPI   C1B 2717   6.143   9.333   9.306  0.4854  0.2347  0.0122
  170loPI   C2B 2718   5.949   9.406   8.907 -0.1771 -0.5030  0.0304
  170loPI   C3B 2719   5.798   9.542   8.589  0.1395  0.0731  0.2039
  170loPI   C4B 2720   5.732   9.558   8.158  0.0302  0.0838 -0.1517
  171loPI    C1 2721   0.180   9.343  10.678 -0.1437  0.2973 -0.0479
  171loPI    C2 2722   0.031   9.645  10.894 -0.0685  0.1637  0.1949
  171loPI    C3 2723   0.195   9.330  11.078 -0.0802  0.0077 -0.0572
  171loPI   PO4 2724   0.295   9.519  10.447 -0.0885 -0.0742  0.0781
  171loPI   GL1 2725   0.323   9.507  10.013 -0.0357 -0.0236 -0.2555
  171loPI   GL2 2726   0.037   9.338   9.977  0.1420 -0.3953  0.1796
  171loPI   C1A 2727   0.316   9.619   9.602  0.1047 -0.1182 -0.1227
  171loPI   C2A 2728   0.463   9.722   9.120  0.1306  0.1943 -0.0561
  171loPI   C3A 2729   0.528   9.744   8.637 -0.1191 -0.2360 -0.2534
  171loPI   C4A 2730   0.437   9.556   8.161  0.1764  0.0001 -0.3482
  171loPI   C5A 2731   0.050   9.543   7.914  0.1792  0.1500 -0.0509
  171loPI   C6A 2732  -0.394   9.485   7.853 -0.0319  0.0958  0.3189
  171loPI   C1B 2733  -0.015   9.312   9.560  0.3766  0.1660  0.2703
  171loPI   C2B 2734   0.089   9.386   9.128  0.2977 -0.2542  0.1834
  171loPI   C3B 2735   0.371   9.296   8.869  0.0630  0.1186 -0.0367
  171loPI   C4B 2736   0.633   9.201   8.615  0.1742 -0.0457  0.2475
  172loPI    C1 2737  13.775  11.001   9.870 -0.0360 -0.0100 -0.0956
  172loPI    C2 2738  14.160  11.066   9.958 -0.1097  0.3316 -0.0105
  172loPI    C3 2739  13.879  11.117  10.239 -0.2088 -0.0345 -0.0380
  172loPI   PO4 2740  13.753  11.115   9.686 -0.0396 -0.0758  0.1363
  172loPI   GL1 2741  13.673  10.933   9.210  0.0163  0.0345  0.1475
  172loPI   GL2 2742  13.915  10.812   9.321 -0.3196  0.2718  0.5035
  172loPI   C1A 2743  13.451  11.101   8.841 -0.0873 -0.2046 -0.1390
  172loPI   C2A 2744  13.508  11.254   8.425 -0.0724  0.2414  0.1397
  172loPI   C3A 2745  13.526  11.271   7.951  0.0244 -0.0175 -0.1728
  172loPI   C4A 2746  13.556  11.315   7.510  0.1021  0.1425 -0.2109
  172loPI   C5A 2747  13.109  11.198   7.213 -0.0603 -0.1646  0.1218
  172loPI   C6A 2748  12.711  11.357   7.193  0.1193  0.1545  0.0617
  172loPI   C1B 2749  13.991  10.901   8.854  0.2525 -0.2753 -0.2256
  172loPI   C2B 2750  14.073  10.918   8.438 -0.3085  0.1900  0.2022
  172loPI   C3B 2751  14.017  11.116   7.956 -0.0558 -0.3989 -0.1340
  172loPI   C4B 2752  13.827  10.922   7.574 -0.0382 -0.0880 -0.2062
  173loPI    C1 2753  13.642  12.913  10.109 -0.0706 -0.0378 -0.0911
  173loPI    C2 2754  13.431  12.784  10.424 -0.1465  0.0192 -0.1187
  173loPI    C3 2755  13.795  12.635  10.353 -0.1956 -0.1120 -0.0966
  173loPI   PO4 2756  13.499  12.958   9.916 -0.0067  0.2885 -0.0078
  173loPI   GL1 2757  13.434  13.167   9.615 -0.1361  0.0106 -0.3545
  173loPI   GL2 2758  13.489  13.166   9.267 -0.0274  0.1929  0.1869
  173loPI   C1A 2759  13.174  13.528   9.385  0.0155 -0.0718  0.0871
  173loPI   C2A 2760  13.200  13.730   8.995  0.0954  0.0058 -0.0430
  173loPI   C3A 2761  13.253  13.659   8.569 -0.2046 -0.2551  0.2300
  173loPI   C4A 2762  13.289  14.060   8.210  0.1925 -0.2200  0.0093
  173loPI   C5A 2763  13.069  14.175   7.971  0.2831 -0.2337  0.2059
  173loPI   C6A 2764  12.678  14.129   7.752 -0.2591 -0.3297 -0.0824
  173loPI   C1B 2765  13.222  13.249   8.921 -0.1044 -0.0459 -0.0645
  173loPI   C2B 2766  13.047  13.189   8.491  0.0166  0.0024  0.0480
  173loPI   C3B 2767  13.048  13.410   8.119  0.0821 -0.0638 -0.2674
  173loPI   C4B 2768  13.098  13.669   7.713  0.0304  0.1554  0.1293
  174loPI    C1 2769  15.503   7.737  10.331  0.2174 -0.1146 -0.0135
  174loPI    C2 2770  15.246   7.442  10.414 -0.0736  0.0324 -0.3629
  174loPI    C3 2771  15.182   7.809  10.558  0.2800 -0.0631  0.0590
  174loPI   PO4 2772  15.449   7.795  10.043 -0.0083 -0.0550  0.0756
  174loPI   GL1 2773  15.652   7.733   9.636  0.3569 -0.0676  0.0767
  174loPI   GL2 2774  15.830   8.039   9.645 -0.2464 -0.0046  0.2134
  174loPI   C1A 2775  15.552   7.750   9.147 -0.3029 -0.0068  0.0813
  174loPI   C2A 2776  15.517   7.839   8.749 -0.1264 -0.2266  0.1389
  174loPI   C3A 2777  15.661   7.817   8.362 -0.2874 -0.0374 -0.3995
  174loPI   C4A 2778  15.682   7.730   7.939 -0.1487 -0.0830 -0.1384
  174loPI   C5A 2779  15.340   7.659   7.591  0.1943 -0.1057 -0.2098
  174loPI   C6A 2780  15.161   7.844   7.320  0.1828 -0.2047  0.2067
  174loPI   C1B 2781  15.959   8.100   9.157  0.0081  0.2591  0.0206
  174loPI   C2B 2782  15.971   8.146   8.727 -0.2573  0.0210 -0.0086
  174loPI   C3B 2783  16.067   8.058   8.344 -0.1708 -0.0194  0.1951
  174loPI   C4B 2784  15.992   8.121   7.933  0.2262  0.3594 -0.2174
  175loPI    C1 2785  14.719  11.809   9.974 -0.1867 -0.1032 -0.0377
  175loPI    C2 2786  14.680  12.204   9.923 -0.1812 -0.0831  0.1090
  175loPI    C3 2787  14.670  12.048  10.291 -0.1725 -0.2189  0.0525
  175loPI   PO4 2788  15.021  11.672   9.827 -0.0469 -0.1736  0.2322
  175loPI   GL1 2789  15.052  11.263   9.505  0.2710  0.1523  0.1249
  175loPI   GL2 2790  15.121  11.552   9.364 -0.2156 -0.2293  0.4048
  175loPI   C1A 2791  15.265  11.118   9.062  0.0003  0.1480  0.1159
  175loPI   C2A 2792  15.433  11.159   8.600 -0.0433 -0.0371 -0.1016
  175loPI   C3A 2793  15.408  11.191   8.203 -0.1003  0.3992  0.0706
  175loPI   C4A 2794  15.689  11.193   7.842 -0.0435 -0.1786  0.3572
  175loPI   C5A 2795  16.051  11.277   7.642 -0.2739 -0.4474 -0.3781
  175loPI   C6A 2796  16.567  11.366   7.795 -0.1387 -0.0837  0.2977
  175loPI   C1B 2797  15.247  11.580   8.924 -0.1802 -0.4852  0.0034
  175loPI   C2B 2798  15.370  11.630   8.538 -0.0330 -0.0509 -0.2069
  175loPI   C3B 2799  15.444  11.837   8.132  0.1535  0.1070 -0.3141
  175loPI   C4B 2800  15.565  11.845   7.776 -0.0070 -0.0746 -0.0493
  176loPI    C1 2801   1.600  14.363  10.030 -0.0934 -0.1641 -0.0501
  176loPI    C2 2802   1.978  14.241   9.985 -0.0498 -0.0043 -0.1257
  176loPI    C3 2803   1.884  14.496  10.278 -0.1174 -0.1194 -0.0465
  176loPI   PO4 2804   1.483  14.450   9.845  0.0371  0.3906  0.1429
  176loPI   GL1 2805   1.384  14.273   9.486 -0.2613  0.0431  0.3109
  176loPI   GL2 2806   1.556  14.234   9.267  0.1588 -0.1622  0.0698
  176loPI   C1A 2807   1.215  14.674   9.174  0.2649  0.3560  0.0714
  176loPI   C2A 2808   1.130  14.728   8.736  0.1296 -0.3639 -0.1056
  176loPI   C3A 2809   1.115  14.580   8.327 -0.1457  0.0884  0.0884
  176loPI   C4A 2810   0.935  14.602   7.888  0.0360 -0.1788 -0.0684
  176loPI   C5A 2811   0.579  14.492   7.844  0.3048 -0.2910 -0.0021
  176loPI   C6A 2812   0.220  14.885   7.710 -0.1671  0.0414 -0.2675
  176loPI   C1B 2813   1.517  14.214   8.837 -0.2783 -0.0067 -0.1744
  176loPI   C2B 2814   1.635  14.239   8.346  0.0772  0.4700  0.0990
  176loPI   C3B 2815   1.400  14.343   7.972 -0.0551  0.1580  0.2343
  176loPI   C4B 2816   1.354  14.484   7.632  0.0190  0.0302  0.0273
  177loPI    C1 2817   3.913   6.382  10.481 -0.1335  0.0555 -0.0701
  177loPI    C2 2818   3.807   6.583  10.810  0.1902  0.1638 -0.0289
  177loPI    C3 2819   4.123   6.338  10.818  0.0394 -0.0393 -0.1890
  177loPI   PO4 2820   3.900   6.512  10.330 -0.2053 -0.4404 -0.0305
  177loPI   GL1 2821   3.669   6.597   9.958  0.0846  0.0835  0.0781
  177loPI   GL2 2822   3.517   6.345  10.013  0.1016 -0.0268  0.0040
  177loPI   C1A 2823   3.865   6.469   9.651 -0.0703 -0.0048  0.1349
  177loPI   C2A 2824   3.904   6.455   9.234 -0.0527  0.1086 -0.1576
  177loPI   C3A 2825   3.884   6.528   8.817  0.0674 -0.2115 -0.2481
  177loPI   C4A 2826   3.976   6.651   8.382 -0.1050 -0.3675  0.0969
  177loPI   C5A 2827   4.263   6.961   8.005  0.2745  0.0131  0.0454
  177loPI   C6A 2828   4.523   7.038   7.609  0.1070 -0.1121  0.3202
  177loPI   C1B 2829   3.405   6.435   9.577  0.0545  0.0641 -0.1857
  177loPI   C2B 2830   3.411   6.595   9.120  0.0201  0.1198  0.2170
  177loPI   C3B 2831   3.439   6.689   8.626  0.2272 -0.1119 -0.0758
  177loPI   C4B 2832   3.387   6.920   8.316 -0.0590 -0.3414 -0.0162
  178loPI    C1 2833  12.439   3.722  10.386  0.0713 -0.2531  0.2880
  178loPI    C2 2834  12.820   3.838  10.345  0.0267 -0.1752  0.0797
  178loPI    C3 2835  12.653   3.823  10.709  0.2017 -0.1260  0.1631
  178loPI   PO4 2836  12.319   3.925  10.211 -0.0136  0.1000  0.0983
  178loPI   GL1 2837  12.205   3.965   9.876 -0.0192  0.1674  0.1076
  178loPI   GL2 2838  12.513   3.753   9.767  0.1766 -0.1503  0.2536
  178loPI   C1A 2839  11.988   3.985   9.437 -0.2033 -0.0332  0.1142
  178loPI   C2A 2840  11.941   3.972   9.066 -0.2269  0.2693 -0.2585
  178loPI   C3A 2841  12.169   3.981   8.823 -0.1113  0.0838  0.1869
  178loPI   C4A 2842  12.351   3.981   8.595 -0.0400 -0.0180  0.0254
  178loPI   C5A 2843  12.466   3.841   8.273 -0.0014  0.0352 -0.0414
  178loPI   C6A 2844  12.779   3.950   7.890  0.1156  0.2382 -0.0123
  178loPI   C1B 2845  12.924   3.675   9.543  0.0675 -0.1708  0.2342
  178loPI   C2B 2846  13.175   3.588   9.137  0.1589  0.0998 -0.2365
  178loPI   C3B 2847  13.317   3.358   8.858  0.3434 -0.1300  0.2302
  178loPI   C4B 2848  13.607   3.013   8.721 -0.0233  0.0965 -0.2725
  179loPI    C1 2849   0.105  12.328   9.985 -0.0244 -0.0266  0.0142
  179loPI    C2 2850   0.498  12.389   9.941 -0.0071  0.0683  0.2805
  179loPI    C3 2851   0.340  12.356  10.307 -0.2550  0.0775  0.1767
  179loPI   PO4 2852   0.026  12.460   9.855  0.0239 -0.2379 -0.1041
  179loPI   GL1 2853  -0.085  12.499   9.434 -0.0244  0.4172  0.0353
  179loPI   GL2 2854   0.242  12.530   9.427 -0.0594 -0.0903  0.3529
  179loPI   C1A 2855  -0.361  12.666   9.290 -0.1255  0.2128  0.0352
  179loPI   C2A 2856  -0.365  12.700   8.906 -0.1899 -0.2079 -0.0146
  179loPI   C3A 2857  -0.379  12.700   8.511  0.1651 -0.2251  0.1141
  179loPI   C4A 2858  -0.435  12.905   8.020 -0.2590  0.2231 -0.2166
  179loPI   C5A 2859  -0.428  13.194   7.774 -0.3337  0.2975 -0.0164
  179loPI   C6A 2860  -0.540  13.470   7.506 -0.0573  0.1476 -0.2555
  179loPI   C1B 2861   0.203  12.435   9.038  0.1427 -0.2014 -0.0914
  179loPI   C2B 2862   0.054  12.582   8.654 -0.1071 -0.0419  0.0509
  179loPI   C3B 2863  -0.023  12.535   8.200 -0.1890 -0.0943  0.1743
  179loPI   C4B 2864  -0.240  12.542   7.819 -0.1708  0.1098  0.2291
  180loPI    C1 2865   2.899   3.740  10.420  0.0687 -0.0601 -0.1928
  180loPI    C2 2866   3.104   3.419  10.541 -0.1388  0.0148  0.3886
  180loPI    C3 2867   2.733   3.482  10.676 -0.1912  0.3765  0.0926
  180loPI   PO4 2868   2.873   3.749  10.088  0.0879  0.2694 -0.2514
  180loPI   GL1 2869   3.035   3.537   9.695  0.0359 -0.0324 -0.0934
  180loPI   GL2 2870   3.211   3.303   9.606  0.1206  0.1377 -0.3462
  180loPI   C1A 2871   3.008   3.842   9.323 -0.3500 -0.0222  0.1779
  180loPI   C2A 2872   3.018   3.927   8.892 -0.2888  0.1769  0.1406
  180loPI   C3A 2873   3.042   3.956   8.452  0.1505  0.0375 -0.0439
  180loPI   C4A 2874   2.970   3.988   7.960 -0.0690 -0.0260 -0.0212
  180loPI   C5A 2875   3.123   4.256   7.691  0.1671 -0.2867 -0.2573
  180loPI   C6A 2876   3.454   4.419   7.376  0.2431  0.0070 -0.0604
  180loPI   C1B 2877   3.109   3.302   9.162 -0.3500  0.0762  0.3316
  180loPI   C2B 2878   3.253   3.323   8.732 -0.3556  0.0976 -0.1970
  180loPI   C3B 2879   3.337   3.552   8.359 -0.1697 -0.2030 -0.2726
  180loPI   C4B 2880   3.299   3.631   7.986  0.5240 -0.2637 -0.0007
  181loPI    C1 2881   4.816   8.443  10.313  0.1411  0.2230  0.1815
  181loPI    C2 2882   4.722   8.831  10.281  0.0630  0.1855 -0.0651
  181loPI    C3 2883   4.434   8.560  10.339  0.0935  0.1424 -0.1127
  181loPI   PO4 2884   4.964   8.343  10.044 -0.1147 -0.0844  0.0357
  181loPI   GL1 2885   4.864   8.340   9.559 -0.1322  0.2086  0.0694
  181loPI   GL2 2886   4.775   8.094   9.437  0.0438 -0.1666  0.0690
  181loPI   C1A 2887   5.090   8.554   9.346 -0.1817  0.3130 -0.1655
  181loPI   C2A 2888   5.050   8.504   8.932  0.3467  0.1584 -0.0227
  181loPI   C3A 2889   5.184   8.419   8.531  0.2718 -0.2659 -0.0803
  181loPI   C4A 2890   5.363   8.551   8.169  0.1910  0.2980 -0.4167
  181loPI   C5A 2891   5.350   8.677   7.760  0.0677  0.2111  0.0166
  181loPI   C6A 2892   5.446   8.868   7.375  0.1383  0.2421  0.1281
  181loPI   C1B 2893   4.761   8.058   8.957 -0.2405  0.0549 -0.0339
  181loPI   C2B 2894   4.855   8.002   8.485 -0.1909  0.2669 -0.5741
  181loPI   C3B 2895   4.734   8.051   8.078  0.0566 -0.0428 -0.1863
  181loPI   C4B 2896   4.528   8.082   7.667 -0.0880  0.1737 -0.0207
  182loPI    C1 2897  14.234   6.878  10.133 -0.0988 -0.0929 -0.1963
  182loPI    C2 2898  14.116   6.534  10.300 -0.0504  0.0398  0.1188
  182loPI    C3 2899  13.968   6.881  10.433  0.1497  0.1621  0.0273
  182loPI   PO4 2900  14.168   6.825   9.789 -0.3530 -0.0691 -0.2020
  182loPI   GL1 2901  13.886   6.807   9.485 -0.3926 -0.0406  0.0481
  182loPI   GL2 2902  13.510   6.779   9.262  0.1955 -0.0289 -0.2698
  182loPI   C1A 2903  13.950   6.534   9.107 -0.1149 -0.1494 -0.0718
  182loPI   C2A 2904  13.976   6.580   8.720  0.1569 -0.0109 -0.0101
  182loPI   C3A 2905  14.102   6.835   8.402  0.2172 -0.2763 -0.0844
  182loPI   C4A 2906  13.971   7.306   8.280 -0.0986 -0.1956  0.1068
  182loPI   C5A 2907  14.087   7.746   8.135  0.2071  0.3093 -0.0333
  182loPI   C6A 2908  13.901   8.080   7.941  0.2272  0.2572 -0.2671
  182loPI   C1B 2909  13.443   6.665   8.893  0.0236  0.3921  0.2213
  182loPI   C2B 2910  13.317   6.515   8.445 -0.2682  0.2077  0.1779
  182loPI   C3B 2911  13.431   6.430   8.051  0.0483 -0.0389  0.1963
  182loPI   C4B 2912  13.249   6.239   7.670  0.2621 -0.1986 -0.2209
  183loPI    C1 2913   9.466   2.721   9.943  0.0746 -0.0386  0.0552
  183loPI    C2 2914   9.352   2.775  10.322  0.0121  0.1060  0.0165
  183loPI    C3 2915   9.635   3.008  10.163 -0.0318  0.1105 -0.0558
  183loPI   PO4 2916   9.424   2.488   9.902 -0.1342  0.1305  0.1447
  183loPI   GL1 2917   9.463   2.433   9.409  0.2219 -0.1120 -0.0990
  183loPI   GL2 2918   9.229   2.218   9.454 -0.2599 -0.3140 -0.3576
  183loPI   C1A 2919   9.604   2.620   9.023  0.0832 -0.2692  0.0861
  183loPI   C2A 2920   9.681   2.720   8.630 -0.1836 -0.0146 -0.0905
  183loPI   C3A 2921   9.784   2.993   8.257 -0.0474  0.0377  0.0849
  183loPI   C4A 2922   9.599   3.259   8.022  0.0930  0.2398  0.0820
  183loPI   C5A 2923   9.495   3.739   7.931  0.1579  0.0210  0.5109
  183loPI   C6A 2924   9.363   4.147   7.991  0.0957 -0.0878  0.1732
  183loPI   C1B 2925   9.016   2.062   9.111  0.1615  0.0144  0.0076
  183loPI   C2B 2926   8.990   2.183   8.755  0.2892  0.2096  0.1189
  183loPI   C3B 2927   8.965   2.234   8.357  0.0885  0.1135  0.2487
  183loPI   C4B 2928   9.127   2.434   7.923 -0.0261 -0.1125 -0.2979
  184loPI    C1 2929  13.674  16.080   9.950  0.0833 -0.0583  0.2809
  184loPI    C2 2930  13.748  16.254  10.303 -0.0133  0.1523  0.1993
  184loPI    C3 2931  13.373  16.162  10.200  0.0399 -0.1361  0.2543
  184loPI   PO4 2932  13.733  16.147   9.817 -0.0446 -0.2283  0.2637
  184loPI   GL1 2933  13.935  16.292   9.533  0.1424  0.1065  0.2097
  184loPI   GL2 2934  13.622  16.066   9.331 -0.1503 -0.1952 -0.1250
  184loPI   C1A 2935  14.064  16.532   9.158 -0.1129 -0.0009 -0.0636
  184loPI   C2A 2936  13.893  16.397   8.654 -0.1321 -0.1182 -0.1215
  184loPI   C3A 2937  13.942  16.426   8.191  0.1875  0.0054  0.0942
  184loPI   C4A 2938  14.093  16.851   8.049 -0.1249  0.1013 -0.1852
  184loPI   C5A 2939  14.211  17.119   7.832 -0.2846 -0.0754 -0.1650
  184loPI   C6A 2940  14.298  17.653   7.732  0.1791  0.0172  0.0303
  184loPI   C1B 2941  13.877  16.025   9.064 -0.2799  0.0127  0.2469
  184loPI   C2B 2942  14.058  15.938   8.644  0.1398 -0.0324 -0.1310
  184loPI   C3B 2943  13.974  15.908   8.149  0.0916 -0.3011 -0.1957
  184loPI   C4B 2944  13.809  15.744   7.841 -0.0446 -0.3155 -0.1290
  185loPI    C1 2945   1.900  18.575  10.281  0.3784  0.0094 -0.1529
  185loPI    C2 2946   1.803  18.260  10.508  0.1466 -0.0690 -0.3572
  185loPI    C3 2947   1.856  18.619  10.677 -0.0232 -0.1262 -0.1780
  185loPI   PO4 2948   2.053  18.538  10.198  0.2180  0.5040  0.1077
  185loPI   GL1 2949   2.320  18.712   9.990 -0.0681 -0.0143  0.0482
  185loPI   GL2 2950   2.428  18.415   9.809 -0.0048 -0.0153 -0.2790
  185loPI   C1A 2951   2.520  18.899   9.641  0.3307  0.0445 -0.1358
  185loPI   C2A 2952   2.534  18.733   9.179 -0.2200  0.0525  0.0380
  185loPI   C3A 2953   2.529  18.906   8.691  0.0078 -0.0355  0.0643
  185loPI   C4A 2954   2.549  18.792   8.303  0.0390 -0.3132  0.0070
  185loPI   C5A 2955   2.609  19.020   7.899 -0.2390  0.2465 -0.3199
  185loPI   C6A 2956   2.757  19.018   7.507 -0.3182 -0.0876 -0.2123
  185loPI   C1B 2957   2.380  18.308   9.356  0.0780  0.0215  0.0197
  185loPI   C2B 2958   2.282  18.361   8.889  0.2023  0.0416 -0.2056
  185loPI   C3B 2959   2.424  18.396   8.537  0.1874  0.1955  0.0873
  185loPI   C4B 2960   2.277  18.358   8.113 -0.2459  0.2091  0.2435
  186loPI    C1 2961  17.291   7.572  10.671  0.3020 -0.0735 -0.1056
  186loPI    C2 2962  17.192   7.261  10.903 -0.0902  0.0507 -0.0990
  186loPI    C3 2963  17.060   7.628  10.993  0.1376  0.1754 -0.2633
  186loPI   PO4 2964  17.172   7.552  10.428  0.0481  0.2580 -0.2103
  186loPI   GL1 2965  16.986   7.600   9.953 -0.0806 -0.5367 -0.2618
  186loPI   GL2 2966  16.658   7.710   9.902 -0.1718  0.1580  0.1029
  186loPI   C1A 2967  17.266   7.648   9.611 -0.0605 -0.0909 -0.0840
  186loPI   C2A 2968  17.365   7.535   9.170 -0.2462 -0.0527  0.1692
  186loPI   C3A 2969  17.302   7.281   8.890  0.0022 -0.0816  0.0129
  186loPI   C4A 2970  17.216   7.111   8.471 -0.4866  0.1017  0.3764
  186loPI   C5A 2971  16.961   7.084   8.136 -0.4548  0.2878  0.1034
  186loPI   C6A 2972  16.716   6.993   7.794  0.0924  0.1233  0.1412
  186loPI   C1B 2973  16.720   7.609   9.564  0.0942  0.2951 -0.0630
  186loPI   C2B 2974  16.873   7.473   9.247 -0.0504 -0.0768  0.1399
  186loPI   C3B 2975  16.757   7.504   8.816 -0.3305  0.1067 -0.0695
  186loPI   C4B 2976  16.638   7.236   8.514  0.1245  0.1186 -0.0406
  187loPI    C1 2977  13.959   9.674   9.687 -0.0479 -0.0153 -0.1114
  187loPI    C2 2978  13.567   9.741   9.650 -0.0327  0.0954 -0.0743
  187loPI    C3 2979  13.743   9.772  10.008 -0.0077 -0.0513 -0.0731
  187loPI   PO4 2980  14.055   9.539   9.485 -0.2899  0.1235  0.1039
  187loPI   GL1 2981  13.772   9.432   9.174 -0.0840  0.0978  0.1425
  187loPI   GL2 2982  13.656   9.233   9.357  0.2043 -0.0140 -0.0209
  187loPI   C1A 2983  13.848   9.610   8.760 -0.0675 -0.1019  0.0764
  187loPI   C2A 2984  13.972   9.791   8.306 -0.0336  0.4962 -0.1277
  187loPI   C3A 2985  14.169   9.789   8.003 -0.2997  0.2604 -0.1278
  187loPI   C4A 2986  14.620   9.720   7.743  0.2850 -0.2959  0.2459
  187loPI   C5A 2987  14.969   9.563   7.480  0.1204  0.0696  0.1654
  187loPI   C6A 2988  15.425   9.292   7.416 -0.0038 -0.0267  0.4288
  187loPI   C1B 2989  13.738   8.892   8.996 -0.3423  0.0726  0.0114
  187loPI   C2B 2990  13.532   8.866   8.502 -0.2059  0.0658  0.2259
  187loPI   C3B 2991  13.305   8.950   8.138  0.2662 -0.0096  0.4010
  187loPI   C4B 2992  13.155   9.386   7.871 -0.0539  0.0435 -0.1344
  188loPI    C1 2993   1.447   2.636  10.529 -0.2319 -0.1167  0.1839
  188loPI    C2 2994   1.781   2.510  10.709 -0.0655  0.0585  0.0020
  188loPI    C3 2995   1.445   2.556  10.921  0.1407  0.3149  0.2810
  188loPI   PO4 2996   1.428   2.492  10.288  0.2272  0.3150 -0.0576
  188loPI   GL1 2997   1.460   2.222   9.958  0.2189 -0.0284  0.1772
  188loPI   GL2 2998   1.752   2.160   9.772 -0.0663 -0.2776 -0.4054
  188loPI   C1A 2999   1.338   2.306   9.538  0.1416 -0.1846 -0.1004
  188loPI   C2A 3000   1.526   2.272   9.210 -0.4757  0.0948  0.2582
  188loPI   C3A 3001   1.712   2.256   8.752  0.1112  0.1998 -0.0871
  188loPI   C4A 3002   1.850   2.218   8.336  0.0363 -0.0168 -0.0173
  188loPI   C5A 3003   1.943   2.284   7.891  0.0781 -0.0558 -0.0506
  188loPI   C6A 3004   2.206   2.539   7.743  0.1068 -0.0391 -0.0856
  188loPI   C1B 3005   1.780   1.864   9.451 -0.2712  0.2098 -0.1759
  188loPI   C2B 3006   1.890   1.873   8.940  0.0142 -0.1366 -0.3236
  188loPI   C3B 3007   1.971   1.819   8.584  0.0536  0.0436 -0.0383
  188loPI   C4B 3008   1.784   1.736   8.183  0.1254  0.1503 -0.0979
  189loPI    C1 3009   7.623  13.246  10.472  0.1217 -0.2801 -0.0582
  189loPI    C2 3010   7.995  13.099  10.475  0.2020 -0.0804 -0.0424
  189loPI    C3 3011   7.733  12.986  10.756  0.2934 -0.1138  0.0298
  189loPI   PO4 3012   7.566  13.219  10.229  0.0184 -0.1646 -0.3640
  189loPI   GL1 3013   7.390  13.315   9.813  0.0362  0.1094 -0.0326
  189loPI   GL2 3014   7.072  13.559   9.864  0.0959 -0.1694  0.0686
  189loPI   C1A 3015   7.106  13.487   9.389  0.0250  0.2778  0.0831
  189loPI   C2A 3016   7.192  13.453   9.002 -0.1484  0.2688  0.2551
  189loPI   C3A 3017   7.202  13.262   8.535  0.0544  0.0832 -0.0611
  189loPI   C4A 3018   7.185  12.944   8.214 -0.0036  0.0136 -0.0636
  189loPI   C5A 3019   6.892  12.823   7.929  0.2958 -0.2190  0.0135
  189loPI   C6A 3020   7.009  12.682   7.607  0.0635 -0.1058 -0.2317
  189loPI   C1B 3021   6.805  13.791   9.642  0.1506 -0.2758 -0.0020
  189loPI   C2B 3022   6.902  14.080   9.294 -0.2282  0.1418  0.0540
  189loPI   C3B 3023   6.950  13.893   8.950 -0.1989 -0.1107 -0.1917
  189loPI   C4B 3024   7.143  13.782   8.517  0.2137  0.0635  0.1486
  190loPI    C1 3025  18.621  17.780  10.347  0.1775 -0.2206  0.0361
  190loPI    C2 3026  19.003  17.665  10.382  0.2165  0.0100  0.4390
  190loPI    C3 3027  18.875  17.993  10.571 -0.0993  0.1409  0.0152
  190loPI   PO4 3028  18.570  17.782  10.156  0.1527 -0.1346  0.1068
  190loPI   GL1 3029  18.423  17.568   9.736 -0.1961 -0.0054 -0.1401
  190loPI   GL2 3030  18.417  17.294   9.844 -0.0449  0.1642 -0.1098
  190loPI   C1A 3031  18.582  17.597   9.266 -0.1603 -0.0081 -0.4950
  190loPI   C2A 3032  18.472  17.558   8.867  0.1337  0.4675  0.1218
  190loPI   C3A 3033  18.467  17.602   8.345  0.4353 -0.0062  0.0843
  190loPI   C4A 3034  18.414  17.449   7.943  0.1055 -0.3264  0.1216
  190loPI   C5A 3035  18.249  17.689   7.602 -0.0370  0.0833 -0.1953
  190loPI   C6A 3036  17.857  17.861   7.554 -0.0197 -0.0288 -0.3262
  190loPI   C1B 3037  18.348  17.155   9.428  0.0784 -0.4230  0.0532
  190loPI   C2B 3038  18.311  17.121   9.049 -0.0867  0.0237  0.1324
  190loPI   C3B 3039  18.260  17.239   8.591 -0.1447 -0.0069  0.1494
  190loPI   C4B 3040  18.067  17.190   8.210 -0.4469 -0.1334 -0.1019
  191loPI    C1 3041  16.458  16.663  10.287 -0.1038 -0.5541  0.3438
  191loPI    C2 3042  16.777  16.503  10.469  0.2091 -0.1767  0.1438
  191loPI    C3 3043  16.558  16.780  10.657 -0.1048 -0.5498  0.3427
  191loPI   PO4 3044  16.501  16.700  10.069 -0.1175  0.0310 -0.0983
  191loPI   GL1 3045  16.443  16.654   9.612  0.3460 -0.2845  0.1486
  191loPI   GL2 3046  16.714  16.868   9.640 -0.1898  0.2404  0.0915
  191loPI   C1A 3047  16.300  16.950   9.321  0.2643  0.0413  0.0227
  191loPI   C2A 3048  16.099  17.030   8.858  0.0720  0.0866  0.0464
  191loPI   C3A 3049  15.769  17.137   8.447 -0.0533 -0.0867 -0.1380
  191loPI   C4A 3050  15.796  17.208   8.032  0.1852 -0.0586  0.0085
  191loPI   C5A 3051  15.559  17.177   7.653 -0.1660  0.0656 -0.0116
  191loPI   C6A 3052  15.154  17.171   7.588 -0.1997  0.0692 -0.0391
  191loPI   C1B 3053  16.788  16.968   9.272 -0.2240  0.4276  0.1492
  191loPI   C2B 3054  16.675  17.035   8.833 -0.3179 -0.0807 -0.1552
  191loPI   C3B 3055  16.739  16.975   8.461 -0.0920 -0.1394 -0.0023
  191loPI   C4B 3056  16.853  16.745   8.036 -0.1034  0.3553 -0.0464
  192loPI    C1 3057  15.773  17.196  10.346  0.0222 -0.0789 -0.1019
  192loPI    C2 3058  15.740  17.544  10.539 -0.1983 -0.1687  0.0261
  192loPI    C3 3059  16.021  17.281  10.648 -0.1005 -0.0765 -0.0013
  192loPI   PO4 3060  15.648  17.311  10.090 -0.0988  0.1010 -0.3256
  192loPI   GL1 3061  15.714  17.217   9.623 -0.3757  0.2174 -0.3191
  192loPI   GL2 3062  15.942  17.432   9.639  0.0151 -0.3668  0.2473
  192loPI   C1A 3063  15.646  17.066   9.246  0.2090  0.2154  0.0915
  192loPI   C2A 3064  15.581  16.944   8.870 -0.1788 -0.3015 -0.0749
  192loPI   C3A 3065  15.276  16.809   8.510  0.1135  0.0735 -0.0222
  192loPI   C4A 3066  15.298  16.902   8.169  0.0019 -0.0098 -0.3362
  192loPI   C5A 3067  14.897  16.864   7.905  0.3445  0.0009  0.0745
  192loPI   C6A 3068  14.631  16.551   7.868 -0.0943  0.2826 -0.0472
  192loPI   C1B 3069  15.818  17.520   9.275 -0.1217 -0.1463  0.0719
  192loPI   C2B 3070  15.814  17.458   8.817  0.1190  0.1277  0.0810
  192loPI   C3B 3071  16.162  17.414   8.533 -0.0617 -0.1430  0.0087
  192loPI   C4B 3072  16.217  17.567   8.099  0.0091  0.2978 -0.0158
  193loPI    C1 3073   4.560   0.395  10.225  0.0629 -0.1301  0.1395
  193loPI    C2 3074   4.341   0.703  10.358  0.2757  0.1541 -0.1508
  193loPI    C3 3075   4.679   0.602  10.546  0.0873 -0.0546  0.0824
  193loPI   PO4 3076   4.566   0.432   9.908  0.2912 -0.1571  0.1005
  193loPI   GL1 3077   4.606   0.686   9.508  0.0886  0.0183 -0.2295
  193loPI   GL2 3078   4.575   0.902   9.628 -0.1869 -0.3145 -0.5175
  193loPI   C1A 3079   4.575   0.637   9.175  0.1319 -0.1953  0.1240
  193loPI   C2A 3080   4.532   0.510   8.614 -0.0330  0.2620  0.3071
  193loPI   C3A 3081   4.587   0.549   8.158  0.1212 -0.0138 -0.2639
  193loPI   C4A 3082   4.485   0.815   7.840  0.1731  0.1350 -0.1807
  193loPI   C5A 3083   4.278   0.932   7.500  0.1735  0.3269  0.2499
  193loPI   C6A 3084   4.476   1.025   7.039 -0.1799 -0.1376  0.0309
  193loPI   C1B 3085   4.362   1.056   9.236  0.0127 -0.0348  0.0976
  193loPI   C2B 3086   4.383   1.020   8.713  0.3053 -0.0607  0.4836
  193loPI   C3B 3087   4.495   1.090   8.255  0.3063  0.1982 -0.2418
  193loPI   C4B 3088   4.204   1.304   7.933 -0.0112  0.0020 -0.0422
  194loPI    C1 3089  13.195  17.870  10.318  0.1361 -0.1004 -0.0562
  194loPI    C2 3090  13.030  17.819  10.679 -0.1048  0.0128 -0.1481
  194loPI    C3 3091  13.404  17.958  10.648 -0.0982  0.0437  0.0563
  194loPI   PO4 3092  12.985  17.801  10.195 -0.1377  0.1853  0.0136
  194loPI   GL1 3093  12.812  17.985   9.863  0.2007  0.0862  0.3520
  194loPI   GL2 3094  12.527  18.104   9.588  0.4740  0.0384 -0.1218
  194loPI   C1A 3095  13.041  17.889   9.481  0.0576  0.1148  0.0066
  194loPI   C2A 3096  13.046  17.846   9.001  0.2855 -0.0866  0.2092
  194loPI   C3A 3097  13.289  17.816   8.575 -0.1938 -0.1589 -0.0299
  194loPI   C4A 3098  13.124  17.923   8.140 -0.0423 -0.1896  0.1768
  194loPI   C5A 3099  13.409  17.817   7.788 -0.0076 -0.4320 -0.1984
  194loPI   C6A 3100  13.688  17.664   7.437  0.0334 -0.1670 -0.0372
  194loPI   C1B 3101  12.451  17.797   9.191 -0.2135 -0.2981 -0.0698
  194loPI   C2B 3102  12.462  17.581   8.729 -0.1637  0.0839 -0.0215
  194loPI   C3B 3103  12.495  17.243   8.481 -0.1254 -0.2738 -0.0929
  194loPI   C4B 3104  12.457  17.153   8.092 -0.2248 -0.0346  0.1041
  195loPI    C1 3105   9.778  13.889  10.126  0.2670  0.1277  0.1552
  195loPI    C2 3106   9.994  13.557  10.184  0.1929  0.0917  0.2267
  195loPI    C3 3107   9.821  13.739  10.495 -0.3329 -0.1867  0.1100
  195loPI   PO4 3108   9.493  13.844   9.931 -0.2030 -0.0273 -0.2546
  195loPI   GL1 3109   9.355  13.775   9.572  0.0601 -0.0637 -0.0174
  195loPI   GL2 3110   8.937  13.925   9.561  0.2397  0.0621 -0.2331
  195loPI   C1A 3111   9.476  13.677   9.108 -0.2502 -0.2186 -0.0663
  195loPI   C2A 3112   9.494  13.719   8.645 -0.0003  0.1299 -0.1976
  195loPI   C3A 3113   9.518  13.644   8.217  0.2157  0.1682  0.0249
  195loPI   C4A 3114   9.670  13.517   7.924 -0.1408 -0.0871 -0.1910
  195loPI   C5A 3115   9.987  13.199   7.860  0.3489 -0.1018  0.1448
  195loPI   C6A 3116  10.279  12.959   7.609  0.0087 -0.1298  0.1858
  195loPI   C1B 3117   9.090  13.995   9.180 -0.2017 -0.0471  0.1614
  195loPI   C2B 3118   9.107  13.972   8.758  0.2599 -0.2788 -0.1084
  195loPI   C3B 3119   9.128  13.949   8.358  0.0785  0.2088  0.2128
  195loPI   C4B 3120   8.975  13.897   7.994  0.0458  0.2089 -0.0106
  196loPI    C1 3121   5.059  14.919  10.148  0.0245 -0.1703  0.0941
  196loPI    C2 3122   4.772  15.001  10.414  0.1058  0.0291  0.1227
  196loPI    C3 3123   5.153  15.090  10.497  0.1339  0.0788 -0.0540
  196loPI   PO4 3124   4.962  14.986   9.976  0.0243 -0.1800  0.2762
  196loPI   GL1 3125   4.951  15.270   9.586  0.1661 -0.1381  0.2742
  196loPI   GL2 3126   4.728  15.021   9.560 -0.0139  0.1662  0.2455
  196loPI   C1A 3127   4.933  15.623   9.256  0.2500  0.2134 -0.0082
  196loPI   C2A 3128   4.708  15.825   8.969  0.0907 -0.0241  0.1092
  196loPI   C3A 3129   4.536  15.671   8.522  0.0773 -0.1978  0.2078
  196loPI   C4A 3130   4.371  15.627   8.130  0.0301  0.1336 -0.0769
  196loPI   C5A 3131   4.117  15.464   7.698  0.0186  0.0756 -0.1325
  196loPI   C6A 3132   3.893  15.148   7.481  0.0268  0.1868  0.0822
  196loPI   C1B 3133   4.795  14.948   9.101 -0.2221 -0.1753 -0.1976
  196loPI   C2B 3134   4.713  15.213   8.834 -0.0804  0.2945  0.1364
  196loPI   C3B 3135   5.061  15.447   8.790 -0.5392  0.1088 -0.0877
  196loPI   C4B 3136   5.348  15.781   8.628  0.1686 -0.1100 -0.1926
  197loPI    C1 3137  18.054   9.434  10.347  0.0213 -0.0742 -0.0361
  197loPI    C2 3138  18.267   9.626  10.625  0.4015 -0.0747 -0.3185
  197loPI    C3 3139  18.122   9.261  10.701 -0.0250  0.1685  0.0931
  197loPI   PO4 3140  18.211   9.520  10.137  0.3038  0.0299 -0.3340
  197loPI   GL1 3141  18.335   9.596   9.809  0.0116  0.2055  0.1482
  197loPI   GL2 3142  17.926   9.757   9.858 -0.1391  0.1135 -0.2959
  197loPI   C1A 3143  18.417   9.660   9.375 -0.2998 -0.0329 -0.1914
  197loPI   C2A 3144  18.268   9.745   9.017  0.0135  0.1263  0.2349
  197loPI   C3A 3145  18.483   9.734   8.627 -0.0409  0.0833  0.2518
  197loPI   C4A 3146  18.770   9.571   8.434  0.0280  0.0975 -0.1802
  197loPI   C5A 3147  18.972   9.147   8.358  0.1754  0.0140  0.0301
  197loPI   C6A 3148  18.994   8.759   8.127 -0.0750  0.0386 -0.2727
  197loPI   C1B 3149  17.866   9.392   9.576 -0.1878 -0.2304 -0.0082
  197loPI   C2B 3150  17.954   9.398   9.209 -0.2206 -0.1262  0.1896
  197loPI   C3B 3151  17.951   9.432   8.651  0.0563 -0.1585 -0.0162
  197loPI   C4B 3152  18.136   9.516   8.312 -0.2824 -0.1593 -0.2257
  198loPI    C1 3153   6.377   6.440  10.010  0.0094 -0.1705 -0.1581
  198loPI    C2 3154   6.249   6.243  10.335 -0.1842  0.2967  0.0574
  198loPI    C3 3155   6.121   6.134   9.972 -0.0293 -0.1788  0.1388
  198loPI   PO4 3156   6.613   6.436  10.043  0.0634  0.0482  0.0490
  198loPI   GL1 3157   6.872   6.590   9.768  0.0826  0.2495  0.3112
  198loPI   GL2 3158   6.965   6.929   9.709 -0.2048 -0.1121  0.1186
  198loPI   C1A 3159   6.833   6.707   9.293  0.4261  0.1041 -0.0251
  198loPI   C2A 3160   6.812   6.634   8.879  0.1570  0.2240  0.0949
  198loPI   C3A 3161   6.434   6.826   8.679 -0.1293  0.0253  0.2324
  198loPI   C4A 3162   6.128   6.890   8.397  0.1705 -0.1807  0.0172
  198loPI   C5A 3163   5.971   6.774   8.046  0.2904  0.0937  0.0559
  198loPI   C6A 3164   5.566   6.562   8.006 -0.1115 -0.0932  0.1098
  198loPI   C1B 3165   7.231   7.090   9.259  0.1174  0.2681  0.1573
  198loPI   C2B 3166   7.372   7.132   8.836  0.0407 -0.0015  0.1630
  198loPI   C3B 3167   7.179   7.182   8.352 -0.1233 -0.2309  0.1236
  198loPI   C4B 3168   7.031   7.137   7.928  0.0120  0.3059  0.0130
  199loPI    C1 3169   1.072   7.296  10.415  0.0164  0.0621  0.1622
  199loPI    C2 3170   1.144   7.398  10.795 -0.0593 -0.1182  0.2260
  199loPI    C3 3171   1.122   7.012  10.692  0.3315 -0.0772 -0.0323
  199loPI   PO4 3172   1.337   7.406  10.123 -0.2424  0.3367 -0.1746
  199loPI   GL1 3173   1.273   7.197   9.735  0.1003  0.2803  0.6065
  199loPI   GL2 3174   1.638   7.324   9.617 -0.1833 -0.1408 -0.0771
  199loPI   C1A 3175   1.507   6.864   9.495 -0.2428 -0.0362 -0.0318
  199loPI   C2A 3176   1.490   6.775   9.146  0.1579  0.0878  0.0131
  199loPI   C3A 3177   1.383   6.756   8.721 -0.3729  0.0356  0.0360
  199loPI   C4A 3178   1.564   6.624   8.400  0.1612  0.2016 -0.3353
  199loPI   C5A 3179   1.721   6.719   8.013 -0.2253  0.0405  0.1372
  199loPI   C6A 3180   2.014   6.873   7.944  0.3536  0.0593 -0.0433
  199loPI   C1B 3181   1.476   7.297   9.231 -0.2259  0.1811 -0.2264
  199loPI   C2B 3182   1.610   7.377   8.861  0.1005 -0.0618  0.1436
  199loPI   C3B 3183   1.378   7.629   8.610 -0.2250 -0.1038 -0.0959
  199loPI   C4B 3184   1.376   7.718   8.251 -0.2052  0.3521 -0.0949
  200loPI    C1 3185   3.673  13.542   9.984  0.0311  0.2295 -0.1041
  200loPI    C2 3186   3.687  13.689  10.356 -0.2640  0.0793 -0.0300
  200loPI    C3 3187   3.443  13.853  10.085 -0.2946 -0.0192 -0.0624
  200loPI   PO4 3188   3.846  13.461   9.796 -0.0255  0.3689 -0.2641
  200loPI   GL1 3189   3.822  13.431   9.442 -0.0068  0.2739  0.2083
  200loPI   GL2 3190   3.620  13.509   9.321  0.0464  0.1725 -0.0080
  200loPI   C1A 3191   4.050  13.661   9.074  0.1254 -0.0558  0.0440
  200loPI   C2A 3192   4.068  13.894   8.654  0.2538  0.2867  0.0317
  200loPI   C3A 3193   4.225  13.900   8.210 -0.0991  0.1046  0.2795
  200loPI   C4A 3194   4.193  13.760   7.906 -0.1365  0.3088  0.1131
  200loPI   C5A 3195   4.214  13.532   7.477  0.0970 -0.2255 -0.0800
  200loPI   C6A 3196   4.421  13.492   7.002  0.3635 -0.0648  0.0168
  200loPI   C1B 3197   3.673  13.565   8.798  0.1659 -0.1532  0.0491
  200loPI   C2B 3198   3.813  13.629   8.352  0.0063 -0.0190  0.1957
  200loPI   C3B 3199   3.738  13.876   8.008 -0.0999 -0.0403 -0.3183
  200loPI   C4B 3200   3.815  13.831   7.600 -0.0100  0.0605 -0.1866
  201loPI    C1 3201  12.798   3.048  10.621 -0.1200 -0.0595  0.0001
  201loPI    C2 3202  13.174   3.055  10.759 -0.0865 -0.1554 -0.0849
  201loPI    C3 3203  12.869   2.996  11.011 -0.0309 -0.2546 -0.0405
  201loPI   PO4 3204  12.805   3.334  10.444  0.1695  0.1967 -0.3000
  201loPI   GL1 3205  12.760   3.421  10.075 -0.1431  0.2467  0.2121
  201loPI   GL2 3206  13.120   3.455  10.012 -0.0631  0.0078  0.0743
  201loPI   C1A 3207  12.642   3.294   9.588  0.0140 -0.0592  0.2591
  201loPI   C2A 3208  12.794   3.277   9.154  0.1830 -0.2227 -0.2879
  201loPI   C3A 3209  12.740   3.176   8.727  0.3742  0.2555  0.2271
  201loPI   C4A 3210  12.759   3.276   8.251  0.0112 -0.0590  0.1386
  201loPI   C5A 3211  13.040   3.089   7.939  0.0534 -0.0287 -0.3921
  201loPI   C6A 3212  13.352   3.164   7.726  0.0425 -0.0158  0.0643
  201loPI   C1B 3213  13.342   3.329   9.689 -0.3409 -0.1007 -0.1354
  201loPI   C2B 3214  13.298   3.139   9.316 -0.5267 -0.1722  0.2705
  201loPI   C3B 3215  13.697   3.249   9.129  0.3414  0.0119  0.1228
  201loPI   C4B 3216  14.063   3.184   8.863 -0.3891 -0.2242 -0.1584
  202loPI    C1 3217   0.700   4.482  10.232  0.1284  0.0992 -0.4533
  202loPI    C2 3218   0.789   4.755   9.953  0.1736  0.3896 -0.1610
  202loPI    C3 3219   0.676   4.872  10.319  0.2616  0.0147 -0.0089
  202loPI   PO4 3220   0.494   4.324   9.981 -0.1592  0.1168 -0.2200
  202loPI   GL1 3221   0.485   3.989   9.668 -0.0211  0.0418 -0.0386
  202loPI   GL2 3222   0.306   3.794   9.467 -0.0339 -0.0209  0.0300
  202loPI   C1A 3223   0.591   4.351   9.355 -0.3523 -0.2167  0.0111
  202loPI   C2A 3224   0.603   4.738   9.194  0.0530  0.0203  0.1148
  202loPI   C3A 3225   0.636   4.776   8.836  0.2826  0.1625  0.1989
  202loPI   C4A 3226   0.601   4.552   8.438  0.2670 -0.0347 -0.2448
  202loPI   C5A 3227   0.693   4.457   7.905  0.3982 -0.0670 -0.2883
  202loPI   C6A 3228   0.522   4.185   7.809 -0.1321  0.1477 -0.2124
  202loPI   C1B 3229   0.502   3.805   9.110  0.0759 -0.0748 -0.0276
  202loPI   C2B 3230   0.458   3.940   8.683  0.0042  0.1102  0.0582
  202loPI   C3B 3231   0.364   4.097   8.320 -0.0629 -0.2105  0.1184
  202loPI   C4B 3232   0.083   4.077   7.982 -0.2154  0.0720  0.0453
  203loPI    C1 3233  14.026  11.889   9.842 -0.0403 -0.0499  0.0519
  203loPI    C2 3234  14.088  11.515   9.714  0.1480 -0.1181  0.3353
  203loPI    C3 3235  13.818  11.586  10.001 -0.0949  0.0027  0.0813
  203loPI   PO4 3236  14.239  11.986   9.810  0.0056 -0.0808 -0.2687
  203loPI   GL1 3237  14.279  12.254   9.562 -0.3139  0.1502 -0.1499
  203loPI   GL2 3238  14.189  12.512   9.393  0.0558  0.2653 -0.0695
  203loPI   C1A 3239  14.501  12.200   9.122 -0.0442 -0.1142 -0.1684
  203loPI   C2A 3240  14.502  12.259   8.681 -0.3549 -0.0218 -0.0034
  203loPI   C3A 3241  14.550  12.458   8.220 -0.2722 -0.2404  0.1511
  203loPI   C4A 3242  14.456  12.590   7.672  0.2589  0.1389  0.3137
  203loPI   C5A 3243  14.766  12.487   7.469  0.0913  0.3512 -0.2637
  203loPI   C6A 3244  15.044  12.568   7.187  0.1562  0.1696  0.0934
  203loPI   C1B 3245  14.124  12.486   8.999 -0.1080  0.1996 -0.4201
  203loPI   C2B 3246  14.029  12.506   8.591  0.0263 -0.0390  0.0012
  203loPI   C3B 3247  13.691  12.727   8.405 -0.0831 -0.3310 -0.1699
  203loPI   C4B 3248  13.400  12.981   8.147  0.2798  0.0769  0.2022
  204loPI    C1 3249  10.109   7.300  10.706 -0.0212  0.1333  0.0421
  204loPI    C2 3250  10.385   7.013  10.738 -0.0150  0.1388  0.0368
  204loPI    C3 3251  10.191   7.141  11.064 -0.0704  0.0768  0.0283
  204loPI   PO4 3252   9.983   7.292  10.451  0.4571  0.1143  0.0227
  204loPI   GL1 3253   9.890   7.267  10.016  0.0194  0.1119  0.2026
  204loPI   GL2 3254  10.146   7.427   9.986  0.1596  0.2322 -0.1525
  204loPI   C1A 3255   9.933   7.153   9.497  0.2583  0.3669 -0.2097
  204loPI   C2A 3256   9.851   7.071   9.139  0.0550  0.1002 -0.1731
  204loPI   C3A 3257   9.811   7.062   8.743  0.0341  0.0146  0.0375
  204loPI   C4A 3258   9.935   6.886   8.376 -0.1831 -0.4783 -0.0522
  204loPI   C5A 3259   9.783   6.755   8.024 -0.3319 -0.0310 -0.3688
  204loPI   C6A 3260   9.831   6.462   7.784 -0.1055  0.0553 -0.0984
  204loPI   C1B 3261  10.165   7.581   9.735  0.2743 -0.1078 -0.3151
  204loPI   C2B 3262  10.121   7.852   9.487  0.0889 -0.0906  0.3227
  204loPI   C3B 3263  10.093   8.222   9.191 -0.0704  0.1944  0.1182
  204loPI   C4B 3264   9.864   8.551   9.154  0.2957 -0.3522 -0.0092
  205loPI    C1 3265  16.708  14.010  10.426  0.0467  0.0384  0.1151
  205loPI    C2 3266  16.352  13.976  10.604  0.0238 -0.1578  0.0337
  205loPI    C3 3267  16.445  13.739  10.296  0.1683 -0.0062 -0.0407
  205loPI   PO4 3268  16.788  14.241  10.288  0.0672 -0.1144 -0.1135
  205loPI   GL1 3269  16.907  14.313   9.817 -0.3685  0.0670  0.1018
  205loPI   GL2 3270  16.844  14.520   9.630  0.0196  0.1541  0.3836
  205loPI   C1A 3271  17.012  13.934   9.571  0.2426  0.0046  0.4461
  205loPI   C2A 3272  16.994  14.021   9.187 -0.0183  0.1570  0.0903
  205loPI   C3A 3273  17.063  14.102   8.813 -0.0657  0.1651 -0.3281
  205loPI   C4A 3274  17.216  14.258   8.412 -0.1795 -0.0603  0.0507
  205loPI   C5A 3275  17.439  14.263   8.041  0.0505 -0.0950 -0.1532
  205loPI   C6A 3276  17.386  14.623   7.873 -0.0962 -0.1326 -0.0464
  205loPI   C1B 3277  16.899  14.516   9.216 -0.2647 -0.0963 -0.0235
  205loPI   C2B 3278  17.040  14.616   8.790  0.0832 -0.0375  0.3236
  205loPI   C3B 3279  17.118  14.709   8.376 -0.0141  0.0979  0.2275
  205loPI   C4B 3280  16.927  14.474   8.016 -0.1775  0.3469  0.2294
  206loPI    C1 3281   4.626   3.307   9.767 -0.2236  0.1457  0.0632
  206loPI    C2 3282   4.851   3.393  10.086 -0.0375 -0.0693 -0.0074
  206loPI    C3 3283   4.509   3.591  10.023 -0.0287  0.0396  0.2735
  206loPI   PO4 3284   4.527   2.992   9.847  0.2629  0.0732  0.0818
  206loPI   GL1 3285   4.413   2.782   9.546 -0.0004  0.1479  0.0247
  206loPI   GL2 3286   4.337   2.548   9.391  0.0616 -0.2891 -0.0401
  206loPI   C1A 3287   4.632   2.856   9.094 -0.5088 -0.0313 -0.1588
  206loPI   C2A 3288   4.812   2.982   8.671 -0.1262 -0.1207  0.2874
  206loPI   C3A 3289   5.046   3.049   8.310  0.0972 -0.1205  0.2118
  206loPI   C4A 3290   5.039   2.888   7.811  0.0537 -0.1416 -0.1398
  206loPI   C5A 3291   5.138   2.607   7.507 -0.2977  0.3144  0.1293
  206loPI   C6A 3292   5.078   2.363   7.122  0.0361  0.1130  0.0390
  206loPI   C1B 3293   4.564   2.357   9.101 -0.2032 -0.0390 -0.0831
  206loPI   C2B 3294   4.860   2.495   8.661  0.1453  0.2835 -0.0949
  206loPI   C3B 3295   5.104   2.562   8.285 -0.0480  0.1809 -0.0112
  206loPI   C4B 3296   5.434   2.786   8.138  0.0059  0.0433  0.0231
  207loPI    C1 3297   5.326   6.779  10.292  0.0311 -0.0653  0.1143
  207loPI    C2 3298   5.672   6.909  10.446  0.0154  0.0467  0.0558
  207loPI    C3 3299   5.421   6.694  10.671  0.1009  0.0066  0.1132
  207loPI   PO4 3300   5.297   6.786  10.028  0.1741 -0.1312  0.0588
  207loPI   GL1 3301   5.363   6.787   9.611 -0.1602 -0.0361 -0.1893
  207loPI   GL2 3302   5.011   6.908   9.592 -0.2174 -0.0682 -0.0852
  207loPI   C1A 3303   5.541   6.663   9.154 -0.0397  0.0276  0.1420
  207loPI   C2A 3304   5.335   6.313   8.911  0.1241  0.0320 -0.2372
  207loPI   C3A 3305   5.300   6.219   8.421 -0.0906 -0.0303  0.1273
  207loPI   C4A 3306   5.087   6.420   8.159 -0.2045  0.0988  0.2549
  207loPI   C5A 3307   4.880   6.632   7.814 -0.0754  0.2622  0.0258
  207loPI   C6A 3308   4.899   6.829   7.382 -0.1505  0.1010 -0.0014
  207loPI   C1B 3309   4.553   6.678   9.538 -0.1730  0.0069 -0.1593
  207loPI   C2B 3310   4.332   6.708   9.069  0.0072  0.0008 -0.1016
  207loPI   C3B 3311   4.350   6.703   8.678  0.1948  0.1229  0.1366
  207loPI   C4B 3312   4.550   6.577   8.224  0.1909 -0.1034  0.0481
  208loPI    C1 3313   0.383   1.098  10.048  0.1596  0.0010 -0.0303
  208loPI    C2 3314   0.332   0.824  10.335 -0.2150 -0.0341 -0.1246
  208loPI    C3 3315   0.311   1.214  10.424 -0.2140 -0.0431 -0.0848
  208loPI   PO4 3316   0.548   1.070   9.898  0.0015  0.1324  0.0124
  208loPI   GL1 3317   0.537   0.867   9.486  0.0069  0.2363 -0.0533
  208loPI   GL2 3318   0.653   1.079   9.438 -0.1045  0.0942  0.0691
  208loPI   C1A 3319   0.292   0.823   9.143 -0.2689 -0.1712 -0.0331
  208loPI   C2A 3320   0.218   0.624   8.716  0.3591 -0.0683 -0.0702
  208loPI   C3A 3321   0.390   0.674   8.293  0.1033  0.0332 -0.1304
  208loPI   C4A 3322   0.310   0.467   7.927 -0.0888 -0.0792 -0.1521
  208loPI   C5A 3323  -0.047   0.229   7.740  0.1365  0.2848 -0.2555
  208loPI   C6A 3324  -0.463   0.414   7.556 -0.0375 -0.3028  0.3224
  208loPI   C1B 3325   0.674   1.117   8.990 -0.0237 -0.0725 -0.3685
  208loPI   C2B 3326   0.454   1.091   8.586 -0.2905  0.1734  0.0700
  208loPI   C3B 3327   0.506   1.201   8.185 -0.1585  0.1846  0.1674
  208loPI   C4B 3328   0.755   1.370   7.826 -0.3432  0.2469 -0.0020
  209loPI    C1 3329   1.030   5.327  10.654 -0.2150 -0.4661 -0.4125
  209loPI    C2 3330   0.798   5.064  10.847 -0.3802  0.1180  0.2254
  209loPI    C3 3331   0.635   5.326  10.593 -0.2440 -0.2342 -0.2405
  209loPI   PO4 3332   1.277   5.156  10.493  0.1760 -0.0414 -0.1226
  209loPI   GL1 3333   1.275   5.096  10.062  0.1427 -0.1535 -0.1136
  209loPI   GL2 3334   1.472   5.411  10.149  0.2949  0.2860 -0.0875
  209loPI   C1A 3335   1.046   5.147   9.689  0.1165 -0.2182  0.0815
  209loPI   C2A 3336   1.071   5.109   9.219  0.2232  0.1511  0.3537
  209loPI   C3A 3337   1.027   5.113   8.785  0.2234 -0.1257 -0.1846
  209loPI   C4A 3338   0.926   4.964   8.452  0.0075  0.3942  0.0446
  209loPI   C5A 3339   0.696   4.940   8.149  0.1171 -0.0952  0.0829
  209loPI   C6A 3340   0.801   4.903   7.739  0.1435  0.2580 -0.1120
  209loPI   C1B 3341   1.483   5.655   9.814  0.0105 -0.0785  0.3162
  209loPI   C2B 3342   1.321   5.524   9.349 -0.0371 -0.3760 -0.0305
  209loPI   C3B 3343   1.386   5.396   8.894  0.0533  0.2547 -0.4073
  209loPI   C4B 3344   1.272   5.400   8.447  0.0197 -0.0562  0.0714
  210loPI    C1 3345  13.563  10.277  10.187 -0.0380  0.3125 -0.3298
  210loPI    C2 3346  13.713  10.647  10.162 -0.0042  0.3189 -0.0584
  210loPI    C3 3347  13.957  10.331  10.140  0.0058  0.3208  0.0230
  210loPI   PO4 3348  13.329  10.399  10.056 -0.1913 -0.0486 -0.5318
  210loPI   GL1 3349  13.130  10.316   9.651  0.1114  0.0828  0.1665
  210loPI   GL2 3350  13.255  10.122   9.464  0.0638  0.0940  0.2243
  210loPI   C1A 3351  13.143  10.586   9.259  0.1369 -0.1841 -0.2849
  210loPI   C2A 3352  13.467  10.621   8.877  0.0566  0.1094  0.0886
  210loPI   C3A 3353  13.576  10.779   8.450 -0.2824 -0.0017 -0.1458
  210loPI   C4A 3354  13.635  10.751   8.034  0.0926 -0.1248  0.1345
  210loPI   C5A 3355  13.648  10.417   7.650 -0.0735  0.3560 -0.1313
  210loPI   C6A 3356  13.971  10.081   7.625 -0.1466  0.2382 -0.0049
  210loPI   C1B 3357  13.189  10.132   9.057 -0.0192 -0.0316  0.1776
  210loPI   C2B 3358  12.884   9.955   8.769 -0.0991 -0.1245 -0.2058
  210loPI   C3B 3359  12.752  10.055   8.357  0.5020  0.0312  0.1356
  210loPI   C4B 3360  12.699  10.136   7.850 -0.1382  0.0056 -0.0814
  211loPI    C1 3361   7.309   5.244  10.450  0.0620 -0.0659  0.0854
  211loPI    C2 3362   7.429   5.534  10.699 -0.0886  0.0497  0.0252
  211loPI    C3 3363   7.125   5.294  10.802 -0.0479 -0.0043  0.0201
  211loPI   PO4 3364   7.373   5.254  10.242  0.1796 -0.2945 -0.0951
  211loPI   GL1 3365   7.487   5.365   9.901 -0.1355 -0.2829 -0.1084
  211loPI   GL2 3366   7.727   5.592   9.804  0.0147 -0.0052  0.0105
  211loPI   C1A 3367   7.701   5.119   9.595 -0.3466  0.2550 -0.1935
  211loPI   C2A 3368   7.634   5.253   9.179 -0.1092  0.0557  0.1434
  211loPI   C3A 3369   7.690   5.300   8.748  0.0709 -0.3583  0.1115
  211loPI   C4A 3370   7.684   5.333   8.321  0.0864  0.1119 -0.2317
  211loPI   C5A 3371   7.411   5.313   7.930 -0.1078  0.4427 -0.1433
  211loPI   C6A 3372   7.401   5.738   7.690  0.1205 -0.0498  0.2517
  211loPI   C1B 3373   7.830   5.737   9.387  0.1151  0.0439 -0.0649
  211loPI   C2B 3374   7.835   5.801   8.993 -0.0458  0.0260  0.1269
  211loPI   C3B 3375   7.864   5.758   8.580 -0.0220  0.2953  0.2965
  211loPI   C4B 3376   8.187   5.611   8.342 -0.3469  0.2488  0.0466
  212loPI    C1 3377   4.465   6.720  10.400  0.0529 -0.2255 -0.0179
  212loPI    C2 3378   4.147   6.889  10.574  0.2466  0.1462 -0.0132
  212loPI    C3 3379   4.450   6.756  10.798  0.2097  0.0279 -0.0325
  212loPI   PO4 3380   4.402   6.547  10.263 -0.0555  0.1124 -0.0613
  212loPI   GL1 3381   4.217   6.539   9.929 -0.1237 -0.2926 -0.0001
  212loPI   GL2 3382   4.381   6.177   9.758 -0.4191 -0.3337  0.1152
  212loPI   C1A 3383   4.083   6.871   9.554  0.0605  0.2155  0.3921
  212loPI   C2A 3384   4.155   7.105   9.311  0.2075  0.0687  0.0387
  212loPI   C3A 3385   4.056   7.521   8.971 -0.0585  0.1818  0.0205
  212loPI   C4A 3386   3.967   7.612   8.565  0.0809  0.0150  0.0022
  212loPI   C5A 3387   3.947   7.586   8.092 -0.1538  0.0891  0.0162
  212loPI   C6A 3388   4.099   7.433   7.674 -0.2111 -0.1124 -0.3027
  212loPI   C1B 3389   4.191   6.045   9.335  0.0928 -0.4114 -0.1599
  212loPI   C2B 3390   4.142   6.137   8.861 -0.0002 -0.1587  0.1200
  212loPI   C3B 3391   4.262   6.224   8.392  0.0670  0.2305 -0.0614
  212loPI   C4B 3392   4.223   6.264   7.937  0.1237 -0.1035  0.0383
  213loPI    C1 3393   6.129  17.855  10.066  0.2339 -0.3850  0.0184
  213loPI    C2 3394   6.334  18.126  10.278 -0.1174 -0.0829 -0.0178
  213loPI    C3 3395   5.979  17.995  10.409 -0.1536 -0.1937 -0.2226
  213loPI   PO4 3396   6.194  17.914   9.795 -0.0770 -0.1744 -0.2384
  213loPI   GL1 3397   6.083  18.123   9.447  0.0084  0.2495  0.0360
  213loPI   GL2 3398   6.421  18.283   9.395  0.2748  0.1464  0.3041
  213loPI   C1A 3399   6.032  18.050   8.991 -0.0957  0.2402  0.0860
  213loPI   C2A 3400   6.079  18.057   8.536  0.3451  0.0298  0.3300
  213loPI   C3A 3401   6.102  17.995   8.075 -0.1311 -0.0050  0.0405
  213loPI   C4A 3402   6.346  18.179   7.706  0.0020 -0.1081  0.4039
  213loPI   C5A 3403   6.771  18.272   7.464  0.3320 -0.0549  0.2647
  213loPI   C6A 3404   7.132  18.589   7.457  0.1315  0.1810  0.1057
  213loPI   C1B 3405   6.478  18.289   8.985  0.1689  0.0549  0.0908
  213loPI   C2B 3406   6.429  18.432   8.609  0.1805 -0.2623  0.1102
  213loPI   C3B 3407   6.480  18.421   8.132 -0.0069  0.3622 -0.1259
  213loPI   C4B 3408   6.553  18.599   7.740  0.0469 -0.0438 -0.5255
  214loPI    C1 3409  10.838  18.644  10.113  0.0010  0.0146  0.0235
  214loPI    C2 3410  11.113  18.435  10.316  0.1135  0.0626 -0.0778
  214loPI    C3 3411  10.933  18.748  10.488  0.3050  0.1846 -0.0963
  214loPI   PO4 3412  10.804  18.346   9.928 -0.0731 -0.2354  0.0383
  214loPI   GL1 3413  10.681  17.874   9.875  0.0003  0.0400 -0.1686
  214loPI   GL2 3414  10.402  17.619   9.743  0.2541  0.4774 -0.2168
  214loPI   C1A 3415  10.663  17.905   9.366 -0.2153 -0.0023 -0.1517
  214loPI   C2A 3416  10.622  17.939   8.891  0.2877  0.1834 -0.2246
  214loPI   C3A 3417  10.496  17.890   8.494  0.0188 -0.1254 -0.1872
  214loPI   C4A 3418  10.332  17.862   8.173  0.1491  0.0507  0.0382
  214loPI   C5A 3419  10.590  17.779   7.739 -0.0035 -0.0576 -0.1346
  214loPI   C6A 3420  10.766  17.328   7.510 -0.0065 -0.2345 -0.0242
  214loPI   C1B 3421  10.268  17.625   9.350 -0.1893 -0.0099 -0.1979
  214loPI   C2B 3422  10.117  17.607   8.954 -0.1388  0.1359  0.0204
  214loPI   C3B 3423  10.245  17.423   8.495  0.1030  0.0231  0.1187
  214loPI   C4B 3424  10.312  17.421   7.947  0.0482  0.0179  0.1143
  215loPI    C1 3425  17.734  15.754  10.440  0.1595 -0.0957  0.1432
  215loPI    C2 3426  17.679  16.040  10.714  0.1974 -0.1225  0.1788
  215loPI    C3 3427  17.594  15.659  10.803  0.0073 -0.1034  0.0831
  215loPI   PO4 3428  17.959  15.669  10.358 -0.0357  0.0813 -0.1856
  215loPI   GL1 3429  17.890  15.460  10.026  0.1539  0.0715  0.2730
  215loPI   GL2 3430  17.875  15.079  10.176  0.2903  0.0335  0.0066
  215loPI   C1A 3431  18.107  15.606   9.605  0.1074 -0.1460  0.0868
  215loPI   C2A 3432  18.183  15.539   9.096 -0.5654  0.0362 -0.1416
  215loPI   C3A 3433  18.227  15.706   8.697 -0.3347  0.1178 -0.2877
  215loPI   C4A 3434  18.241  15.849   8.350 -0.3666  0.2425  0.2230
  215loPI   C5A 3435  18.127  15.854   8.012  0.0937 -0.1456 -0.3935
  215loPI   C6A 3436  17.973  15.410   7.842  0.3748  0.1141 -0.0711
  215loPI   C1B 3437  17.623  15.084   9.791 -0.0207  0.1626 -0.1359
  215loPI   C2B 3438  17.738  15.173   9.312 -0.1704 -0.0675 -0.0403
  215loPI   C3B 3439  17.885  15.283   8.847  0.0432 -0.1078  0.2784
  215loPI   C4B 3440  17.897  15.439   8.350  0.4565 -0.2678  0.0464
  216loPI    C1 3441  13.209   4.848   9.833  0.0135  0.3595  0.0920
  216loPI    C2 3442  13.570   4.766   9.681 -0.0193  0.2717  0.0611
  216loPI    C3 3443  13.507   4.732  10.074 -0.0751 -0.0091  0.0299
  216loPI   PO4 3444  12.969   4.622   9.758  0.5212  0.1423 -0.1430
  216loPI   GL1 3445  12.914   4.559   9.371  0.0064 -0.2067  0.2716
  216loPI   GL2 3446  12.704   4.876   9.279 -0.4156 -0.0584  0.1814
  216loPI   C1A 3447  12.981   4.651   8.922 -0.3531 -0.1089 -0.0368
  216loPI   C2A 3448  13.279   4.434   8.674  0.1960  0.2018  0.2023
  216loPI   C3A 3449  13.693   4.245   8.650 -0.1082  0.2097  0.4196
  216loPI   C4A 3450  14.063   4.131   8.845 -0.0517 -0.0271 -0.0222
  216loPI   C5A 3451  14.374   4.275   9.113  0.2249  0.0767  0.1417
  216loPI   C6A 3452  14.704   4.145   9.301  0.0337  0.0198  0.0394
  216loPI   C1B 3453  12.736   5.092   8.820 -0.1415 -0.0011  0.2378
  216loPI   C2B 3454  12.888   4.757   8.457 -0.0679  0.3229  0.0464
  216loPI   C3B 3455  12.848   4.772   7.898  0.0020  0.0403  0.2026
  216loPI   C4B 3456  12.557   4.927   7.720  0.0788 -0.1573  0.0172
  217loPI    C1 3457  17.310   8.875  10.532  0.0130 -0.0348 -0.0789
  217loPI    C2 3458  17.706   8.888  10.480  0.0286 -0.0506  0.0345
  217loPI    C3 3459  17.512   8.540  10.447  0.0297 -0.0497  0.0183
  217loPI   PO4 3460  17.237   9.108  10.341 -0.0084  0.1737 -0.1928
  217loPI   GL1 3461  17.598   9.365  10.088  0.0137  0.1266  0.0709
  217loPI   GL2 3462  17.677   9.102  10.016  0.0640 -0.0386 -0.0125
  217loPI   C1A 3463  17.350   9.300   9.708 -0.0284 -0.2950  0.1134
  217loPI   C2A 3464  17.074   9.491   9.392 -0.1927  0.1297  0.0923
  217loPI   C3A 3465  17.088   9.578   8.998 -0.0975  0.0943  0.4089
  217loPI   C4A 3466  17.388   9.676   8.624  0.0325 -0.0143  0.1407
  217loPI   C5A 3467  17.609   9.681   8.321  0.1263 -0.2122 -0.0194
  217loPI   C6A 3468  17.788   9.748   7.901  0.0433 -0.3427 -0.0038
  217loPI   C1B 3469  17.640   8.940   9.618 -0.0611 -0.4401 -0.0086
  217loPI   C2B 3470  17.854   8.906   9.238  0.0242  0.2230  0.2720
  217loPI   C3B 3471  18.033   8.959   8.900 -0.0450 -0.0034 -0.0525
  217loPI   C4B 3472  18.008   8.873   8.466 -0.3496 -0.0591 -0.0433
  218loPI    C1 3473  12.680   0.857  10.601 -0.0421  0.0027  0.3657
  218loPI    C2 3474  12.671   0.480  10.470 -0.1259  0.1346 -0.0218
  218loPI    C3 3475  12.873   0.571  10.803  0.1158 -0.2066 -0.0694
  218loPI   PO4 3476  12.714   0.983  10.315  0.0211  0.3051 -0.1165
  218loPI   GL1 3477  12.722   1.359  10.019  0.0516 -0.1079 -0.2896
  218loPI   GL2 3478  12.471   1.237   9.933  0.1987  0.2326 -0.1139
  218loPI   C1A 3479  12.876   1.367   9.642  0.1143  0.1010  0.1460
  218loPI   C2A 3480  12.870   1.326   9.170  0.1672  0.1883  0.0577
  218loPI   C3A 3481  12.782   1.158   8.799  0.0607 -0.0032 -0.0854
  218loPI   C4A 3482  12.965   1.099   8.286  0.1495  0.0362  0.1605
  218loPI   C5A 3483  13.178   1.019   7.963  0.5876  0.0132  0.0549
  218loPI   C6A 3484  13.346   1.106   7.612  0.0712  0.0203 -0.0380
  218loPI   C1B 3485  12.363   1.375   9.490 -0.0064  0.1095  0.0365
  218loPI   C2B 3486  12.461   1.512   8.943 -0.3521  0.1376  0.0219
  218loPI   C3B 3487  12.469   1.378   8.530 -0.1244  0.0475  0.2757
  218loPI   C4B 3488  12.483   1.393   8.150 -0.1609 -0.4756 -0.1586
  219loPI    C1 3489  12.409  16.470  10.021 -0.1509  0.3740 -0.4232
  219loPI    C2 3490  12.482  16.711  10.332  0.1246 -0.0465 -0.1521
  219loPI    C3 3491  12.121  16.545  10.289  0.0723  0.0478 -0.0809
  219loPI   PO4 3492  12.656  16.420   9.844  0.1225 -0.3320 -0.0167
  219loPI   GL1 3493  12.820  16.110   9.559 -0.2413 -0.0088  0.2437
  219loPI   GL2 3494  12.617  15.883   9.392  0.1049  0.3057 -0.1691
  219loPI   C1A 3495  13.075  15.976   9.185 -0.1704 -0.0826 -0.1730
  219loPI   C2A 3496  13.306  16.075   8.865 -0.2511 -0.1792  0.0029
  219loPI   C3A 3497  13.501  15.989   8.476  0.0027  0.2259  0.0743
  219loPI   C4A 3498  13.467  16.082   8.008 -0.0836  0.0765 -0.0554
  219loPI   C5A 3499  13.304  16.274   7.696  0.0407  0.1016  0.1733
  219loPI   C6A 3500  13.020  16.552   7.440 -0.0060  0.1346 -0.0610
  219loPI   C1B 3501  12.661  15.564   9.082 -0.0489 -0.1279  0.4416
  219loPI   C2B 3502  13.001  15.296   8.956 -0.1995 -0.4313  0.0337
  219loPI   C3B 3503  13.342  15.313   8.650 -0.1327  0.2442 -0.2103
  219loPI   C4B 3504  13.402  15.557   8.184 -0.0446 -0.1543 -0.0842
  220loPI    C1 3505   4.491  12.957  10.096  0.1532 -0.1363 -0.1718
  220loPI    C2 3506   4.267  12.682  10.281  0.1191 -0.0654 -0.1071
  220loPI    C3 3507   4.666  12.671  10.314  0.1104 -0.0176  0.0203
  220loPI   PO4 3508   4.278  12.981   9.827  0.1893  0.1030  0.0710
  220loPI   GL1 3509   4.101  12.858   9.468 -0.0000  0.2023 -0.3170
  220loPI   GL2 3510   3.878  12.669   9.395  0.0184  0.2575  0.0118
  220loPI   C1A 3511   4.247  13.216   9.174  0.0226 -0.1130 -0.3523
  220loPI   C2A 3512   4.381  13.432   8.818  0.4006 -0.1721  0.2333
  220loPI   C3A 3513   4.397  13.462   8.405  0.1180 -0.2066 -0.2616
  220loPI   C4A 3514   4.551  13.445   8.018  0.2313  0.0472 -0.0675
  220loPI   C5A 3515   4.894  13.399   7.755 -0.1555  0.1210 -0.0694
  220loPI   C6A 3516   5.088  13.090   7.542  0.2769 -0.0379 -0.2883
  220loPI   C1B 3517   3.845  12.591   9.030 -0.1233  0.1369  0.0259
  220loPI   C2B 3518   3.685  12.707   8.583  0.1232  0.2357  0.0076
  220loPI   C3B 3519   3.809  12.814   8.175  0.1119 -0.0691  0.2377
  220loPI   C4B 3520   3.619  12.848   7.804  0.0066 -0.1276  0.2493
  221loPI    C1 3521  18.066  17.028  10.266 -0.0976 -0.0852 -0.1002
  221loPI    C2 3522  17.846  16.937  10.588 -0.4667 -0.0689 -0.3417
  221loPI    C3 3523  18.078  16.659  10.419 -0.0770 -0.0114  0.0794
  221loPI   PO4 3524  17.989  17.187  10.119 -0.1631  0.2398  0.1793
  221loPI   GL1 3525  17.736  17.256   9.875 -0.2137  0.0456 -0.1007
  221loPI   GL2 3526  17.772  16.975   9.696  0.0535 -0.0478 -0.1729
  221loPI   C1A 3527  17.980  17.477   9.523 -0.0110 -0.2626 -0.3275
  221loPI   C2A 3528  18.062  17.591   9.220  0.1150  0.0250 -0.2501
  221loPI   C3A 3529  17.949  17.575   8.872 -0.2606  0.1149  0.1223
  221loPI   C4A 3530  17.722  17.262   8.643  0.2184 -0.0391  0.0966
  221loPI   C5A 3531  17.417  17.118   8.899 -0.1817  0.1077  0.0635
  221loPI   C6A 3532  17.326  17.108   9.344 -0.0539  0.0819  0.2240
  221loPI   C1B 3533  17.785  17.038   9.320  0.0738 -0.0268 -0.1403
  221loPI   C2B 3534  17.862  16.859   8.996  0.0925 -0.2578  0.0288
  221loPI   C3B 3535  17.866  16.812   8.536  0.1715 -0.2903 -0.1346
  221loPI   C4B 3536  17.842  16.697   8.157 -0.0709  0.0417 -0.0506
  222loPI    C1 3537   0.099  18.145   9.990 -0.3411  0.0982 -0.1248
  222loPI    C2 3538   0.001  18.532   9.972 -0.1446  0.1624  0.1263
  222loPI    C3 3539  -0.115  18.311  10.284  0.0318  0.1033  0.1513
  222loPI   PO4 3540   0.051  18.008   9.748  0.3100  0.0877 -0.0172
  222loPI   GL1 3541   0.334  17.828   9.380  0.3497  0.1998  0.3162
  222loPI   GL2 3542   0.170  18.058   9.255 -0.1461 -0.1918 -0.2090
  222loPI   C1A 3543   0.186  17.736   8.956  0.2455  0.0100  0.0868
  222loPI   C2A 3544   0.245  17.569   8.570  0.1002 -0.1664  0.2971
  222loPI   C3A 3545   0.279  17.617   8.081  0.0303  0.1742 -0.1043
  222loPI   C4A 3546   0.411  17.184   7.896  0.0780 -0.0668 -0.4229
  222loPI   C5A 3547   0.268  16.736   7.948 -0.3113  0.0467 -0.1890
  222loPI   C6A 3548   0.140  16.445   7.590 -0.3277 -0.1312  0.2218
  222loPI   C1B 3549  -0.104  18.128   9.126  0.2363 -0.0970  0.0642
  222loPI   C2B 3550  -0.154  18.067   8.714  0.0183 -0.0216  0.1176
  222loPI   C3B 3551  -0.186  18.072   8.279 -0.1072  0.3660 -0.1546
  222loPI   C4B 3552  -0.086  17.913   7.925 -0.0482 -0.3113  0.0628
  223loPI    C1 3553   9.886  12.353  10.150 -0.3440 -0.0271  0.0286
  223loPI    C2 3554   9.911  11.984   9.997  0.0356  0.0474 -0.0988
  223loPI    C3 3555   9.599  12.084  10.226 -0.1541 -0.3002 -0.1977
  223loPI   PO4 3556  10.030  12.463   9.986  0.0999 -0.1329  0.2518
  223loPI   GL1 3557  10.269  12.220   9.653 -0.0653  0.1005 -0.0402
  223loPI   GL2 3558  10.276  11.922   9.704 -0.3311 -0.3476  0.5125
  223loPI   C1A 3559  10.001  12.256   9.306  0.1125 -0.0059 -0.2603
  223loPI   C2A 3560   9.860  12.340   8.910 -0.0875  0.1596  0.2786
  223loPI   C3A 3561   9.870  12.308   8.389 -0.2213 -0.1336 -0.0444
  223loPI   C4A 3562   9.824  12.296   8.026 -0.4241  0.2543 -0.0317
  223loPI   C5A 3563   9.836  12.108   7.618 -0.2762 -0.1358  0.0136
  223loPI   C6A 3564  10.062  11.797   7.355 -0.1066  0.1020 -0.3643
  223loPI   C1B 3565  10.396  11.895   9.334  0.2338  0.1591 -0.2411
  223loPI   C2B 3566  10.312  12.001   8.907  0.0071  0.2649  0.4920
  223loPI   C3B 3567  10.309  11.971   8.404  0.2119  0.1822 -0.0262
  223loPI   C4B 3568  10.363  12.048   7.911 -0.1137  0.1079 -0.1013
  224loPI    C1 3569   4.510   9.621  10.264  0.0554 -0.0055 -0.0525
  224loPI    C2 3570   4.610   9.256  10.133  0.0011 -0.0951  0.1518
  224loPI    C3 3571   4.894   9.531  10.195  0.0328 -0.0711 -0.0935
  224loPI   PO4 3572   4.256   9.671  10.254 -0.0659 -0.0961 -0.0949
  224loPI   GL1 3573   4.165   9.663   9.859  0.0904 -0.3414  0.5169
  224loPI   GL2 3574   4.631   9.732   9.809 -0.0698 -0.2352  0.3354
  224loPI   C1A 3575   4.032   9.764   9.412  0.0748 -0.2245 -0.3890
  224loPI   C2A 3576   4.032   9.633   9.061  0.3255  0.1751 -0.3637
  224loPI   C3A 3577   4.016   9.219   8.934 -0.0465  0.2521  0.2189
  224loPI   C4A 3578   4.047   9.045   8.497 -0.1179 -0.2431  0.1863
  224loPI   C5A 3579   4.092   9.204   7.982  0.1011  0.0053 -0.1484
  224loPI   C6A 3580   4.129   9.399   7.595 -0.0578  0.0516  0.2164
  224loPI   C1B 3581   4.593   9.777   9.429  0.0808  0.1973  0.1071
  224loPI   C2B 3582   4.528   9.784   8.930  0.0863 -0.0941  0.2275
  224loPI   C3B 3583   4.076   9.750   8.579  0.1201  0.0754 -0.2122
  224loPI   C4B 3584   3.688   9.828   8.420  0.0905 -0.2758  0.1185
  225loPI    C1 3585   3.581  17.507  10.176  0.0046  0.0893 -0.0847
  225loPI    C2 3586   3.818  17.321   9.914 -0.0015 -0.0048 -0.0237
  225loPI    C3 3587   3.897  17.299  10.305 -0.0833  0.0030 -0.0066
  225loPI   PO4 3588   3.460  17.686   9.926 -0.2362  0.0600  0.1482
  225loPI   GL1 3589   3.672  17.776   9.603  0.1547  0.0835  0.3578
  225loPI   GL2 3590   3.590  18.082   9.508 -0.2568 -0.1976  0.0844
  225loPI   C1A 3591   3.717  17.674   9.150  0.1038  0.1313 -0.1089
  225loPI   C2A 3592   3.678  17.654   8.802  0.1059  0.1766 -0.0487
  225loPI   C3A 3593   3.835  17.385   8.544  0.0772 -0.0387 -0.2515
  225loPI   C4A 3594   3.900  17.387   8.091  0.2391  0.1085 -0.1002
  225loPI   C5A 3595   3.929  17.424   7.677  0.0822 -0.1640 -0.0269
  225loPI   C6A 3596   3.654  17.483   7.365  0.1351 -0.2365  0.0257
  225loPI   C1B 3597   3.810  18.136   9.096  0.0846 -0.2054  0.1233
  225loPI   C2B 3598   3.729  18.110   8.643 -0.2672  0.2114  0.1317
  225loPI   C3B 3599   3.745  17.952   8.210  0.4640 -0.2127  0.1465
  225loPI   C4B 3600   3.746  18.315   7.876  0.0952  0.1411 -0.2395
  226loPI    C1 3601  17.916  11.612  10.313 -0.1148  0.1723 -0.1771
  226loPI    C2 3602  17.923  11.749  10.688  0.0150  0.1217 -0.1607
  226loPI    C3 3603  17.575  11.647  10.520 -0.0358  0.0759 -0.0292
  226loPI   PO4 3604  17.983  11.844  10.107 -0.3189 -0.0754 -0.2565
  226loPI   GL1 3605  18.030  11.771   9.664 -0.0409  0.0528  0.0877
  226loPI   GL2 3606  17.894  11.459   9.580 -0.1104 -0.0431 -0.1638
  226loPI   C1A 3607  18.295  12.049   9.375 -0.0668 -0.0958 -0.0757
  226loPI   C2A 3608  18.399  12.204   8.995  0.0896 -0.1091 -0.3664
  226loPI   C3A 3609  18.469  12.218   8.653 -0.0152 -0.3492  0.1679
  226loPI   C4A 3610  18.559  12.099   8.221  0.0033  0.0280 -0.0248
  226loPI   C5A 3611  18.420  11.961   7.826  0.0816  0.2637 -0.1703
  226loPI   C6A 3612  18.258  11.911   7.499 -0.1501  0.1136  0.1669
  226loPI   C1B 3613  17.955  11.628   9.136 -0.0262  0.2988 -0.2021
  226loPI   C2B 3614  18.015  11.864   8.661  0.2219 -0.1370 -0.1637
  226loPI   C3B 3615  18.121  11.722   8.170  0.0686 -0.0020  0.1831
  226loPI   C4B 3616  17.911  11.427   7.893  0.0424 -0.2691  0.2712
  227loPI    C1 3617  13.839   1.501  10.317 -0.1876  0.0158  0.1765
  227loPI    C2 3618  13.970   1.236  10.587  0.1126  0.1466  0.1635
  227loPI    C3 3619  13.908   1.617  10.693 -0.0804  0.1275  0.1232
  227loPI   PO4 3620  13.622   1.379  10.185 -0.2992  0.0211  0.0152
  227loPI   GL1 3621  13.348   1.462   9.711  0.2717 -0.0815 -0.0367
  227loPI   GL2 3622  13.519   1.176   9.763  0.0640  0.1792  0.1507
  227loPI   C1A 3623  13.246   1.806   9.501 -0.0129  0.0246 -0.0841
  227loPI   C2A 3624  13.203   2.093   9.238 -0.0325 -0.3266  0.1356
  227loPI   C3A 3625  13.348   2.535   9.035 -0.1329 -0.2640  0.1085
  227loPI   C4A 3626  13.558   2.541   8.557  0.0741  0.1068  0.0806
  227loPI   C5A 3627  13.830   2.696   8.495  0.1018  0.0412 -0.0106
  227loPI   C6A 3628  14.175   2.960   8.402  0.1471 -0.3313 -0.2929
  227loPI   C1B 3629  13.668   1.101   9.436 -0.2221  0.3176  0.0661
  227loPI   C2B 3630  13.807   0.876   9.034 -0.2895 -0.3452 -0.2071
  227loPI   C3B 3631  13.699   0.886   8.619 -0.1574  0.0090  0.0584
  227loPI   C4B 3632  13.389   0.733   8.329  0.0794  0.0592 -0.2493
  228loPI    C1 3633   9.708  16.349  10.492  0.0939  0.0593  0.1138
  228loPI    C2 3634  10.023  16.595  10.498 -0.0370  0.2362 -0.1205
  228loPI    C3 3635   9.794  16.556  10.824  0.1528  0.2016  0.0104
  228loPI   PO4 3636   9.783  16.230  10.230  0.1041 -0.1791 -0.0350
  228loPI   GL1 3637   9.762  16.112   9.764  0.1313  0.1207  0.0950
  228loPI   GL2 3638   9.951  15.937   9.697 -0.1690  0.2081 -0.0322
  228loPI   C1A 3639   9.478  16.116   9.445  0.1823 -0.0448  0.0832
  228loPI   C2A 3640   9.234  16.027   9.146 -0.1760 -0.0834 -0.5054
  228loPI   C3A 3641   9.001  15.942   8.772  0.0002  0.2319  0.1503
  228loPI   C4A 3642   8.989  15.694   8.477 -0.2968 -0.4167 -0.0169
  228loPI   C5A 3643   9.040  15.582   8.140  0.0549  0.1342 -0.4116
  228loPI   C6A 3644   8.985  15.551   7.719  0.0755  0.1966 -0.1192
  228loPI   C1B 3645   9.825  15.767   9.329 -0.0170 -0.3661  0.0184
  228loPI   C2B 3646   9.765  15.879   8.876  0.2378  0.0335 -0.0986
  228loPI   C3B 3647   9.925  15.839   8.517 -0.2541  0.2132 -0.2483
  228loPI   C4B 3648  10.109  16.053   8.126  0.0229 -0.1711 -0.3180
  229loPI    C1 3649   0.254  13.266  10.358 -0.0467  0.1040  0.0441
  229loPI    C2 3650  -0.055  13.294  10.611 -0.0593  0.2862  0.0105
  229loPI    C3 3651   0.227  13.577  10.608  0.1659  0.0669  0.1148
  229loPI   PO4 3652   0.209  13.215  10.049 -0.2239 -0.1787 -0.0228
  229loPI   GL1 3653   0.406  13.411   9.645  0.0569  0.2068  0.2178
  229loPI   GL2 3654   0.170  13.623   9.712  0.0640  0.0902  0.1107
  229loPI   C1A 3655   0.323  13.423   9.234  0.3933 -0.0605 -0.0140
  229loPI   C2A 3656   0.460  13.543   8.784  0.0926 -0.0335 -0.0356
  229loPI   C3A 3657   0.687  13.678   8.325  0.2849  0.0369 -0.0598
  229loPI   C4A 3658   0.912  13.588   8.061  0.1267  0.1501 -0.1895
  229loPI   C5A 3659   1.145  13.704   7.661  0.3710  0.1665 -0.0583
  229loPI   C6A 3660   1.269  13.984   7.449  0.0155  0.1056 -0.0835
  229loPI   C1B 3661   0.004  13.923   9.429 -0.0917 -0.1881  0.2042
  229loPI   C2B 3662  -0.213  14.081   9.160  0.1969  0.0652 -0.1193
  229loPI   C3B 3663  -0.132  14.050   8.692 -0.0268 -0.0051  0.2036
  229loPI   C4B 3664  -0.148  14.035   8.250  0.1192 -0.0524  0.0587
  230loPI    C1 3665  14.483   4.603  10.107  0.1559  0.0883 -0.0082
  230loPI    C2 3666  14.673   4.849  10.359 -0.1257  0.4100 -0.1015
  230loPI    C3 3667  14.421   4.573  10.501  0.0621  0.2848 -0.0067
  230loPI   PO4 3668  14.315   4.835   9.928  0.2090  0.2434  0.3083
  230loPI   GL1 3669  14.366   5.217   9.549  0.2012  0.4677  0.4021
  230loPI   GL2 3670  14.123   5.412   9.539  0.3572 -0.1726 -0.0486
  230loPI   C1A 3671  14.555   4.845   9.196 -0.0102 -0.3974 -0.2193
  230loPI   C2A 3672  14.613   4.696   8.841  0.1875  0.1528 -0.3019
  230loPI   C3A 3673  14.850   4.506   8.467 -0.0168 -0.0856 -0.0705
  230loPI   C4A 3674  14.999   4.456   7.986  0.0688 -0.0173  0.0747
  230loPI   C5A 3675  15.221   4.262   7.638  0.2200 -0.1526  0.1305
  230loPI   C6A 3676  15.555   4.164   7.393 -0.0428 -0.1342 -0.1286
  230loPI   C1B 3677  14.130   5.140   9.111 -0.2366  0.3326  0.1502
  230loPI   C2B 3678  14.024   5.155   8.709 -0.3218 -0.0601 -0.3876
  230loPI   C3B 3679  13.760   5.216   8.502  0.1318 -0.1351 -0.2408
  230loPI   C4B 3680  13.482   5.490   8.260  0.0866 -0.0981 -0.0161
  231loPI    C1 3681  18.095   2.928  10.112 -0.0500 -0.0181 -0.0058
  231loPI    C2 3682  17.735   2.945   9.939 -0.0496  0.4749  0.0275
  231loPI    C3 3683  17.766   2.965  10.337 -0.0123 -0.0800  0.0599
  231loPI   PO4 3684  18.231   2.709   9.939  0.0461 -0.1147 -0.1786
  231loPI   GL1 3685  18.343   2.826   9.638  0.0903  0.2037  0.2385
  231loPI   GL2 3686  18.694   2.827   9.564 -0.0659  0.0253  0.0870
  231loPI   C1A 3687  18.197   2.998   9.285  0.0427  0.1667  0.0046
  231loPI   C2A 3688  18.143   2.876   8.885  0.0098 -0.2162  0.1889
  231loPI   C3A 3689  17.821   2.596   8.603 -0.0718  0.0756  0.0478
  231loPI   C4A 3690  17.730   2.504   8.188  0.2254 -0.3502 -0.0663
  231loPI   C5A 3691  17.941   2.770   7.798  0.4185  0.0147  0.2047
  231loPI   C6A 3692  18.330   2.807   7.526  0.0822 -0.1162 -0.2353
  231loPI   C1B 3693  18.622   2.711   9.125 -0.0346 -0.0411 -0.1872
  231loPI   C2B 3694  18.591   2.695   8.605 -0.0615  0.0199  0.0916
  231loPI   C3B 3695  18.171   2.822   8.379 -0.1699  0.2829  0.1961
  231loPI   C4B 3696  17.961   3.192   8.083 -0.2258  0.0169  0.1685
  232loPI    C1 3697  14.764  13.085  10.274  0.2068  0.3297  0.2700
  232loPI    C2 3698  14.651  13.445  10.407 -0.3726  0.2429  0.0404
  232loPI    C3 3699  14.581  13.119  10.628  0.1196  0.2595  0.2322
  232loPI   PO4 3700  14.725  13.112   9.946  0.1284  0.3359  0.2683
  232loPI   GL1 3701  14.695  13.302   9.520 -0.1914 -0.3782 -0.0246
  232loPI   GL2 3702  14.436  13.039   9.450  0.0846  0.3640 -0.4947
  232loPI   C1A 3703  14.559  13.336   9.034  0.0103 -0.2782 -0.2813
  232loPI   C2A 3704  14.511  13.396   8.658  0.0566 -0.1170  0.1143
  232loPI   C3A 3705  14.699  13.628   8.284 -0.1306  0.1090  0.0281
  232loPI   C4A 3706  14.539  14.025   7.844 -0.3012  0.1783 -0.0034
  232loPI   C5A 3707  14.196  14.033   7.530  0.0180 -0.2440 -0.0811
  232loPI   C6A 3708  13.989  14.409   7.316  0.1551  0.0515  0.0518
  232loPI   C1B 3709  14.466  12.858   9.077  0.0075 -0.1810 -0.2034
  232loPI   C2B 3710  14.465  12.772   8.667 -0.1536  0.1211  0.2203
  232loPI   C3B 3711  14.604  12.980   8.277  0.0717 -0.0833  0.1241
  232loPI   C4B 3712  14.620  13.258   7.942 -0.0891 -0.0881 -0.1804
  233loPI    C1 3713  16.714   3.732   9.969 -0.0331 -0.1400 -0.1680
  233loPI    C2 3714  16.591   3.397  10.149 -0.1220 -0.0153  0.0064
  233loPI    C3 3715  16.917   3.587  10.283 -0.2835  0.1682  0.1441
  233loPI   PO4 3716  16.486   3.911  10.021 -0.0735  0.1421 -0.0263
  233loPI   GL1 3717  16.146   3.890   9.676 -0.1135  0.1188  0.1553
  233loPI   GL2 3718  15.941   3.739   9.719  0.2633  0.0322 -0.3557
  233loPI   C1A 3719  15.695   4.129   9.429 -0.0536  0.2737 -0.1275
  233loPI   C2A 3720  15.498   4.230   9.138 -0.1826 -0.3626 -0.3052
  233loPI   C3A 3721  15.389   4.529   8.738 -0.0291 -0.3979  0.3084
  233loPI   C4A 3722  15.339   4.649   8.267 -0.2500 -0.0502  0.1815
  233loPI   C5A 3723  15.421   4.695   7.862 -0.5440 -0.0070 -0.0067
  233loPI   C6A 3724  15.795   4.619   7.538  0.1635  0.0041 -0.0979
  233loPI   C1B 3725  15.838   3.621   9.239 -0.1080 -0.1737 -0.0948
  233loPI   C2B 3726  15.804   3.511   8.786  0.3506  0.1434  0.3365
  233loPI   C3B 3727  15.760   3.340   8.367  0.1340 -0.2096  0.2754
  233loPI   C4B 3728  15.588   3.354   7.972  0.2178  0.2093 -0.0566
  234loPI    C1 3729  17.341   1.729  10.037 -0.0094 -0.2353 -0.2019
  234loPI    C2 3730  17.046   1.929  10.218  0.2080  0.0381 -0.1418
  234loPI    C3 3731  16.993   1.547  10.111 -0.0736  0.0039  0.1058
  234loPI   PO4 3732  17.427   1.862   9.866 -0.0729  0.1001 -0.0368
  234loPI   GL1 3733  17.463   2.150   9.488 -0.0841 -0.1543 -0.2914
  234loPI   GL2 3734  17.541   1.885   9.367  0.1246 -0.3318 -0.0845
  234loPI   C1A 3735  17.681   2.371   9.134 -0.0926 -0.0484  0.3419
  234loPI   C2A 3736  17.917   2.078   8.861 -0.1187 -0.3460  0.1038
  234loPI   C3A 3737  18.008   2.158   8.463  0.2340  0.1922 -0.0057
  234loPI   C4A 3738  17.920   2.068   8.073 -0.0370  0.2393 -0.0467
  234loPI   C5A 3739  17.701   2.236   7.744  0.0150  0.0955 -0.2494
  234loPI   C6A 3740  17.385   2.551   7.641 -0.1260  0.0769 -0.0464
  234loPI   C1B 3741  17.763   1.614   9.125 -0.1640  0.3467  0.0157
  234loPI   C2B 3742  17.802   1.578   8.667 -0.0315 -0.1599 -0.1577
  234loPI   C3B 3743  17.867   1.564   8.274  0.3675 -0.1330 -0.0834
  234loPI   C4B 3744  18.087   1.475   7.941 -0.1579 -0.0027 -0.1066
  235loPI    C1 3745   3.518  11.088  10.248 -0.0234  0.0732 -0.2621
  235loPI    C2 3746   3.697  11.052  10.604 -0.1765  0.0339 -0.1885
  235loPI    C3 3747   3.722  10.756  10.337 -0.2315 -0.0217 -0.1326
  235loPI   PO4 3748   3.421  11.282  10.232  0.0576 -0.0768  0.0830
  235loPI   GL1 3749   3.111  11.365   9.986 -0.0695 -0.0087  0.1080
  235loPI   GL2 3750   3.030  11.549   9.745  0.4856 -0.0899  0.0869
  235loPI   C1A 3751   3.202  11.131   9.569  0.2199 -0.3426 -0.0047
  235loPI   C2A 3752   3.189  11.145   9.139  0.0633 -0.1934 -0.0463
  235loPI   C3A 3753   3.210  11.223   8.622  0.0735 -0.1490  0.1948
  235loPI   C4A 3754   3.409  11.023   8.270  0.2882  0.2540  0.1164
  235loPI   C5A 3755   3.405  10.559   8.177  0.0189 -0.0990 -0.0183
  235loPI   C6A 3756   3.545  10.307   7.817  0.2267  0.0668  0.1011
  235loPI   C1B 3757   2.958  11.541   9.364 -0.1789  0.3236  0.3667
  235loPI   C2B 3758   2.820  11.450   9.057  0.0854  0.0059 -0.1713
  235loPI   C3B 3759   2.627  11.399   8.585 -0.0575 -0.3121  0.1342
  235loPI   C4B 3760   2.575  11.249   8.207 -0.2270  0.1316 -0.0929
  236loPI    C1 3761   2.775   5.203  10.564  0.0016  0.0817 -0.0458
  236loPI    C2 3762   2.408   5.360  10.585 -0.1078 -0.1505 -0.1933
  236loPI    C3 3763   2.530   5.100  10.863 -0.0382 -0.0392 -0.1194
  236loPI   PO4 3764   2.834   5.294  10.321 -0.2212  0.3191 -0.1345
  236loPI   GL1 3765   2.812   5.077  10.051 -0.2509 -0.0955 -0.1246
  236loPI   GL2 3766   2.641   4.765  10.032  0.0680  0.3339 -0.2614
  236loPI   C1A 3767   2.661   5.154   9.607  0.1279 -0.3964 -0.1316
  236loPI   C2A 3768   2.741   4.902   9.284 -0.1678  0.0383  0.0625
  236loPI   C3A 3769   2.816   4.836   8.936 -0.0489 -0.1918 -0.2027
  236loPI   C4A 3770   2.836   4.892   8.472 -0.1617 -0.0555  0.0001
  236loPI   C5A 3771   3.094   4.901   8.035  0.2446  0.0373 -0.0653
  236loPI   C6A 3772   3.016   4.946   7.608 -0.1568 -0.0469  0.0744
  236loPI   C1B 3773   2.462   4.736   9.660 -0.0858 -0.2498  0.0329
  236loPI   C2B 3774   2.422   4.525   9.347  0.1581  0.0636  0.0061
  236loPI   C3B 3775   2.379   4.135   9.266  0.1188  0.2370 -0.2117
  236loPI   C4B 3776   2.524   3.858   9.078  0.1116  0.0753  0.0155
  237loPI    C1 3777   6.207  17.130  10.413 -0.1988  0.0385  0.2085
  237loPI    C2 3778   6.417  17.250  10.732  0.1392  0.0118  0.0005
  237loPI    C3 3779   6.194  17.513  10.529 -0.0020  0.0486  0.1997
  237loPI   PO4 3780   6.327  16.999  10.253  0.1008 -0.1670  0.1654
  237loPI   GL1 3781   6.384  16.959   9.847  0.1488 -0.3002  0.0962
  237loPI   GL2 3782   6.661  17.027   9.845 -0.1356  0.0413 -0.0208
  237loPI   C1A 3783   6.305  16.827   9.352 -0.0125 -0.0880  0.0013
  237loPI   C2A 3784   6.154  16.982   8.937 -0.1781 -0.0939  0.0707
  237loPI   C3A 3785   6.062  17.023   8.496 -0.1170 -0.0665  0.0355
  237loPI   C4A 3786   5.917  17.116   8.119 -0.2981  0.2205  0.1668
  237loPI   C5A 3787   5.673  17.119   7.752 -0.1411  0.2397 -0.2161
  237loPI   C6A 3788   5.670  16.991   7.371  0.3111 -0.0487  0.1027
  237loPI   C1B 3789   6.852  16.992   9.540 -0.1339 -0.3176 -0.1384
  237loPI   C2B 3790   6.983  17.173   9.184 -0.0026  0.0545 -0.3049
  237loPI   C3B 3791   7.287  17.383   8.899 -0.1878  0.0458  0.0436
  237loPI   C4B 3792   7.356  17.498   8.438  0.0086  0.1445  0.2080
  238loPI    C1 3793   1.647   0.727  10.324  0.0767 -0.0061 -0.0401
  238loPI    C2 3794   1.781   1.099  10.270  0.1865 -0.0416 -0.0138
  238loPI    C3 3795   1.518   1.023  10.561  0.0343  0.0455 -0.1271
  238loPI   PO4 3796   1.659   0.638  10.069  0.1013  0.2215 -0.0720
  238loPI   GL1 3797   1.449   0.525   9.787  0.0425 -0.2314  0.2003
  238loPI   GL2 3798   1.281   0.258   9.657  0.0479  0.1129 -0.1454
  238loPI   C1A 3799   1.359   0.659   9.389 -0.0351  0.1461  0.1688
  238loPI   C2A 3800   1.287   0.590   8.928  0.1789  0.1747  0.0180
  238loPI   C3A 3801   1.310   0.672   8.420 -0.3858  0.0100  0.0146
  238loPI   C4A 3802   1.338   0.915   8.039 -0.2425 -0.6268  0.0706
  238loPI   C5A 3803   1.206   1.182   7.675 -0.1593  0.3519  0.2119
  238loPI   C6A 3804   0.922   1.430   7.384  0.2596 -0.0077  0.1362
  238loPI   C1B 3805   1.113   0.190   9.264 -0.1946  0.3525  0.0704
  238loPI   C2B 3806   0.976   0.224   8.794 -0.0979 -0.0642 -0.0326
  238loPI   C3B 3807   0.991   0.308   8.416  0.1102  0.0330 -0.1214
  238loPI   C4B 3808   0.828   0.222   8.092  0.1283  0.1775 -0.2136
  239loPI    C1 3809   0.792  17.324  10.287 -0.0537  0.0307  0.0468
  239loPI    C2 3810   0.437  17.145  10.327  0.1120 -0.2767  0.1769
  239loPI    C3 3811   0.593  17.349  10.633 -0.0216 -0.0062  0.0679
  239loPI   PO4 3812   0.696  17.503  10.014 -0.0466  0.0809  0.3450
  239loPI   GL1 3813   0.906  17.552   9.611 -0.1924 -0.1044  0.0006
  239loPI   GL2 3814   0.820  17.851   9.491 -0.1446 -0.3837 -0.0347
  239loPI   C1A 3815   0.866  17.205   9.414 -0.0083  0.3219 -0.3114
  239loPI   C2A 3816   0.561  16.943   9.275  0.1157 -0.1372  0.0719
  239loPI   C3A 3817   0.622  16.950   8.878 -0.0709  0.0684 -0.0730
  239loPI   C4A 3818   0.474  17.127   8.450  0.3586 -0.0387 -0.0826
  239loPI   C5A 3819   0.659  17.455   8.307  0.0069  0.2343 -0.0535
  239loPI   C6A 3820   0.706  17.869   8.103  0.1379  0.3660 -0.0167
  239loPI   C1B 3821   0.728  17.990   9.156  0.0242  0.0391  0.0010
  239loPI   C2B 3822   0.482  18.130   8.829 -0.1407 -0.1363 -0.2209
  239loPI   C3B 3823   0.389  18.034   8.440 -0.3224  0.0655 -0.1745
  239loPI   C4B 3824   0.318  18.237   8.062  0.2271  0.2511 -0.0607
  240loPI    C1 3825   4.669   5.796  10.330  0.2627 -0.2134  0.0667
  240loPI    C2 3826   4.520   6.121  10.510 -0.0206 -0.3168  0.0248
  240loPI    C3 3827   4.715   6.156  10.162  0.0106 -0.1846  0.0550
  240loPI   PO4 3828   4.348   5.669  10.302 -0.3094  0.0621  0.0470
  240loPI   GL1 3829   4.202   5.679   9.780  0.3468  0.0025 -0.1766
  240loPI   GL2 3830   4.259   5.380   9.908 -0.0873 -0.1527  0.0852
  240loPI   C1A 3831   4.030   5.582   9.348  0.0300  0.0865 -0.1384
  240loPI   C2A 3832   3.956   5.674   8.870  0.0014  0.5878  0.0309
  240loPI   C3A 3833   3.915   5.714   8.410 -0.3770  0.2026  0.1665
  240loPI   C4A 3834   4.024   5.775   8.016  0.1154  0.1746 -0.2248
  240loPI   C5A 3835   3.996   5.606   7.638  0.3808  0.2827  0.0599
  240loPI   C6A 3836   4.361   5.586   7.303  0.1811 -0.3394 -0.0136
  240loPI   C1B 3837   4.369   5.228   9.425 -0.0667  0.1708 -0.0904
  240loPI   C2B 3838   4.303   5.167   8.979 -0.2027  0.1962  0.1409
  240loPI   C3B 3839   4.173   5.299   8.544  0.3406 -0.1184 -0.0326
  240loPI   C4B 3840   3.982   5.315   8.009 -0.0648  0.2564  0.2478
  241loPI    C1 3841  12.655   2.000  10.517  0.1073 -0.0310 -0.1691
  241loPI    C2 3842  12.354   1.815  10.705 -0.0142  0.0230 -0.3085
  241loPI    C3 3843  12.353   2.213  10.671  0.2260  0.0493 -0.0457
  241loPI   PO4 3844  12.669   1.789  10.233  0.1027 -0.3283 -0.2719
  241loPI   GL1 3845  12.527   1.869   9.837  0.1858  0.0301  0.0924
  241loPI   GL2 3846  12.822   1.865   9.719 -0.0155  0.1377  0.1827
  241loPI   C1A 3847  12.211   2.003   9.549 -0.0530 -0.1886 -0.1386
  241loPI   C2A 3848  12.200   2.015   9.131  0.0199 -0.1432  0.0871
  241loPI   C3A 3849  12.315   2.142   8.731 -0.4100  0.0492 -0.2528
  241loPI   C4A 3850  12.512   2.261   8.321 -0.0351  0.1926 -0.4576
  241loPI   C5A 3851  12.936   2.351   8.118 -0.3092  0.2311  0.2021
  241loPI   C6A 3852  13.200   2.242   7.809  0.0528  0.3256 -0.3693
  241loPI   C1B 3853  12.629   1.815   9.297  0.0317 -0.2192  0.2141
  241loPI   C2B 3854  12.800   1.996   8.880 -0.0627 -0.1185  0.1296
  241loPI   C3B 3855  12.742   1.867   8.433 -0.2928  0.0572  0.0986
  241loPI   C4B 3856  12.855   1.793   8.021 -0.1490 -0.0182 -0.0165
  242loPI    C1 3857  13.924   7.657  10.032  0.0919 -0.1421 -0.0073
  242loPI    C2 3858  13.897   7.306   9.843  0.3681 -0.1247 -0.0822
  242loPI    C3 3859  13.962   7.316  10.238 -0.0637 -0.1595 -0.0063
  242loPI   PO4 3860  13.735   7.765   9.910  0.1481  0.2604 -0.0312
  242loPI   GL1 3861  13.685   7.737   9.429 -0.0661 -0.0994 -0.0267
  242loPI   GL2 3862  14.000   7.849   9.226 -0.2534  0.2191 -0.0496
  242loPI   C1A 3863  13.609   7.649   8.966 -0.0434 -0.0903 -0.1335
  242loPI   C2A 3864  13.576   7.532   8.599  0.1336 -0.1648  0.2103
  242loPI   C3A 3865  13.415   7.372   8.315 -0.0760 -0.0820  0.0763
  242loPI   C4A 3866  13.541   7.226   7.897  0.0387 -0.3294 -0.3043
  242loPI   C5A 3867  13.601   7.300   7.441  0.0069  0.1703 -0.2180
  242loPI   C6A 3868  13.380   7.301   7.027  0.0044  0.0918  0.0795
  242loPI   C1B 3869  13.781   8.179   9.008 -0.0653 -0.1386 -0.1498
  242loPI   C2B 3870  13.477   8.338   8.745  0.4003  0.1204  0.2644
  242loPI   C3B 3871  13.461   8.146   8.298 -0.3564 -0.1234  0.1785
  242loPI   C4B 3872  13.557   7.821   8.154  0.1769  0.1964  0.1150
  243loPI    C1 3873   5.091   7.775  10.326  0.1780  0.2018 -0.0791
  243loPI    C2 3874   5.256   7.716  10.685  0.0020  0.0987 -0.0142
  243loPI    C3 3875   4.952   7.972  10.644  0.1060  0.2079 -0.1142
  243loPI   PO4 3876   5.153   7.468  10.165  0.1965  0.1621 -0.0674
  243loPI   GL1 3877   5.427   7.538   9.768 -0.1983  0.0061  0.0835
  243loPI   GL2 3878   5.370   7.301   9.645  0.0339  0.3178 -0.2137
  243loPI   C1A 3879   5.529   7.607   9.288 -0.0418  0.1056 -0.0723
  243loPI   C2A 3880   5.466   7.607   8.886  0.1010  0.2355  0.3232
  243loPI   C3A 3881   5.338   7.765   8.517  0.2206  0.2184 -0.1956
  243loPI   C4A 3882   5.409   8.031   8.180  0.0155  0.4796  0.2461
  243loPI   C5A 3883   5.555   8.257   7.734 -0.1896  0.1758  0.0126
  243loPI   C6A 3884   5.851   8.533   7.472  0.0669  0.1671  0.1395
  243loPI   C1B 3885   5.308   7.148   9.206 -0.0664  0.2035  0.2332
  243loPI   C2B 3886   5.268   7.099   8.786 -0.0339 -0.1332 -0.6798
  243loPI   C3B 3887   5.148   7.123   8.431  0.3396  0.1244  0.2202
  243loPI   C4B 3888   5.208   6.901   8.057 -0.0367  0.0612 -0.0426
  244loPI    C1 3889   2.855  10.709  10.369  0.0764 -0.1776  0.1751
  244loPI    C2 3890   2.740  11.091  10.388 -0.0489 -0.1995 -0.0992
  244loPI    C3 3891   3.108  10.988  10.505 -0.0417 -0.0087  0.0523
  244loPI   PO4 3892   2.845  10.607  10.165  0.2492 -0.1019 -0.2162
  244loPI   GL1 3893   2.728  10.694   9.776  0.0550 -0.4697  0.0089
  244loPI   GL2 3894   2.733  11.033   9.849 -0.1893 -0.0987 -0.1962
  244loPI   C1A 3895   2.983  10.663   9.521  0.3578  0.1793  0.0066
  244loPI   C2A 3896   2.775  10.664   9.181  0.3748  0.1290 -0.0764
  244loPI   C3A 3897   2.704  10.951   8.835  0.3553  0.0716  0.1114
  244loPI   C4A 3898   2.976  10.743   8.494  0.3135  0.0937  0.1493
  244loPI   C5A 3899   2.926  11.033   8.001 -0.2190  0.0808  0.1037
  244loPI   C6A 3900   3.003  11.324   7.728  0.2692  0.0630 -0.2906
  244loPI   C1B 3901   2.691  11.105   9.385  0.1321  0.0832  0.0982
  244loPI   C2B 3902   2.322  11.120   9.104 -0.1448  0.1933 -0.0747
  244loPI   C3B 3903   2.215  11.078   8.635  0.0071  0.2350  0.2217
  244loPI   C4B 3904   2.055  11.159   8.234 -0.0883 -0.0189 -0.0970
  245loPI    C1 3905  12.044  14.102  10.309  0.1773 -0.0838 -0.1865
  245loPI    C2 3906  12.191  13.730  10.321  0.0923 -0.1151 -0.0995
  245loPI    C3 3907  12.103  13.921  10.661 -0.0405 -0.0859 -0.1497
  245loPI   PO4 3908  11.937  14.098  10.060 -0.1063  0.0986 -0.0444
  245loPI   GL1 3909  11.978  13.805   9.649  0.1112  0.0469 -0.0893
  245loPI   GL2 3910  12.209  13.578   9.513  0.0779  0.2713 -0.0092
  245loPI   C1A 3911  12.068  14.131   9.357 -0.0582  0.1428  0.1958
  245loPI   C2A 3912  12.236  14.082   8.942  0.3071 -0.1335  0.1327
  245loPI   C3A 3913  12.110  14.055   8.540 -0.2134  0.3593 -0.2113
  245loPI   C4A 3914  12.319  13.972   8.113  0.0859  0.1367  0.3499
  245loPI   C5A 3915  12.166  14.102   7.709 -0.3446 -0.0457 -0.0968
  245loPI   C6A 3916  11.899  14.436   7.699 -0.1379 -0.1947 -0.0488
  245loPI   C1B 3917  12.208  13.597   9.087 -0.1053  0.2365 -0.2790
  245loPI   C2B 3918  12.230  13.588   8.634  0.0709 -0.1340  0.2490
  245loPI   C3B 3919  12.102  13.574   8.295  0.1060  0.1683 -0.1952
  245loPI   C4B 3920  11.840  13.688   7.953  0.0425  0.0714  0.0948
  246loPI    C1 3921  15.777  10.485  10.072  0.0014 -0.1671 -0.1353
  246loPI    C2 3922  16.052  10.425  10.357 -0.1040 -0.0201 -0.0010
  246loPI    C3 3923  15.674  10.308  10.416 -0.1079 -0.0666 -0.1159
  246loPI   PO4 3924  15.884  10.514   9.832  0.0539 -0.0964  0.2415
  246loPI   GL1 3925  15.878  10.355   9.439 -0.0249  0.0446  0.0443
  246loPI   GL2 3926  16.177  10.153   9.432  0.2516 -0.2039  0.0938
  246loPI   C1A 3927  15.830  10.513   9.030 -0.0380  0.0265 -0.4053
  246loPI   C2A 3928  15.942  10.566   8.624 -0.0431 -0.0967 -0.0515
  246loPI   C3A 3929  15.916  10.353   8.197 -0.2497  0.0105  0.1546
  246loPI   C4A 3930  16.183  10.351   7.846 -0.1601  0.0849 -0.0339
  246loPI   C5A 3931  16.300  10.133   7.575 -0.1512 -0.2609 -0.0406
  246loPI   C6A 3932  16.522  10.045   7.283  0.2317  0.3716 -0.3217
  246loPI   C1B 3933  16.201  10.197   8.952 -0.2879  0.3681 -0.0405
  246loPI   C2B 3934  16.267  10.150   8.554  0.1193 -0.1347 -0.0315
  246loPI   C3B 3935  16.325   9.993   8.176 -0.0880  0.1447 -0.0358
  246loPI   C4B 3936  16.620   9.817   7.916 -0.1577  0.1094 -0.1290
  247loPI    C1 3937  14.313   5.489   9.993  0.2002 -0.1387 -0.0080
  247loPI    C2 3938  14.317   5.642  10.363  0.3189 -0.1268 -0.0139
  247loPI    C3 3939  14.244   5.253  10.309 -0.4258  0.0009 -0.0277
  247loPI   PO4 3940  14.516   5.630   9.849  0.0196 -0.1616 -0.2191
  247loPI   GL1 3941  14.376   5.823   9.464 -0.1195 -0.0478 -0.0770
  247loPI   GL2 3942  14.616   5.803   9.370 -0.0505  0.1879  0.1255
  247loPI   C1A 3943  14.280   5.630   9.015  0.0480  0.1529 -0.1556
  247loPI   C2A 3944  14.343   5.609   8.595 -0.0482  0.0204  0.0124
  247loPI   C3A 3945  14.218   5.339   8.288  0.3283 -0.0298  0.0415
  247loPI   C4A 3946  13.926   4.915   8.183 -0.2979  0.2040 -0.1174
  247loPI   C5A 3947  13.930   4.422   8.175 -0.1795  0.3757  0.0269
  247loPI   C6A 3948  13.968   3.947   8.304  0.0458 -0.2382  0.2429
  247loPI   C1B 3949  14.653   5.901   8.964  0.2838 -0.1892 -0.1674
  247loPI   C2B 3950  14.667   5.974   8.502 -0.1647  0.0667 -0.0523
  247loPI   C3B 3951  14.467   5.912   8.108 -0.0392 -0.0396  0.1838
  247loPI   C4B 3952  14.586   6.033   7.756  0.1419  0.2921 -0.0020
  248loPI    C1 3953  13.396   6.857   9.759  0.1327 -0.0422  0.1196
  248loPI    C2 3954  13.716   6.848   9.999  0.1710 -0.0189  0.0696
  248loPI    C3 3955  13.349   6.806  10.153  0.2050 -0.1566  0.1140
  248loPI   PO4 3956  13.443   7.095   9.640 -0.2788 -0.0592  0.1554
  248loPI   GL1 3957  13.404   7.237   9.225 -0.0176  0.4277  0.3484
  248loPI   GL2 3958  13.796   7.244   9.264 -0.1460 -0.0631 -0.0415
  248loPI   C1A 3959  13.227   7.091   8.808  0.0239 -0.2716  0.0739
  248loPI   C2A 3960  12.999   6.938   8.566 -0.0849 -0.0567  0.3853
  248loPI   C3A 3961  13.196   6.863   8.127  0.1782 -0.3754  0.1399
  248loPI   C4A 3962  13.386   6.750   7.691  0.1469 -0.1179 -0.1183
  248loPI   C5A 3963  13.471   6.536   7.321 -0.2511 -0.3345 -0.0845
  248loPI   C6A 3964  13.194   6.222   7.154 -0.1602 -0.0797 -0.0468
  248loPI   C1B 3965  13.746   7.108   8.754 -0.1693 -0.0658 -0.2348
  248loPI   C2B 3966  13.618   6.910   8.318 -0.3169  0.0680  0.0969
  248loPI   C3B 3967  13.830   6.743   8.000  0.0622 -0.2237  0.0190
  248loPI   C4B 3968  13.888   6.422   7.746  0.0753 -0.0582  0.2500
  249loPI    C1 3969   3.595   5.410  10.379  0.0791  0.1555  0.0190
  249loPI    C2 3970   3.791   5.489  10.039 -0.1910 -0.0758 -0.1958
  249loPI    C3 3971   3.989   5.343  10.355  0.0676  0.1704 -0.2395
  249loPI   PO4 3972   3.320   5.410  10.231 -0.2627 -0.2914 -0.0651
  249loPI   GL1 3973   3.336   5.358   9.857  0.2213  0.3346  0.0265
  249loPI   GL2 3974   3.427   5.026   9.965  0.0157 -0.0413  0.0367
  249loPI   C1A 3975   3.152   5.206   9.498  0.1628  0.4346  0.2335
  249loPI   C2A 3976   3.159   5.218   9.126  0.2561  0.0952 -0.2725
  249loPI   C3A 3977   3.180   5.151   8.717 -0.2207  0.1936 -0.1448
  249loPI   C4A 3978   3.343   4.793   8.475  0.4698  0.1915 -0.2500
  249loPI   C5A 3979   3.705   4.512   8.266  0.0282 -0.0489  0.1165
  249loPI   C6A 3980   3.978   4.495   8.037  0.0738  0.2979  0.2332
  249loPI   C1B 3981   3.867   5.119   9.738 -0.2162  0.1803 -0.2525
  249loPI   C2B 3982   4.148   4.767   9.558  0.2147 -0.1036  0.0089
  249loPI   C3B 3983   4.115   4.731   9.129  0.1964 -0.0762  0.2457
  249loPI   C4B 3984   4.298   4.468   8.792  0.1047 -0.2619 -0.0991
  250loPI    C1 3985   2.544   8.414  10.619  0.2603  0.0489 -0.0506
  250loPI    C2 3986   2.714   8.127  10.839  0.0871 -0.0970 -0.1043
  250loPI    C3 3987   2.530   8.433  11.018  0.0560 -0.1496 -0.0458
  250loPI   PO4 3988   2.601   8.392  10.335 -0.3015 -0.1084 -0.2690
  250loPI   GL1 3989   2.319   8.398   9.976 -0.2063  0.2422 -0.0125
  250loPI   GL2 3990   2.522   8.197   9.846 -0.1321 -0.0637 -0.1345
  250loPI   C1A 3991   2.493   8.640   9.510 -0.1699 -0.0217 -0.0947
  250loPI   C2A 3992   2.909   8.559   9.308  0.1606 -0.2315 -0.3847
  250loPI   C3A 3993   3.187   8.821   9.135 -0.0967 -0.0297  0.2342
  250loPI   C4A 3994   3.207   9.031   8.707 -0.1814 -0.1858  0.1294
  250loPI   C5A 3995   3.112   8.812   8.232  0.0274  0.2748 -0.0990
  250loPI   C6A 3996   2.926   8.901   7.864 -0.1863  0.1997 -0.0789
  250loPI   C1B 3997   2.545   8.182   9.436 -0.0999 -0.1769 -0.0705
  250loPI   C2B 3998   2.511   8.231   8.971  0.3025  0.1477 -0.1108
  250loPI   C3B 3999   2.461   8.067   8.510  0.0527 -0.1035  0.0097
  250loPI   C4B 4000   2.157   7.945   8.244  0.2009 -0.1788  0.0159
  251loPI    C1 4001  13.871  18.260  10.168 -0.1916  0.2583 -0.2605
  251loPI    C2 4002  13.491  18.276  10.292 -0.0372  0.0256  0.2700
  251loPI    C3 4003  13.786  18.225  10.557  0.3398 -0.1527 -0.1705
  251loPI   PO4 4004  13.871  18.187   9.891 -0.1304 -0.1134  0.0578
  251loPI   GL1 4005  14.117  18.070   9.596  0.1550  0.1705  0.0353
  251loPI   GL2 4006  13.729  17.932   9.490 -0.0049  0.2217 -0.0169
  251loPI   C1A 4007  14.089  18.107   9.085  0.1701  0.1585  0.0256
  251loPI   C2A 4008  13.851  17.925   8.702 -0.3063 -0.1174  0.0494
  251loPI   C3A 4009  13.630  18.056   8.242  0.1517  0.1086 -0.2105
  251loPI   C4A 4010  13.324  18.349   8.011 -0.0272 -0.1890 -0.3300
  251loPI   C5A 4011  13.028  18.527   7.728 -0.4890  0.2500 -0.0222
  251loPI   C6A 4012  12.649  18.485   7.417 -0.0843 -0.1560  0.1509
  251loPI   C1B 4013  13.729  17.659   9.162  0.1614  0.1227 -0.0915
  251loPI   C2B 4014  13.417  17.555   8.962 -0.3389  0.2919  0.0907
  251loPI   C3B 4015  13.403  17.235   8.665  0.0062 -0.1101 -0.4011
  251loPI   C4B 4016  13.322  17.038   8.314  0.0595  0.2828  0.1007
  252loPI    C1 4017   5.143  11.066  10.401  0.0401  0.1032 -0.0918
  252loPI    C2 4018   5.262  10.701  10.290 -0.0569  0.0678 -0.0805
  252loPI    C3 4019   5.257  10.800  10.678 -0.1933  0.0234 -0.0705
  252loPI   PO4 4020   4.942  11.136  10.134  0.0769 -0.1182 -0.0503
  252loPI   GL1 4021   4.978  10.963   9.753 -0.0325  0.2140  0.0906
  252loPI   GL2 4022   4.719  11.233   9.671 -0.2335  0.3707 -0.1712
  252loPI   C1A 4023   5.074  10.742   9.410 -0.0298  0.3415 -0.2154
  252loPI   C2A 4024   5.030  10.769   9.075 -0.3144 -0.0998  0.0102
  252loPI   C3A 4025   4.993  10.687   8.644  0.2078 -0.0904 -0.4258
  252loPI   C4A 4026   4.891  10.423   8.322 -0.1770  0.0020  0.1946
  252loPI   C5A 4027   5.087  10.318   7.951  0.1142  0.0116 -0.2289
  252loPI   C6A 4028   5.486  10.418   7.765  0.1387  0.0462 -0.0425
  252loPI   C1B 4029   4.742  11.112   9.353 -0.2059  0.2304 -0.1219
  252loPI   C2B 4030   4.791  11.210   8.903 -0.2809  0.1137 -0.1516
  252loPI   C3B 4031   4.768  11.084   8.425 -0.1783 -0.2295  0.0514
  252loPI   C4B 4032   4.858  10.913   7.926  0.1356  0.2890  0.1869
  253loPI    C1 4033  13.151   9.413   9.946 -0.2750  0.0479  0.1002
  253loPI    C2 4034  13.440   9.300  10.198 -0.2669  0.0193  0.0782
  253loPI    C3 4035  13.067   9.351  10.332 -0.2830 -0.0914  0.0768
  253loPI   PO4 4036  13.251   9.338   9.737  0.1493 -0.0144  0.2820
  253loPI   GL1 4037  13.166   8.955   9.437  0.1071 -0.0076 -0.0181
  253loPI   GL2 4038  12.895   8.909   9.307  0.1264  0.1321  0.0342
  253loPI   C1A 4039  13.280   9.063   8.953 -0.1570 -0.1153 -0.3458
  253loPI   C2A 4040  13.463   9.315   8.643  0.2346  0.0741 -0.1378
  253loPI   C3A 4041  13.505   9.444   8.260  0.1135  0.0163  0.3236
  253loPI   C4A 4042  13.711   9.503   7.824 -0.0468  0.1348 -0.0490
  253loPI   C5A 4043  14.085   9.554   7.534  0.0740 -0.0114 -0.4176
  253loPI   C6A 4044  14.416   9.701   7.204 -0.2905 -0.1258 -0.2143
  253loPI   C1B 4045  12.834   8.921   8.854 -0.3391  0.4272 -0.5277
  253loPI   C2B 4046  12.835   9.008   8.407  0.1327 -0.4144 -0.0235
  253loPI   C3B 4047  12.698   9.344   8.088 -0.1782 -0.1338 -0.2533
  253loPI   C4B 4048  12.667   9.668   7.854 -0.0578 -0.0892  0.0109
  254loPI    C1 4049   2.252  14.607   9.941 -0.2280  0.1772  0.0745
  254loPI    C2 4050   2.485  14.915  10.048  0.0686  0.0098 -0.0756
  254loPI    C3 4051   2.372  14.645  10.320  0.2693 -0.0506 -0.0506
  254loPI   PO4 4052   2.019  14.691   9.852 -0.2313 -0.0782 -0.1605
  254loPI   GL1 4053   1.885  14.584   9.478  0.1178  0.0335  0.2932
  254loPI   GL2 4054   2.021  14.295   9.478  0.2364  0.1700  0.1238
  254loPI   C1A 4055   1.695  14.708   9.070 -0.0056  0.1729 -0.0358
  254loPI   C2A 4056   1.608  14.835   8.657 -0.3766  0.0302  0.0103
  254loPI   C3A 4057   1.669  14.746   8.243  0.1694  0.2662  0.1379
  254loPI   C4A 4058   1.739  14.778   7.747  0.0287  0.2792 -0.1317
  254loPI   C5A 4059   1.713  14.870   7.344 -0.0122 -0.0107  0.3076
  254loPI   C6A 4060   1.841  14.701   6.973 -0.0331  0.0502  0.0860
  254loPI   C1B 4061   1.996  14.306   9.047  0.0040  0.1637 -0.1384
  254loPI   C2B 4062   2.025  14.222   8.687  0.0350  0.0793 -0.0157
  254loPI   C3B 4063   2.118  13.987   8.380 -0.1125  0.3268 -0.4683
  254loPI   C4B 4064   2.194  13.644   8.124 -0.1109  0.0154  0.0254
  255loPI    C1 4065   1.662  15.467  10.177 -0.0420 -0.1267  0.1691
  255loPI    C2 4066   1.712  15.793  10.403 -0.2359 -0.0748  0.1393
  255loPI    C3 4067   2.027  15.624  10.225 -0.1485  0.1597  0.0665
  255loPI   PO4 4068   1.435  15.572   9.948 -0.0026  0.2061 -0.1140
  255loPI   GL1 4069   1.362  15.365   9.540 -0.2661  0.1549 -0.4067
  255loPI   GL2 4070   1.318  15.024   9.466  0.2555 -0.0214 -0.3044
  255loPI   C1A 4071   1.109  15.589   9.320  0.2200  0.0741 -0.0338
  255loPI   C2A 4072   0.933  15.661   8.918 -0.3023 -0.0292 -0.1148
  255loPI   C3A 4073   0.874  15.638   8.379 -0.0302  0.0315 -0.0365
  255loPI   C4A 4074   0.690  15.796   8.016 -0.2047  0.0645  0.2393
  255loPI   C5A 4075   0.438  15.999   7.753  0.1609 -0.1148  0.0031
  255loPI   C6A 4076   0.610  16.082   7.378  0.0557  0.1148 -0.6253
  255loPI   C1B 4077   1.367  15.237   9.034 -0.0704 -0.4169 -0.0576
  255loPI   C2B 4078   1.191  15.269   8.674  0.2098  0.1814 -0.0328
  255loPI   C3B 4079   1.038  15.072   8.205 -0.3607 -0.3352  0.3211
  255loPI   C4B 4080   0.574  15.088   7.990  0.1157  0.1089  0.1423
  256loPI    C1 4081  15.974   9.623  10.544 -0.0971  0.0659 -0.2179
  256loPI    C2 4082  16.367   9.689  10.580 -0.1051  0.1768 -0.3271
  256loPI    C3 4083  16.105   9.975  10.681 -0.1593  0.0886 -0.2160
  256loPI   PO4 4084  15.931   9.535  10.265  0.4323 -0.0536  0.0146
  256loPI   GL1 4085  16.192   9.376   9.922 -0.0054 -0.1928 -0.1979
  256loPI   GL2 4086  16.017   9.089   9.953  0.1503  0.1611  0.0144
  256loPI   C1A 4087  16.141   9.415   9.549  0.1620  0.1562  0.0744
  256loPI   C2A 4088  15.949   9.683   9.374  0.2873 -0.0418 -0.3159
  256loPI   C3A 4089  15.798   9.910   9.067  0.2321  0.4297 -0.0994
  256loPI   C4A 4090  15.842   9.864   8.614  0.2266 -0.3123 -0.1101
  256loPI   C5A 4091  15.760   9.733   8.227  0.2052 -0.2444 -0.2545
  256loPI   C6A 4092  15.945   9.919   7.847  0.1306 -0.0069 -0.1091
  256loPI   C1B 4093  16.170   8.925   9.497  0.1768 -0.1431 -0.0145
  256loPI   C2B 4094  16.373   8.942   9.161 -0.1501 -0.3706 -0.0154
  256loPI   C3B 4095  16.235   8.898   8.730  0.0905  0.3839 -0.0288
  256loPI   C4B 4096  16.016   8.626   8.489  0.3765 -0.0006  0.0893
  257loPI    C1 4097  11.877   3.172  10.061  0.0413 -0.0915  0.2158
  257loPI    C2 4098  12.011   3.543  10.126  0.0422 -0.1013  0.2708
  257loPI    C3 4099  12.250   3.271   9.957  0.1117 -0.1353  0.4221
  257loPI   PO4 4100  11.597   3.211  10.043  0.1004  0.0839  0.2110
  257loPI   GL1 4101  11.272   3.289   9.777  0.0389 -0.3877 -0.0601
  257loPI   GL2 4102  11.250   2.959   9.772  0.0008 -0.0890 -0.0519
  257loPI   C1A 4103  11.345   3.185   9.331  0.1673  0.1925 -0.0128
  257loPI   C2A 4104  11.282   2.932   8.920  0.1230  0.1004 -0.1383
  257loPI   C3A 4105  11.468   2.596   8.574 -0.3289  0.0571  0.1420
  257loPI   C4A 4106  11.869   2.652   8.305  0.0590 -0.0701  0.0605
  257loPI   C5A 4107  12.206   2.674   8.041 -0.1278  0.0460  0.0236
  257loPI   C6A 4108  12.522   2.377   7.825  0.0080  0.2222 -0.2975
  257loPI   C1B 4109  11.094   2.733   9.417 -0.1318 -0.0008 -0.1691
  257loPI   C2B 4110  10.776   2.887   9.090 -0.0878 -0.2349  0.1054
  257loPI   C3B 4111  10.707   2.927   8.707 -0.0608 -0.4118  0.2986
  257loPI   C4B 4112  10.783   2.863   8.307  0.1344  0.0628 -0.0729
  258loPI    C1 4113   7.598   6.355  10.424 -0.3368 -0.0319  0.1149
  258loPI    C2 4114   7.647   6.267  10.811  0.0800  0.3877  0.1672
  258loPI    C3 4115   7.400   6.563  10.703  0.0709  0.3631  0.1208
  258loPI   PO4 4116   7.727   6.330  10.212 -0.0664  0.1249 -0.0035
  258loPI   GL1 4117   7.952   6.511   9.851  0.1562  0.1198  0.2853
  258loPI   GL2 4118   7.929   6.915   9.872  0.2028 -0.1287  0.3622
  258loPI   C1A 4119   8.055   6.272   9.425 -0.1538  0.2693  0.2465
  258loPI   C2A 4120   8.087   6.219   9.073  0.2027  0.0731  0.1094
  258loPI   C3A 4121   8.008   6.246   8.564  0.1856 -0.0918 -0.1820
  258loPI   C4A 4122   7.869   6.132   8.149  0.0148 -0.1253  0.3517
  258loPI   C5A 4123   7.849   6.081   7.735 -0.4260  0.1470  0.0077
  258loPI   C6A 4124   7.444   6.174   7.493 -0.0049 -0.0326 -0.3870
  258loPI   C1B 4125   8.164   7.129   9.485 -0.1513 -0.1040  0.0605
  258loPI   C2B 4126   8.056   7.228   9.082  0.1926  0.1398  0.0998
  258loPI   C3B 4127   7.861   7.311   8.710  0.0935 -0.3282  0.3381
  258loPI   C4B 4128   7.826   7.506   8.368  0.0592  0.2744 -0.1326
  259loPI    C1 4129   5.804  13.115  10.199  0.2085 -0.0413 -0.0613
  259loPI    C2 4130   5.759  12.774  10.402 -0.0950  0.1178  0.1460
  259loPI    C3 4131   5.990  12.783  10.076  0.0999 -0.2288  0.2690
  259loPI   PO4 4132   5.512  13.187  10.227 -0.1007  0.0786  0.0194
  259loPI   GL1 4133   5.438  13.361   9.780 -0.3051  0.0249  0.2405
  259loPI   GL2 4134   5.641  13.619   9.643 -0.1238  0.0909 -0.0077
  259loPI   C1A 4135   5.305  13.404   9.292 -0.0640 -0.2189  0.1495
  259loPI   C2A 4136   5.301  13.260   8.947  0.1510 -0.0853  0.1145
  259loPI   C3A 4137   5.311  13.070   8.718 -0.2892  0.3398 -0.3504
  259loPI   C4A 4138   5.323  13.109   8.285  0.0594 -0.1207 -0.1062
  259loPI   C5A 4139   5.437  13.336   7.905  0.0386  0.0779 -0.1112
  259loPI   C6A 4140   5.708  13.381   7.556  0.0360  0.2203 -0.1454
  259loPI   C1B 4141   5.616  13.797   9.174 -0.0261  0.2758  0.1369
  259loPI   C2B 4142   5.594  13.688   8.760  0.0703  0.2443  0.0296
  259loPI   C3B 4143   5.579  13.664   8.284  0.3394 -0.0435  0.0533
  259loPI   C4B 4144   5.678  13.820   7.824 -0.0072 -0.1819 -0.0631
  260loPI    C1 4145  10.168   2.924  10.322 -0.1805 -0.0911 -0.2210
  260loPI    C2 4146  10.540   3.023  10.213 -0.1392  0.0205  0.0147
  260loPI    C3 4147  10.479   2.799  10.539 -0.2872  0.1589  0.0832
  260loPI   PO4 4148  10.063   2.872   9.978  0.1507  0.2332 -0.1058
  260loPI   GL1 4149  10.161   2.611   9.722  0.0485 -0.0277  0.0332
  260loPI   GL2 4150   9.905   2.466   9.772 -0.0593 -0.0623 -0.0275
  260loPI   C1A 4151  10.075   2.769   9.246  0.0033 -0.1575  0.0464
  260loPI   C2A 4152  10.166   2.867   8.875 -0.2444  0.0038  0.1025
  260loPI   C3A 4153  10.204   2.880   8.528  0.0285 -0.1995 -0.0344
  260loPI   C4A 4154  10.281   2.929   8.105  0.2571 -0.3572  0.3001
  260loPI   C5A 4155  10.229   2.736   7.770 -0.0482 -0.0365 -0.0470
  260loPI   C6A 4156  10.486   2.583   7.448  0.0751 -0.1441  0.1868
  260loPI   C1B 4157   9.998   2.339   9.333  0.3723 -0.0130 -0.1758
  260loPI   C2B 4158  10.003   2.359   8.858 -0.0018 -0.2200 -0.1107
  260loPI   C3B 4159   9.987   2.401   8.460  0.1919 -0.0267 -0.0339
  260loPI   C4B 4160  10.107   2.381   8.071 -0.0886  0.0236  0.3183
  261loPI    C1 4161  13.684   5.796  10.001  0.0728 -0.0843  0.0808
  261loPI    C2 4162  13.802   5.550  10.294  0.1027 -0.0684  0.0820
  261loPI    C3 4163  13.453   5.744  10.323  0.0071 -0.2281  0.0116
  261loPI   PO4 4164  13.858   5.725   9.767  0.2504  0.0534  0.0324
  261loPI   GL1 4165  13.888   5.801   9.302 -0.2635  0.2958  0.2193
  261loPI   GL2 4166  13.797   6.070   9.364  0.0457  0.1988 -0.2873
  261loPI   C1A 4167  14.209   6.104   9.036 -0.0660 -0.1503 -0.1933
  261loPI   C2A 4168  14.467   6.325   8.791 -0.0624  0.0852  0.1716
  261loPI   C3A 4169  14.570   6.611   8.439 -0.3881 -0.0716 -0.2158
  261loPI   C4A 4170  14.584   6.906   8.151  0.0860 -0.2482  0.1741
  261loPI   C5A 4171  14.265   6.991   7.940 -0.4105 -0.0647  0.0997
  261loPI   C6A 4172  13.902   6.888   7.520  0.0673  0.0998  0.1983
  261loPI   C1B 4173  13.702   6.083   8.973 -0.1147 -0.2198  0.1023
  261loPI   C2B 4174  13.607   6.174   8.598 -0.1319 -0.1195 -0.1326
  261loPI   C3B 4175  13.899   6.321   8.276  0.1781  0.0617 -0.1707
  261loPI   C4B 4176  14.274   6.436   8.110  0.1264 -0.1371  0.3057
  262loPI    C1 4177  17.907  14.890  10.767 -0.0768 -0.0517  0.1611
  262loPI    C2 4178  17.902  15.269  10.640 -0.0512 -0.0847  0.0611
  262loPI    C3 4179  17.756  15.177  11.001 -0.0551  0.0205  0.0865
  262loPI   PO4 4180  18.028  14.815  10.553  0.3714 -0.1724 -0.3104
  262loPI   GL1 4181  18.289  14.765  10.252 -0.0287  0.0751 -0.1508
  262loPI   GL2 4182  18.568  14.820  10.074  0.0960 -0.0860  0.0515
  262loPI   C1A 4183  17.946  14.668   9.884 -0.0171  0.1338  0.0881
  262loPI   C2A 4184  17.951  14.615   9.451  0.0498 -0.1943 -0.0589
  262loPI   C3A 4185  17.904  14.597   9.066 -0.0357  0.0507  0.2484
  262loPI   C4A 4186  17.972  14.825   8.656 -0.2261 -0.3154  0.0506
  262loPI   C5A 4187  17.817  14.922   8.280  0.2511  0.2797  0.4733
  262loPI   C6A 4188  17.703  14.993   7.738 -0.0504  0.0983 -0.1479
  262loPI   C1B 4189  18.570  14.890   9.609  0.1845  0.0952  0.2031
  262loPI   C2B 4190  18.688  14.986   9.181 -0.0786  0.0648 -0.0114
  262loPI   C3B 4191  19.064  15.009   8.843 -0.0849  0.1603  0.0705
  262loPI   C4B 4192  19.359  14.677   8.804 -0.2043 -0.1399  0.2242
  263loPI    C1 4193   7.662  12.459  10.040 -0.3024 -0.0356 -0.3639
  263loPI    C2 4194   7.391  12.754  10.038 -0.2305  0.0385  0.0266
  263loPI    C3 4195   7.686  12.755  10.308  0.0940 -0.1042 -0.3175
  263loPI   PO4 4196   7.779  12.405   9.811 -0.0283  0.1557 -0.0907
  263loPI   GL1 4197   7.597  12.670   9.562  0.2742  0.0510  0.0340
  263loPI   GL2 4198   7.302  12.519   9.584 -0.0168 -0.1028 -0.0097
  263loPI   C1A 4199   7.902  12.899   9.322 -0.1219  0.1693  0.0063
  263loPI   C2A 4200   8.216  12.922   8.984  0.2517 -0.1174  0.0094
  263loPI   C3A 4201   8.171  12.884   8.476 -0.3666 -0.1558 -0.1276
  263loPI   C4A 4202   8.200  12.936   8.028 -0.1718 -0.0092 -0.0806
  263loPI   C5A 4203   7.971  12.880   7.673 -0.1323  0.0420  0.0307
  263loPI   C6A 4204   7.438  12.898   7.567 -0.1383 -0.2945  0.1927
  263loPI   C1B 4205   7.086  12.500   9.201  0.2201  0.1988 -0.2876
  263loPI   C2B 4206   7.015  12.346   8.761  0.1503  0.1379 -0.0179
  263loPI   C3B 4207   7.037  11.950   8.497  0.1653  0.1100 -0.1326
  263loPI   C4B 4208   7.084  11.808   8.013  0.1541  0.3217 -0.0240
  264loPI    C1 4209   3.382   3.648  10.207 -0.0817 -0.2387  0.1776
  264loPI    C2 4210   3.581   3.394  10.443  0.4086  0.0403  0.0774
  264loPI    C3 4211   3.511   3.768  10.566 -0.0691 -0.0550  0.1128
  264loPI   PO4 4212   3.550   3.591   9.959  0.2276 -0.1683  0.0349
  264loPI   GL1 4213   3.623   3.592   9.563  0.2423 -0.2049 -0.2618
  264loPI   GL2 4214   3.676   3.282   9.399  0.1830  0.0090 -0.1620
  264loPI   C1A 4215   3.468   3.650   9.068 -0.3346 -0.0668  0.1248
  264loPI   C2A 4216   3.577   3.815   8.712 -0.4099 -0.0655  0.0667
  264loPI   C3A 4217   3.579   3.945   8.312 -0.2605 -0.0778 -0.0536
  264loPI   C4A 4218   3.596   4.124   7.872  0.1289 -0.1437 -0.4446
  264loPI   C5A 4219   3.874   4.334   7.569 -0.1937 -0.1931 -0.2273
  264loPI   C6A 4220   3.933   4.324   7.157 -0.0209 -0.0099  0.2034
  264loPI   C1B 4221   3.812   3.284   9.046  0.0194 -0.0899  0.2715
  264loPI   C2B 4222   3.746   3.338   8.640 -0.1074 -0.2064  0.1512
  264loPI   C3B 4223   3.862   3.530   8.324  0.0378  0.1423  0.0509
  264loPI   C4B 4224   3.799   3.604   7.907  0.2318  0.0678 -0.2807
  265loPI    C1 4225  15.257  13.297  10.335  0.0434 -0.2070  0.1215
  265loPI    C2 4226  15.516  13.071  10.539  0.0670 -0.0682  0.2470
  265loPI    C3 4227  15.518  13.468  10.584  0.0221 -0.0422  0.0321
  265loPI   PO4 4228  15.210  13.279  10.164 -0.0615 -0.2484  0.0135
  265loPI   GL1 4229  15.219  13.140   9.799  0.2178  0.2233 -0.0002
  265loPI   GL2 4230  15.190  13.317   9.487  0.0378  0.1522  0.0387
  265loPI   C1A 4231  15.442  12.833   9.420  0.0880  0.3600  0.0369
  265loPI   C2A 4232  15.426  12.901   9.025  0.0029 -0.2213  0.0547
  265loPI   C3A 4233  15.465  12.864   8.559  0.0609 -0.2352  0.3197
  265loPI   C4A 4234  15.484  12.814   8.125 -0.2644  0.1047 -0.0726
  265loPI   C5A 4235  15.649  12.674   7.661 -0.1320 -0.4569  0.0985
  265loPI   C6A 4236  15.526  12.781   7.304  0.2344  0.0388  0.0209
  265loPI   C1B 4237  15.256  13.477   9.065 -0.1576  0.1435 -0.1090
  265loPI   C2B 4238  15.537  13.302   8.740 -0.0246 -0.0271 -0.2699
  265loPI   C3B 4239  15.563  13.306   8.240 -0.0860  0.0278 -0.5776
  265loPI   C4B 4240  15.482  13.655   8.028 -0.0743 -0.2880  0.2433
  266loPI    C1 4241   8.392  17.627   9.994 -0.2433 -0.1006 -0.0912
  266loPI    C2 4242   8.219  17.975   9.900  0.2623  0.1562 -0.1013
  266loPI    C3 4243   8.355  17.913  10.271  0.3081  0.0287 -0.1389
  266loPI   PO4 4244   8.360  17.460   9.783  0.2366  0.0391  0.2542
  266loPI   GL1 4245   8.256  17.406   9.402 -0.0842  0.1312 -0.2482
  266loPI   GL2 4246   8.117  17.356   9.258 -0.1257 -0.3036  0.0914
  266loPI   C1A 4247   8.482  17.013   9.135 -0.0048  0.1153 -0.0190
  266loPI   C2A 4248   8.523  16.785   8.814 -0.2969  0.3908 -0.1485
  266loPI   C3A 4249   8.559  16.593   8.406  0.1252 -0.2479 -0.0058
  266loPI   C4A 4250   8.665  16.501   7.924 -0.4045  0.0517 -0.1410
  266loPI   C5A 4251   9.050  16.478   7.690  0.4645 -0.0115 -0.2465
  266loPI   C6A 4252   9.425  16.400   7.743  0.1401 -0.0064 -0.0547
  266loPI   C1B 4253   8.177  17.266   8.829  0.1490 -0.0721  0.0618
  266loPI   C2B 4254   8.325  17.079   8.407 -0.1929 -0.0608  0.3331
  266loPI   C3B 4255   8.440  16.943   8.028  0.0435  0.1835 -0.3189
  266loPI   C4B 4256   8.380  16.719   7.572  0.3143 -0.0371  0.1117
  267loPI    C1 4257  11.605   0.270  10.169 -0.1724 -0.0523 -0.0455
  267loPI    C2 4258  11.710  -0.090  10.028  0.0371  0.0022 -0.0311
  267loPI    C3 4259  11.746  -0.009  10.418 -0.2449 -0.0431  0.0059
  267loPI   PO4 4260  11.315   0.240  10.087  0.2584  0.0222 -0.1412
  267loPI   GL1 4261  11.035   0.377   9.765 -0.1913  0.2810  0.1677
  267loPI   GL2 4262  10.783   0.100   9.651  0.0220 -0.1565  0.1744
  267loPI   C1A 4263  11.261   0.270   9.424 -0.0254  0.0872  0.1151
  267loPI   C2A 4264  11.471   0.356   9.074  0.0219  0.0793  0.0244
  267loPI   C3A 4265  11.487   0.408   8.664  0.0847  0.0488  0.2097
  267loPI   C4A 4266  11.324   0.662   8.283 -0.3918  0.2404  0.3220
  267loPI   C5A 4267  10.999   0.686   7.927  0.2026  0.0261  0.2624
  267loPI   C6A 4268  10.593   0.397   7.742  0.0378  0.0988  0.2117
  267loPI   C1B 4269  10.971  -0.096   9.288  0.0345 -0.0449 -0.0574
  267loPI   C2B 4270  11.004  -0.131   8.825 -0.1190 -0.1346  0.1705
  267loPI   C3B 4271  10.998   0.053   8.482 -0.1863  0.1023  0.4278
  267loPI   C4B 4272  10.965   0.223   8.154  0.4224 -0.2067  0.1573
  268loPI    C1 4273   9.401   9.818   9.767  0.0273  0.0718 -0.0061
  268loPI    C2 4274   9.413  10.057  10.088  0.1934  0.1187 -0.0464
  268loPI    C3 4275   9.689  10.094   9.800  0.1671 -0.0618 -0.0959
  268loPI   PO4 4276   9.409   9.527   9.881  0.2083  0.2562 -0.1314
  268loPI   GL1 4277   9.168   9.310   9.671  0.1684 -0.1420  0.0354
  268loPI   GL2 4278   8.875   9.379   9.826 -0.2645 -0.1023 -0.1041
  268loPI   C1A 4279   9.174   9.448   9.190 -0.3575 -0.2750 -0.0944
  268loPI   C2A 4280   9.098   9.524   8.719 -0.0458  0.1374 -0.0593
  268loPI   C3A 4281   9.172   9.534   8.286 -0.0665  0.0367 -0.1225
  268loPI   C4A 4282   9.196   9.686   7.865  0.0123  0.0563 -0.2698
  268loPI   C5A 4283   9.358   9.942   7.544  0.1876  0.0679  0.0878
  268loPI   C6A 4284   9.693  10.028   7.418  0.0818 -0.1536  0.0295
  268loPI   C1B 4285   8.710   9.284   9.405  0.2457 -0.2437 -0.0184
  268loPI   C2B 4286   8.716   9.222   8.995  0.1786 -0.1288  0.1359
  268loPI   C3B 4287   8.849   9.163   8.429  0.2986  0.1484 -0.0121
  268loPI   C4B 4288   9.052   9.075   7.990  0.3381 -0.1173  0.1447
  269loPI    C1 4289   5.187   2.353   9.927  0.0025  0.1946 -0.1204
  269loPI    C2 4290   5.473   2.572  10.101 -0.1150  0.0856  0.2194
  269loPI    C3 4291   5.370   2.218  10.257 -0.2424 -0.0048 -0.0627
  269loPI   PO4 4292   5.267   2.320   9.715  0.0044  0.1612 -0.1648
  269loPI   GL1 4293   5.400   2.394   9.336 -0.1166 -0.2007  0.0726
  269loPI   GL2 4294   5.567   2.148   9.352 -0.1691  0.3082 -0.0819
  269loPI   C1A 4295   5.302   2.354   8.912  0.2921 -0.0187  0.1233
  269loPI   C2A 4296   5.440   2.074   8.461  0.4784  0.0573 -0.0764
  269loPI   C3A 4297   5.495   2.198   7.948 -0.1779 -0.0482 -0.1135
  269loPI   C4A 4298   5.356   2.013   7.636  0.2858 -0.0494 -0.1970
  269loPI   C5A 4299   5.282   1.921   7.265 -0.0121 -0.2149  0.2259
  269loPI   C6A 4300   5.114   1.562   7.042  0.0432  0.1232 -0.0007
  269loPI   C1B 4301   5.785   2.110   9.033  0.0174 -0.3008  0.1293
  269loPI   C2B 4302   5.908   2.134   8.605 -0.3910  0.0216 -0.4012
  269loPI   C3B 4303   5.903   1.928   8.194  0.4191  0.1586  0.0939
  269loPI   C4B 4304   5.858   1.864   7.854 -0.3213  0.1362  0.3190
  270loPI    C1 4305   2.107  17.097  10.122 -0.0806  0.2611  0.0555
  270loPI    C2 4306   2.163  16.997  10.505 -0.0198  0.1447  0.0167
  270loPI    C3 4307   1.908  16.787  10.279 -0.1932  0.3256  0.0414
  270loPI   PO4 4308   2.333  17.183  10.042  0.2029  0.1033 -0.1817
  270loPI   GL1 4309   2.475  17.503   9.695  0.0012 -0.1502  0.0472
  270loPI   GL2 4310   2.184  17.361   9.600 -0.1007 -0.2778 -0.1249
  270loPI   C1A 4311   2.286  17.714   9.320  0.2362  0.2147 -0.0722
  270loPI   C2A 4312   2.201  17.856   8.925  0.0987  0.0258  0.4099
  270loPI   C3A 4313   2.089  17.986   8.462  0.0843 -0.0552 -0.0625
  270loPI   C4A 4314   1.836  18.083   8.129  0.3070 -0.0161 -0.2037
  270loPI   C5A 4315   1.730  18.455   7.916 -0.0454  0.0942  0.0052
  270loPI   C6A 4316   1.679  18.896   7.704 -0.1521 -0.1529  0.2738
  270loPI   C1B 4317   2.256  17.167   9.169 -0.0973 -0.2433 -0.1257
  270loPI   C2B 4318   2.205  17.034   8.707  0.1788  0.1886 -0.3004
  270loPI   C3B 4319   2.303  17.112   8.299  0.0313 -0.0045 -0.0413
  270loPI   C4B 4320   2.645  17.309   8.073  0.5184  0.0767 -0.1611
  271loPI    C1 4321  12.939   2.187  10.044  0.0125  0.0714  0.0945
  271loPI    C2 4322  13.191   2.482  10.142 -0.1645  0.2275  0.0848
  271loPI    C3 4323  13.119   2.186  10.401  0.0485  0.1675  0.0769
  271loPI   PO4 4324  12.741   2.384   9.957  0.2751  0.1775  0.0101
  271loPI   GL1 4325  12.397   2.475   9.650 -0.1095 -0.0622  0.1344
  271loPI   GL2 4326  12.555   2.339   9.425 -0.0110 -0.0876  0.0324
  271loPI   C1A 4327  12.467   2.840   9.341  0.2283  0.0083 -0.0238
  271loPI   C2A 4328  12.327   3.036   9.017  0.1571  0.0063  0.0704
  271loPI   C3A 4329  12.285   3.411   8.806  0.0322 -0.0370 -0.3156
  271loPI   C4A 4330  12.255   3.369   8.347 -0.0232 -0.5310 -0.1589
  271loPI   C5A 4331  12.292   3.559   7.919  0.2415  0.1537 -0.1578
  271loPI   C6A 4332  12.467   3.825   7.531 -0.2448  0.0088 -0.3281
  271loPI   C1B 4333  12.686   2.501   8.936 -0.2478  0.0982 -0.2051
  271loPI   C2B 4334  13.026   2.378   8.649  0.4697  0.2325  0.1792
  271loPI   C3B 4335  13.202   1.984   8.341 -0.1771  0.0188 -0.3740
  271loPI   C4B 4336  13.190   1.498   8.224 -0.0118 -0.0976 -0.1349
  272loPI    C1 4337  18.232   8.701  10.777  0.1155  0.0438 -0.1335
  272loPI    C2 4338  17.926   8.896  10.946  0.2687  0.1971 -0.0293
  272loPI    C3 4339  17.949   8.497  10.973  0.1986  0.2049  0.1601
  272loPI   PO4 4340  18.244   8.898  10.392  0.0319 -0.2359  0.2494
  272loPI   GL1 4341  18.136   8.994  10.039  0.0117  0.0069  0.0598
  272loPI   GL2 4342  18.163   8.648   9.974 -0.0267  0.0100 -0.3311
  272loPI   C1A 4343  18.330   9.067   9.705 -0.3478  0.1222  0.2237
  272loPI   C2A 4344  18.338   9.149   9.222  0.1616  0.0810 -0.1306
  272loPI   C3A 4345  18.477   9.138   8.710  0.1657 -0.1261  0.0695
  272loPI   C4A 4346  18.477   9.191   8.245 -0.0295 -0.0596  0.2498
  272loPI   C5A 4347  18.192   8.946   7.998 -0.0396 -0.1047 -0.2705
  272loPI   C6A 4348  18.316   8.590   7.917  0.0699 -0.0187  0.3998
  272loPI   C1B 4349  18.206   8.628   9.594  0.2903 -0.1909  0.1850
  272loPI   C2B 4350  18.364   8.643   9.194 -0.0595 -0.2300  0.2226
  272loPI   C3B 4351  18.383   8.633   8.730 -0.0456  0.1337 -0.1779
  272loPI   C4B 4352  18.484   8.748   8.355  0.0438  0.4195 -0.3473
  273loPI    C1 4353   4.788   3.601  10.519 -0.1781  0.2716 -0.2142
  273loPI    C2 4354   4.737   3.894  10.786 -0.1679  0.1064 -0.0286
  273loPI    C3 4355   4.666   3.514  10.890  0.0801  0.0150 -0.1855
  273loPI   PO4 4356   4.810   3.850  10.312 -0.2118 -0.0594  0.1052
  273loPI   GL1 4357   4.941   3.870   9.861  0.1309 -0.0955 -0.3602
  273loPI   GL2 4358   5.185   4.016   9.686  0.3215 -0.0881  0.1553
  273loPI   C1A 4359   4.897   3.643   9.513  0.2269  0.1252 -0.2895
  273loPI   C2A 4360   4.550   3.649   9.195  0.1379  0.1305 -0.1822
  273loPI   C3A 4361   4.634   3.631   8.799  0.0973 -0.0861  0.1181
  273loPI   C4A 4362   4.700   3.408   8.436 -0.1054  0.2910 -0.1046
  273loPI   C5A 4363   4.761   3.380   7.929 -0.3392  0.0293 -0.1565
  273loPI   C6A 4364   4.941   3.601   7.736  0.1170  0.0008  0.0111
  273loPI   C1B 4365   5.395   3.755   9.403  0.0230 -0.1064  0.3704
  273loPI   C2B 4366   5.396   3.416   9.143 -0.0738  0.0420 -0.3175
  273loPI   C3B 4367   5.531   3.196   8.896  0.0413 -0.0925  0.0093
  273loPI   C4B 4368   5.414   2.916   8.671  0.2664 -0.0557  0.0014
  274loPI    C1 4369   6.174   6.784  10.342 -0.1781 -0.0584  0.1534
  274loPI    C2 4370   6.265   7.037  10.638  0.2064 -0.0418  0.0262
  274loPI    C3 4371   6.438   6.676  10.623 -0.2178 -0.2544  0.1172
  274loPI   PO4 4372   6.116   7.010  10.191  0.0476  0.0701 -0.1534
  274loPI   GL1 4373   5.952   6.932   9.724  0.1222 -0.1732  0.1969
  274loPI   GL2 4374   6.033   6.570   9.654 -0.1450 -0.1646 -0.0539
  274loPI   C1A 4375   5.799   7.106   9.340  0.1222  0.0094  0.0183
  274loPI   C2A 4376   5.790   7.258   8.942  0.1812 -0.0869  0.2277
  274loPI   C3A 4377   5.614   7.341   8.453 -0.0883 -0.0553  0.0202
  274loPI   C4A 4378   5.626   7.231   8.113  0.1545  0.1981 -0.2312
  274loPI   C5A 4379   5.639   7.077   7.746 -0.0919  0.0334 -0.2017
  274loPI   C6A 4380   6.049   6.920   7.503 -0.1147  0.0119  0.0718
  274loPI   C1B 4381   5.967   6.371   9.239  0.0664 -0.6568 -0.0275
  274loPI   C2B 4382   5.948   6.288   8.944  0.0732 -0.2549  0.2499
  274loPI   C3B 4383   5.911   6.364   8.462  0.2479  0.1234  0.0870
  274loPI   C4B 4384   5.930   6.262   7.987 -0.1952  0.1105 -0.0336
  275loPI    C1 4385  11.244   7.096  10.630  0.0823 -0.0653  0.0885
  275loPI    C2 4386  11.272   6.874  10.961 -0.1565 -0.1335  0.0651
  275loPI    C3 4387  11.165   7.258  10.987  0.1100 -0.0591  0.0918
  275loPI   PO4 4388  11.166   6.905  10.431  0.1010  0.2338 -0.2672
  275loPI   GL1 4389  11.057   6.921  10.038  0.1279  0.4974  0.0478
  275loPI   GL2 4390  10.903   7.046   9.991  0.0482  0.0143  0.0909
  275loPI   C1A 4391  11.406   6.937   9.762 -0.0045  0.1542  0.2068
  275loPI   C2A 4392  11.639   6.926   9.313 -0.0581 -0.1428  0.0759
  275loPI   C3A 4393  11.625   6.928   8.828 -0.1906 -0.0258  0.1586
  275loPI   C4A 4394  11.405   7.194   8.509  0.3485  0.3198 -0.0960
  275loPI   C5A 4395  11.046   7.326   8.256 -0.0289  0.0387  0.2037
  275loPI   C6A 4396  10.783   7.468   7.845 -0.0789  0.1938 -0.2217
  275loPI   C1B 4397  10.607   7.249   9.706  0.0940  0.3263 -0.0543
  275loPI   C2B 4398  10.427   7.281   9.394  0.1270  0.2032 -0.0727
  275loPI   C3B 4399  10.159   7.506   9.085  0.5007  0.1790 -0.1940
  275loPI   C4B 4400  10.108   7.797   8.715 -0.1124 -0.2617 -0.1495
  276loPI    C1 4401  14.595  14.884  10.202 -0.0867 -0.2503  0.2115
  276loPI    C2 4402  14.991  14.827  10.206 -0.0109  0.1208 -0.4841
  276loPI    C3 4403  14.836  15.167  10.349 -0.1004 -0.0841 -0.0791
  276loPI   PO4 4404  14.521  14.844   9.990 -0.1842 -0.1868  0.0156
  276loPI   GL1 4405  14.814  14.698   9.764  0.1715  0.0437  0.0187
  276loPI   GL2 4406  15.128  14.644   9.742  0.3960 -0.0075  0.1688
  276loPI   C1A 4407  14.774  15.011   9.406  0.2672  0.0947 -0.2679
  276loPI   C2A 4408  14.791  15.450   9.392  0.2245  0.0985 -0.0767
  276loPI   C3A 4409  14.467  15.697   9.161  0.1198 -0.0220  0.2552
  276loPI   C4A 4410  14.317  16.096   9.098 -0.0599 -0.2288  0.0648
  276loPI   C5A 4411  14.426  16.429   8.737  0.7426 -0.0929 -0.2981
  276loPI   C6A 4412  14.372  16.653   8.405  0.1922 -0.2071 -0.0644
  276loPI   C1B 4413  15.094  14.629   9.256 -0.0089  0.1557 -0.0318
  276loPI   C2B 4414  15.150  14.784   8.890 -0.1152  0.0344 -0.2258
  276loPI   C3B 4415  15.143  14.931   8.468  0.0634 -0.0746  0.0310
  276loPI   C4B 4416  15.174  15.195   8.094 -0.1701  0.2066 -0.2122
  277loPI    C1 4417   8.687  16.651  10.059  0.0818  0.0037 -0.0546
  277loPI    C2 4418   8.450  16.342   9.966  0.1134 -0.0764  0.1273
  277loPI    C3 4419   8.570  16.396  10.344  0.0952  0.1683  0.0998
  277loPI   PO4 4420   8.909  16.632   9.840 -0.0327 -0.1256  0.3314
  277loPI   GL1 4421   9.068  16.538   9.445 -0.0734 -0.3331 -0.0289
  277loPI   GL2 4422   9.287  16.575   9.302  0.3186  0.2207  0.2538
  277loPI   C1A 4423   8.820  16.447   9.117  0.0416 -0.0522  0.1117
  277loPI   C2A 4424   8.988  16.432   8.722  0.0255  0.0940  0.2796
  277loPI   C3A 4425   9.007  16.364   8.266 -0.1297 -0.0616  0.2936
  277loPI   C4A 4426   9.110  16.094   7.935  0.2641 -0.3920  0.0108
  277loPI   C5A 4427   9.205  16.065   7.395  0.4240 -0.0647  0.0649
  277loPI   C6A 4428   9.348  16.389   7.139 -0.3454 -0.1707  0.0257
  277loPI   C1B 4429   9.433  16.388   8.884  0.3108 -0.0492 -0.1101
  277loPI   C2B 4430   9.442  16.188   8.510 -0.0618  0.0983 -0.2285
  277loPI   C3B 4431   9.620  16.100   8.199 -0.2509 -0.2861 -0.0975
  277loPI   C4B 4432   9.713  15.948   7.767 -0.0614  0.0819  0.2102
  278loPI    C1 4433  15.929   1.579  10.108  0.2445 -0.1186  0.0428
  278loPI    C2 4434  16.071   1.651  10.475  0.1843 -0.1752  0.0774
  278loPI    C3 4435  15.686   1.719  10.393  0.1751 -0.2562  0.0518
  278loPI   PO4 4436  16.045   1.734   9.987 -0.2232 -0.2083  0.1890
  278loPI   GL1 4437  16.070   2.036   9.680 -0.0082  0.1683  0.0580
  278loPI   GL2 4438  15.780   2.118   9.480  0.0715 -0.1600  0.1243
  278loPI   C1A 4439  16.179   1.870   9.330 -0.2632  0.0752 -0.2304
  278loPI   C2A 4440  16.120   1.991   8.881  0.0292 -0.0550 -0.0236
  278loPI   C3A 4441  16.194   1.916   8.383 -0.0682  0.2586 -0.1868
  278loPI   C4A 4442  16.298   1.715   8.026  0.1712  0.0789  0.1709
  278loPI   C5A 4443  16.251   1.332   7.795  0.1269 -0.0777 -0.0374
  278loPI   C6A 4444  15.954   0.996   7.674  0.0288  0.2484  0.0609
  278loPI   C1B 4445  15.649   2.283   9.075  0.2541 -0.0447 -0.0601
  278loPI   C2B 4446  15.685   2.202   8.684 -0.2512 -0.1047  0.0048
  278loPI   C3B 4447  15.757   2.107   8.228  0.0773  0.2220  0.0237
  278loPI   C4B 4448  15.741   1.979   7.892  0.1447  0.0642  0.0894
  279loPI    C1 4449  18.186  16.037  10.663  0.1680  0.0739  0.2133
  279loPI    C2 4450  18.367  15.981  11.015  0.0991 -0.1500  0.2144
  279loPI    C3 4451  18.188  15.674  10.830  0.2884 -0.0744 -0.1017
  279loPI   PO4 4452  18.365  16.196  10.476 -0.4210 -0.1058 -0.0353
  279loPI   GL1 4453  18.320  16.148   9.979  0.1134  0.2251 -0.0402
  279loPI   GL2 4454  18.332  15.831  10.078 -0.1106  0.0796 -0.1790
  279loPI   C1A 4455  18.211  16.193   9.623  0.0300 -0.0199 -0.0287
  279loPI   C2A 4456  18.235  15.983   9.242 -0.0496 -0.1765 -0.2484
  279loPI   C3A 4457  18.601  15.984   9.032 -0.3980  0.2123 -0.0335
  279loPI   C4A 4458  18.785  15.787   8.637  0.2276 -0.0059  0.1898
  279loPI   C5A 4459  18.937  15.929   8.284 -0.1524 -0.2141 -0.5103
  279loPI   C6A 4460  18.866  16.256   8.084 -0.1257  0.0056  0.1619
  279loPI   C1B 4461  18.578  15.820   9.704  0.1627 -0.0611  0.3034
  279loPI   C2B 4462  18.888  15.829   9.429 -0.0572 -0.0143 -0.2554
  279loPI   C3B 4463  19.111  15.875   9.073  0.0325 -0.3008 -0.0124
  279loPI   C4B 4464  19.095  16.252   8.756 -0.0414  0.1780  0.1474
  280loPI    C1 4465  17.277   0.341  10.122  0.3473  0.1577  0.1157
  280loPI    C2 4466  17.408   0.556   9.811 -0.1977  0.0780 -0.1820
  280loPI    C3 4467  17.109   0.694  10.038  0.0844  0.0578  0.2132
  280loPI   PO4 4468  17.277   0.099   9.997 -0.0195  0.2660  0.0011
  280loPI   GL1 4469  17.338   0.117   9.584  0.0610 -0.5011 -0.2130
  280loPI   GL2 4470  17.720   0.216   9.634 -0.1392  0.1690 -0.2507
  280loPI   C1A 4471  17.221   0.037   9.189 -0.1100 -0.0389 -0.0432
  280loPI   C2A 4472  17.360  -0.209   8.781  0.2226  0.0686  0.0969
  280loPI   C3A 4473  17.219  -0.034   8.380  0.1546 -0.0818 -0.1454
  280loPI   C4A 4474  17.366   0.384   8.089 -0.2298 -0.2389 -0.0780
  280loPI   C5A 4475  17.320   0.454   7.618  0.1131 -0.0203 -0.1771
  280loPI   C6A 4476  17.134   0.459   7.205  0.0987  0.3294  0.1334
  280loPI   C1B 4477  17.635   0.322   9.099  0.0210 -0.0409 -0.1717
  280loPI   C2B 4478  17.589   0.303   8.625  0.1978 -0.0660 -0.0664
  280loPI   C3B 4479  17.832   0.344   8.283  0.3213  0.1527  0.0052
  280loPI   C4B 4480  18.109   0.621   8.074 -0.1580 -0.1753 -0.0938
  281loPI    C1 4481  16.836   2.639  10.028  0.2692 -0.0201 -0.0541
  281loPI    C2 4482  16.825   2.373  10.326 -0.2372  0.1620  0.1001
  281loPI    C3 4483  16.620   2.715  10.357 -0.1536  0.2620 -0.3856
  281loPI   PO4 4484  16.766   2.565   9.842  0.0207 -0.2672 -0.1083
  281loPI   GL1 4485  16.833   2.380   9.520  0.2087 -0.5061  0.0065
  281loPI   GL2 4486  16.498   2.274   9.472 -0.0941  0.1258  0.1099
  281loPI   C1A 4487  17.056   2.178   9.192  0.0959 -0.2895 -0.3251
  281loPI   C2A 4488  17.399   2.025   8.896  0.0348  0.0076 -0.0282
  281loPI   C3A 4489  17.540   1.935   8.442 -0.0974 -0.1460  0.2033
  281loPI   C4A 4490  17.495   1.757   8.030  0.3324 -0.1448 -0.2992
  281loPI   C5A 4491  17.493   1.391   7.881  0.2730  0.1531  0.0210
  281loPI   C6A 4492  17.759   1.098   7.830  0.2230  0.1309  0.2120
  281loPI   C1B 4493  16.542   2.283   9.014  0.2184 -0.1816 -0.3745
  281loPI   C2B 4494  16.466   2.316   8.580 -0.1817  0.0443  0.3018
  281loPI   C3B 4495  16.673   2.055   8.199 -0.0877 -0.0802  0.2410
  281loPI   C4B 4496  16.750   2.103   7.792 -0.0721 -0.1893  0.2191
  282loPI    C1 4497   1.150  15.251  10.230 -0.1181 -0.0969  0.0744
  282loPI    C2 4498   1.076  15.641  10.277  0.0002 -0.0751  0.0841
  282loPI    C3 4499   0.889  15.372  10.508 -0.2145 -0.0366 -0.0417
  282loPI   PO4 4500   1.078  15.206   9.940  0.1554  0.2814 -0.0886
  282loPI   GL1 4501   0.701  15.401   9.642  0.1775 -0.0080  0.1358
  282loPI   GL2 4502   0.823  15.740   9.729 -0.0687  0.1618 -0.0295
  282loPI   C1A 4503   0.445  15.425   9.298 -0.0145 -0.0110  0.0749
  282loPI   C2A 4504   0.504  15.468   8.770  0.3783  0.1281  0.2307
  282loPI   C3A 4505   0.383  15.443   8.275 -0.1214 -0.1555  0.3237
  282loPI   C4A 4506   0.196  15.590   7.920 -0.0330  0.1012  0.1135
  282loPI   C5A 4507  -0.087  15.914   7.701 -0.2326 -0.3486  0.3110
  282loPI   C6A 4508  -0.338  16.211   7.541 -0.0148  0.0496  0.1187
  282loPI   C1B 4509   0.773  15.948   9.334  0.0838 -0.1156  0.1519
  282loPI   C2B 4510   0.792  16.158   8.953 -0.0993 -0.2460 -0.2084
  282loPI   C3B 4511   0.754  16.077   8.491 -0.0067  0.1911  0.0874
  282loPI   C4B 4512   0.646  16.288   8.160 -0.1678 -0.0642 -0.1868
  283loPI    C1 4513   4.926  18.242  10.151 -0.0771 -0.2228  0.1442
  283loPI    C2 4514   4.618  18.296  10.401  0.0041  0.1048  0.1785
  283loPI    C3 4515   4.993  18.310  10.539  0.0449  0.1069  0.0688
  283loPI   PO4 4516   4.792  18.279   9.906  0.0490  0.1609 -0.1521
  283loPI   GL1 4517   4.915  18.129   9.473  0.2472 -0.0809 -0.0398
  283loPI   GL2 4518   4.696  17.983   9.341 -0.0975 -0.3340  0.2483
  283loPI   C1A 4519   4.758  18.455   9.192  0.0086 -0.3586 -0.1839
  283loPI   C2A 4520   4.629  18.560   8.742 -0.2070  0.2298  0.2476
  283loPI   C3A 4521   4.530  18.684   8.311  0.5216 -0.0697 -0.2116
  283loPI   C4A 4522   4.696  18.780   7.810 -0.0110 -0.0650 -0.1445
  283loPI   C5A 4523   4.792  18.576   7.356 -0.1059 -0.0292 -0.1761
  283loPI   C6A 4524   4.935  18.192   7.288  0.3839  0.0550 -0.0942
  283loPI   C1B 4525   4.654  18.002   8.812  0.2423  0.0325  0.0708
  283loPI   C2B 4526   4.533  18.160   8.502 -0.1345  0.0046  0.0443
  283loPI   C3B 4527   4.641  18.254   8.100 -0.0907  0.1548 -0.1786
  283loPI   C4B 4528   4.593  18.114   7.664 -0.0145  0.0095  0.2814
  284loPI    C1 4529  15.271  15.423  10.298  0.0279  0.0557 -0.0710
  284loPI    C2 4530  15.039  15.509  10.612 -0.0319  0.0239 -0.1063
  284loPI    C3 4531  15.436  15.495  10.655 -0.0422 -0.0187 -0.0232
  284loPI   PO4 4532  15.147  15.587  10.005  0.1980 -0.0509 -0.2887
  284loPI   GL1 4533  15.097  15.750   9.614 -0.1476 -0.1374 -0.0043
  284loPI   GL2 4534  15.330  15.710   9.407  0.2235  0.0104 -0.1222
  284loPI   C1A 4535  14.931  15.943   9.213  0.1719 -0.3175 -0.2068
  284loPI   C2A 4536  14.778  16.123   8.773  0.2861 -0.0274  0.0001
  284loPI   C3A 4537  14.441  16.102   8.351  0.1883 -0.5196 -0.0058
  284loPI   C4A 4538  14.420  16.012   7.881  0.0689 -0.4071  0.1257
  284loPI   C5A 4539  14.481  16.172   7.579 -0.0256 -0.0799 -0.2849
  284loPI   C6A 4540  14.575  16.466   7.292 -0.1490 -0.1583 -0.0480
  284loPI   C1B 4541  15.276  15.430   9.180  0.3146  0.1526 -0.1273
  284loPI   C2B 4542  15.332  15.351   8.689  0.0886 -0.0032 -0.1639
  284loPI   C3B 4543  15.368  15.609   8.359  0.0520  0.0135  0.2578
  284loPI   C4B 4544  15.348  15.775   7.961 -0.2330  0.0637 -0.1315
  285loPI    C1 4545   8.953   4.227  10.519 -0.0610 -0.0250  0.1764
  285loPI    C2 4546   9.296   4.236  10.724  0.0240 -0.0414  0.0357
  285loPI    C3 4547   8.949   4.198  10.918  0.0602  0.4944  0.2229
  285loPI   PO4 4548   8.983   4.044  10.338 -0.1207  0.1546 -0.2055
  285loPI   GL1 4549   9.044   4.082   9.921  0.3927  0.0059 -0.0395
  285loPI   GL2 4550   9.207   4.316   9.936 -0.4597 -0.1305  0.0363
  285loPI   C1A 4551   9.037   4.074   9.487 -0.0142 -0.0335  0.1608
  285loPI   C2A 4552   8.792   3.990   9.180  0.0606  0.2096  0.0895
  285loPI   C3A 4553   8.525   4.071   8.820 -0.0402 -0.0920  0.3688
  285loPI   C4A 4554   8.650   4.290   8.523  0.1475 -0.1562  0.2156
  285loPI   C5A 4555   8.884   4.269   8.206  0.2209 -0.4780  0.2460
  285loPI   C6A 4556   8.942   3.865   8.023 -0.0410 -0.1425  0.0753
  285loPI   C1B 4557   9.405   4.453   9.526 -0.1309  0.0990  0.0541
  285loPI   C2B 4558   9.384   4.211   9.134 -0.1242  0.0879  0.1379
  285loPI   C3B 4559   9.142   4.088   8.821  0.0367  0.2204  0.0948
  285loPI   C4B 4560   8.955   3.739   8.801 -0.0877  0.3613  0.3483
  286loPI    C1 4561   3.051   6.164  10.795  0.0116 -0.0218 -0.0521
  286loPI    C2 4562   2.882   6.409  11.062 -0.0622  0.0306 -0.1462
  286loPI    C3 4563   2.905   6.017  11.138  0.1764  0.0822  0.0639
  286loPI   PO4 4564   2.935   6.313  10.589 -0.1358  0.0123 -0.1717
  286loPI   GL1 4565   2.781   6.262  10.072  0.1071  0.1768 -0.0084
  286loPI   GL2 4566   3.028   6.239  10.029 -0.2746 -0.3446  0.0125
  286loPI   C1A 4567   2.613   6.255   9.668  0.1754 -0.1929  0.1276
  286loPI   C2A 4568   2.626   6.107   9.178 -0.3975  0.1180  0.2552
  286loPI   C3A 4569   2.606   5.892   8.816 -0.0255  0.3140  0.0429
  286loPI   C4A 4570   2.909   5.637   8.514 -0.0186  0.1186  0.0916
  286loPI   C5A 4571   3.070   5.411   8.210  0.2219 -0.4234 -0.3085
  286loPI   C6A 4572   3.481   5.449   8.094  0.0142 -0.0650  0.0453
  286loPI   C1B 4573   3.043   6.096   9.522  0.2506 -0.0235  0.0515
  286loPI   C2B 4574   3.138   6.122   9.115  0.1364 -0.3481  0.1418
  286loPI   C3B 4575   3.009   6.179   8.635 -0.1192 -0.2000  0.3514
  286loPI   C4B 4576   3.236   6.411   8.286  0.1891 -0.1241  0.1469
  287loPI    C1 4577   6.203   2.239  10.279  0.0846 -0.1530 -0.0497
  287loPI    C2 4578   6.592   2.292  10.204  0.0651 -0.0112 -0.0528
  287loPI    C3 4579   6.377   2.588  10.367 -0.0735 -0.0388 -0.1836
  287loPI   PO4 4580   6.157   2.032  10.081 -0.0014  0.0454  0.2793
  287loPI   GL1 4581   6.221   1.933   9.606 -0.2303  0.1026  0.0561
  287loPI   GL2 4582   6.443   2.135   9.444  0.2585  0.1307 -0.2307
  287loPI   C1A 4583   6.112   1.795   9.164 -0.3696 -0.0750  0.0035
  287loPI   C2A 4584   6.275   1.578   8.801 -0.1787  0.0303  0.0827
  287loPI   C3A 4585   6.287   1.566   8.341 -0.2237 -0.1203 -0.0326
  287loPI   C4A 4586   6.519   1.810   8.026  0.0343  0.1390  0.0531
  287loPI   C5A 4587   6.689   2.146   7.904  0.0126  0.0708  0.1460
  287loPI   C6A 4588   6.782   2.178   7.459 -0.1704  0.2497  0.0333
  287loPI   C1B 4589   6.455   2.125   8.945 -0.2294 -0.0731 -0.1040
  287loPI   C2B 4590   6.583   1.950   8.588  0.2572 -0.2363 -0.1085
  287loPI   C3B 4591   6.765   1.502   8.475  0.2879  0.3645 -0.0132
  287loPI   C4B 4592   6.872   1.078   8.419  0.1748 -0.1498  0.2442
  288loPI    C1 4593  10.116   4.204  10.287 -0.1342  0.0645  0.1591
  288loPI    C2 4594  10.409   4.411  10.110  0.1090 -0.3092  0.1131
  288loPI    C3 4595  10.381   4.406  10.508  0.1608 -0.2661  0.1175
  288loPI   PO4 4596  10.117   3.934  10.165 -0.0931 -0.0281 -0.1122
  288loPI   GL1 4597  10.384   3.736   9.835 -0.0566  0.2206  0.2237
  288loPI   GL2 4598  10.238   3.832   9.650 -0.0219 -0.1272  0.1079
  288loPI   C1A 4599  10.704   4.043   9.726 -0.0484 -0.0504 -0.0872
  288loPI   C2A 4600  10.948   4.100   9.356  0.1009 -0.0887 -0.1266
  288loPI   C3A 4601  10.810   4.253   8.907 -0.1024 -0.2073  0.2006
  288loPI   C4A 4602  10.610   4.171   8.584  0.0094  0.1047 -0.1242
  288loPI   C5A 4603  10.592   4.298   8.152  0.1954 -0.1340  0.0889
  288loPI   C6A 4604  10.555   4.372   7.681  0.1871 -0.2172 -0.1190
  288loPI   C1B 4605  10.409   3.938   9.246  0.0752 -0.0570 -0.0415
  288loPI   C2B 4606  10.683   3.789   8.980  0.0567 -0.0048 -0.0923
  288loPI   C3B 4607  10.938   3.777   8.665  0.0910  0.1375 -0.0663
  288loPI   C4B 4608  10.850   3.765   8.249  0.3387 -0.0342 -0.1609
  289loPI    C1 4609   0.990  14.344  10.082 -0.3895  0.0355 -0.1280
  289loPI    C2 4610   0.904  13.971  10.197 -0.0266  0.0323  0.1519
  289loPI    C3 4611   1.237  14.150  10.330 -0.1215  0.4048 -0.0955
  289loPI   PO4 4612   0.935  14.380   9.811  0.2899  0.0945 -0.2408
  289loPI   GL1 4613   0.892  14.170   9.504 -0.1125 -0.1142 -0.0131
  289loPI   GL2 4614   0.638  14.499   9.407  0.0360  0.1551  0.0315
  289loPI   C1A 4615   0.887  14.276   9.067 -0.0267  0.2223  0.2970
  289loPI   C2A 4616   0.753  14.241   8.502  0.2975 -0.3910 -0.1034
  289loPI   C3A 4617   0.855  14.150   8.118  0.1515  0.1428  0.0127
  289loPI   C4A 4618   0.663  13.923   7.773 -0.0972 -0.1337  0.0972
  289loPI   C5A 4619   0.468  13.503   7.683  0.2843 -0.0400  0.0485
  289loPI   C6A 4620   0.510  13.092   7.889 -0.2082  0.2599  0.2000
  289loPI   C1B 4621   0.655  14.836   9.295  0.1144 -0.1768  0.1144
  289loPI   C2B 4622   0.869  15.146   9.038 -0.0689 -0.0528  0.1303
  289loPI   C3B 4623   0.711  15.077   8.562 -0.0295  0.0156 -0.2303
  289loPI   C4B 4624   0.649  14.728   8.313  0.3212  0.0235 -0.3951
  290loPI    C1 4625   3.651  16.418   9.906 -0.1129  0.3047  0.1140
  290loPI    C2 4626   3.269  16.322   9.836  0.0367 -0.1942 -0.0631
  290loPI    C3 4627   3.421  16.285  10.205 -0.0986  0.0651  0.0209
  290loPI   PO4 4628   3.739  16.267   9.649 -0.3357 -0.0834 -0.1627
  290loPI   GL1 4629   3.757  16.275   9.298 -0.4238 -0.1025 -0.0113
  290loPI   GL2 4630   3.843  16.614   9.257 -0.1060 -0.0724  0.0915
  290loPI   C1A 4631   3.884  16.153   8.869 -0.2295 -0.3831  0.2435
  290loPI   C2A 4632   3.682  16.228   8.531 -0.2139  0.0453 -0.0225
  290loPI   C3A 4633   3.324  16.236   8.265  0.0431 -0.0036 -0.0343
  290loPI   C4A 4634   2.871  16.235   8.237 -0.2505 -0.0561 -0.1068
  290loPI   C5A 4635   2.447  16.284   8.033 -0.0973  0.0574  0.1456
  290loPI   C6A 4636   2.057  16.116   8.065 -0.0372  0.1124  0.1812
  290loPI   C1B 4637   3.765  16.657   8.798 -0.0555  0.0532  0.2499
  290loPI   C2B 4638   3.743  16.714   8.408 -0.4858  0.0203 -0.1883
  290loPI   C3B 4639   3.689  16.505   7.955 -0.0390  0.0322 -0.1434
  290loPI   C4B 4640   3.499  16.582   7.550 -0.0310  0.0359  0.0374
  291loPI    C1 4641   9.193  10.945  10.144 -0.0555  0.0255  0.0935
  291loPI    C2 4642   9.285  10.563  10.070 -0.0277  0.0318  0.0954
  291loPI    C3 4643   8.903  10.669  10.125 -0.0806  0.0757 -0.3244
  291loPI   PO4 4644   9.152  11.088   9.921 -0.0083  0.1865 -0.3047
  291loPI   GL1 4645   8.999  11.146   9.442  0.1444  0.1513 -0.0282
  291loPI   GL2 4646   9.272  11.048   9.224 -0.2562 -0.0248 -0.1089
  291loPI   C1A 4647   8.962  11.336   8.940  0.0200 -0.2227  0.2495
  291loPI   C2A 4648   8.868  11.302   8.551  0.1195  0.3189 -0.1556
  291loPI   C3A 4649   8.996  11.358   8.168  0.1962  0.0535  0.0092
  291loPI   C4A 4650   8.983  11.365   7.726 -0.2493  0.1101  0.0112
  291loPI   C5A 4651   9.158  11.065   7.547  0.2707 -0.1750 -0.1973
  291loPI   C6A 4652   9.407  10.890   7.350 -0.0177  0.0112  0.0891
  291loPI   C1B 4653   9.341  11.059   8.773  0.2577  0.2653  0.0735
  291loPI   C2B 4654   9.332  10.924   8.301  0.2851  0.2417 -0.2062
  291loPI   C3B 4655   9.327  10.726   7.869 -0.1397  0.1415 -0.1119
  291loPI   C4B 4656   9.335  10.394   7.421 -0.1960  0.1784  0.0866
  292loPI    C1 4657  17.238   3.137  10.307  0.1163 -0.1732 -0.3347
  292loPI    C2 4658  16.991   2.983  10.582  0.0966 -0.0912 -0.3058
  292loPI    C3 4659  17.381   3.022  10.663  0.0300  0.2833 -0.1442
  292loPI   PO4 4660  16.968   3.111  10.097  0.2396 -0.1219 -0.1442
  292loPI   GL1 4661  16.821   3.145   9.781  0.2367  0.1325 -0.2382
  292loPI   GL2 4662  16.799   2.941   9.486  0.0389 -0.4595 -0.2019
  292loPI   C1A 4663  16.826   3.512   9.507  0.2304 -0.0208 -0.2760
  292loPI   C2A 4664  16.860   3.475   9.088 -0.0104  0.3735 -0.2445
  292loPI   C3A 4665  16.808   3.297   8.669  0.1199 -0.1053 -0.2230
  292loPI   C4A 4666  16.536   3.315   8.247 -0.0108  0.0312 -0.2114
  292loPI   C5A 4667  16.504   3.039   7.809 -0.2023  0.2729  0.1734
  292loPI   C6A 4668  16.512   3.052   7.385  0.0531  0.0460 -0.1554
  292loPI   C1B 4669  16.991   2.997   9.057 -0.1353 -0.1058  0.1517
  292loPI   C2B 4670  16.837   2.679   8.762 -0.0027 -0.0070  0.0612
  292loPI   C3B 4671  16.954   2.250   8.687  0.0937 -0.0606 -0.0662
  292loPI   C4B 4672  16.708   1.868   8.717 -0.1215  0.1575 -0.3955
  293loPI    C1 4673   9.496  11.698   9.994 -0.1549  0.0311  0.1800
  293loPI    C2 4674   9.267  11.484  10.242 -0.1080  0.2676  0.4326
  293loPI    C3 4675   9.624  11.615  10.364  0.1073  0.0180  0.0886
  293loPI   PO4 4676   9.505  11.526   9.754 -0.0279 -0.0372 -0.5177
  293loPI   GL1 4677   9.382  11.478   9.451 -0.0309 -0.0236 -0.0119
  293loPI   GL2 4678   9.135  11.667   9.422  0.1527 -0.4356  0.0173
  293loPI   C1A 4679   9.388  11.543   9.046  0.1666  0.3422  0.1211
  293loPI   C2A 4680   9.260  11.613   8.646 -0.1566 -0.1047 -0.0797
  293loPI   C3A 4681   9.423  11.528   8.263  0.3329  0.0582 -0.2704
  293loPI   C4A 4682   9.528  11.251   7.977 -0.0681 -0.0329  0.0705
  293loPI   C5A 4683   9.806  11.058   7.722 -0.1171  0.0530 -0.0585
  293loPI   C6A 4684  10.245  11.019   7.781  0.1757  0.2798  0.1596
  293loPI   C1B 4685   8.980  11.909   9.009  0.2040 -0.2329 -0.0140
  293loPI   C2B 4686   8.898  11.954   8.693  0.2547  0.2057 -0.0251
  293loPI   C3B 4687   8.961  11.858   8.283  0.0401  0.2299 -0.0492
  293loPI   C4B 4688   8.940  11.847   7.901  0.0043 -0.2571 -0.1470
  294loPI    C1 4689   2.364   1.739  10.418 -0.1497 -0.0432 -0.1724
  294loPI    C2 4690   1.977   1.649  10.373 -0.1119 -0.2179 -0.1538
  294loPI    C3 4691   2.257   1.397  10.240 -0.0036 -0.1823  0.0036
  294loPI   PO4 4692   2.433   2.056  10.315 -0.1139 -0.2119 -0.0184
  294loPI   GL1 4693   2.382   2.314   9.994 -0.2758  0.0316 -0.2012
  294loPI   GL2 4694   2.178   2.452   9.908  0.1709  0.2810  0.1058
  294loPI   C1A 4695   2.396   2.075   9.579 -0.1050  0.1064  0.1515
  294loPI   C2A 4696   2.157   2.157   9.193  0.1568 -0.1694  0.0120
  294loPI   C3A 4697   2.248   2.179   8.781 -0.4485  0.1251  0.0557
  294loPI   C4A 4698   2.331   2.110   8.305 -0.0112 -0.1585 -0.1549
  294loPI   C5A 4699   2.411   1.896   7.904  0.0649  0.0780  0.0445
  294loPI   C6A 4700   2.816   1.786   7.598 -0.1067 -0.0872 -0.0482
  294loPI   C1B 4701   2.018   2.546   9.531 -0.0383  0.1076  0.0471
  294loPI   C2B 4702   1.983   2.605   9.108 -0.0875  0.0105 -0.4309
  294loPI   C3B 4703   2.035   2.686   8.682 -0.0795 -0.0814 -0.3065
  294loPI   C4B 4704   2.016   2.830   8.231 -0.0410  0.0551 -0.3675
  295loPI    C1 4705  12.918  18.444  10.088  0.0886  0.2312  0.1580
  295loPI    C2 4706  13.019  18.324  10.456  0.0596 -0.1386  0.0492
  295loPI    C3 4707  12.663  18.223  10.303  0.0053  0.1504 -0.0212
  295loPI   PO4 4708  13.174  18.457   9.997 -0.0651  0.4175 -0.1663
  295loPI   GL1 4709  13.523  18.458   9.741  0.0398  0.1370  0.1088
  295loPI   GL2 4710  13.803  18.470   9.471  0.2616 -0.2257 -0.5309
  295loPI   C1A 4711  13.356  18.247   9.359 -0.0568  0.1074  0.2390
  295loPI   C2A 4712  13.462  18.109   8.960  0.3603 -0.3703  0.1788
  295loPI   C3A 4713  13.534  18.444   8.599  0.2177  0.1572  0.1762
  295loPI   C4A 4714  13.779  18.660   8.237  0.0785  0.3130 -0.1612
  295loPI   C5A 4715  13.746  18.792   7.815 -0.1190  0.1051  0.0963
  295loPI   C6A 4716  13.419  18.860   7.540  0.0043 -0.1742  0.0095
  295loPI   C1B 4717  13.519  18.698   9.311 -0.0204 -0.1065 -0.2803
  295loPI   C2B 4718  13.232  18.612   8.968 -0.3507  0.0683 -0.1236
  295loPI   C3B 4719  13.055  18.352   8.569  0.0228  0.1943  0.3100
  295loPI   C4B 4720  12.879  18.342   8.253  0.1946  0.0511  0.1675
  296loPI    C1 4721   0.140   0.323  10.276  0.0804 -0.2050  0.1973
  296loPI    C2 4722   0.201   0.409  10.662 -0.0384 -0.3935  0.2596
  296loPI    C3 4723  -0.104   0.577  10.465  0.2172 -0.0405  0.1550
  296loPI   PO4 4724   0.277   0.139  10.228  0.3751 -0.1001  0.0388
  296loPI   GL1 4725   0.441  -0.005   9.796 -0.0294  0.1856  0.1407
  296loPI   GL2 4726   0.539  -0.253   9.898  0.2118 -0.0581  0.1393
  296loPI   C1A 4727   0.624   0.123   9.395 -0.1890  0.0886 -0.2089
  296loPI   C2A 4728   0.538   0.302   9.004 -0.0630  0.1269  0.0091
  296loPI   C3A 4729   0.491   0.205   8.622  0.1699  0.3749  0.1099
  296loPI   C4A 4730   0.349   0.055   8.253  0.1257 -0.4415  0.3476
  296loPI   C5A 4731   0.443   0.003   7.800  0.1499  0.3437 -0.0853
  296loPI   C6A 4732   0.829  -0.124   7.685 -0.0603 -0.0538  0.2117
  296loPI   C1B 4733   0.614  -0.416   9.488 -0.0609  0.2792 -0.3493
  296loPI   C2B 4734   0.756  -0.190   9.032 -0.0170 -0.1046  0.0851
  296loPI   C3B 4735   0.828  -0.192   8.650  0.2852  0.1009  0.1256
  296loPI   C4B 4736   0.725  -0.324   8.322  0.2488 -0.4092 -0.3227
  297loPI    C1 4737   8.235  13.876  10.309  0.0452 -0.1530 -0.1561
  297loPI    C2 4738   8.334  13.511  10.440 -0.1740 -0.2278 -0.1947
  297loPI    C3 4739   7.977  13.573  10.270 -0.2819  0.0804  0.1315
  297loPI   PO4 4740   8.480  14.050  10.120  0.4879 -0.4023 -0.1491
  297loPI   GL1 4741   8.521  14.276   9.724  0.0073  0.2089 -0.0370
  297loPI   GL2 4742   8.288  14.241   9.572 -0.2564 -0.0544 -0.2046
  297loPI   C1A 4743   8.774  14.317   9.353  0.1318 -0.0793  0.2983
  297loPI   C2A 4744   8.787  14.399   8.846  0.1364 -0.0300 -0.2675
  297loPI   C3A 4745   8.697  14.331   8.429  0.3813 -0.1265  0.2257
  297loPI   C4A 4746   8.522  14.200   8.046 -0.1813  0.1794  0.2158
  297loPI   C5A 4747   8.266  14.126   7.795 -0.2856 -0.1269  0.1762
  297loPI   C6A 4748   7.853  14.266   7.487  0.1342  0.4770  0.0670
  297loPI   C1B 4749   8.355  14.272   9.065  0.2660 -0.2417 -0.0438
  297loPI   C2B 4750   8.280  14.249   8.645 -0.1455  0.0586  0.0973
  297loPI   C3B 4751   8.066  14.352   8.302  0.2358 -0.0239  0.2147
  297loPI   C4B 4752   7.821  14.254   7.999  0.0588 -0.2379 -0.2897
  298loPI    C1 4753   8.763  11.260  10.249 -0.0014 -0.1917 -0.3010
  298loPI    C2 4754   8.587  10.992  10.489  0.0235  0.0411 -0.0173
  298loPI    C3 4755   8.965  11.104  10.557  0.0822 -0.0037 -0.2596
  298loPI   PO4 4756   8.654  11.130   9.961 -0.0790 -0.0236 -0.2537
  298loPI   GL1 4757   8.714  10.852   9.680 -0.5710 -0.2213  0.1492
  298loPI   GL2 4758   9.039  10.619   9.639 -0.1249  0.0080  0.1162
  298loPI   C1A 4759   8.519  11.000   9.305  0.0417  0.4135  0.1023
  298loPI   C2A 4760   8.523  11.107   8.933 -0.0085  0.0112 -0.0702
  298loPI   C3A 4761   8.418  11.064   8.500 -0.4150 -0.0117  0.1266
  298loPI   C4A 4762   8.417  10.974   8.097 -0.1228 -0.0220  0.0815
  298loPI   C5A 4763   8.267  10.830   7.708  0.1493  0.1103 -0.1062
  298loPI   C6A 4764   8.116  10.462   7.426  0.0838 -0.1418  0.3183
  298loPI   C1B 4765   8.899  10.664   9.223  0.0276  0.1252  0.3150
  298loPI   C2B 4766   8.928  10.803   8.786 -0.0766  0.2221 -0.0174
  298loPI   C3B 4767   8.869  10.748   8.362  0.1482  0.1593 -0.0965
  298loPI   C4B 4768   8.886  10.898   7.965  0.0203  0.0883 -0.0117
  299loPI    C1 4769  13.588  18.725  10.155  0.1408  0.0432 -0.0630
  299loPI    C2 4770  13.925  18.675   9.944  0.1748 -0.0020  0.0018
  299loPI    C3 4771  13.943  18.730  10.340  0.1112  0.0832 -0.0069
  299loPI   PO4 4772  13.464  18.876  10.009  0.2073  0.0042 -0.0252
  299loPI   GL1 4773  13.337  19.045   9.692 -0.1959 -0.0930  0.1027
  299loPI   GL2 4774  13.532  19.198   9.553 -0.1489 -0.0131  0.1727
  299loPI   C1A 4775  12.924  19.307   9.517 -0.1727 -0.1196 -0.1782
  299loPI   C2A 4776  12.810  19.404   9.082 -0.2365  0.1074 -0.1356
  299loPI   C3A 4777  12.876  19.424   8.572  0.2564  0.2672  0.1283
  299loPI   C4A 4778  12.915  19.368   8.120  0.3483  0.1254  0.1457
  299loPI   C5A 4779  12.737  19.599   7.858  0.4397  0.2544  0.3309
  299loPI   C6A 4780  12.476  19.921   7.694  0.2451 -0.0614  0.0679
  299loPI   C1B 4781  13.274  19.212   9.180 -0.3655  0.0851 -0.0704
  299loPI   C2B 4782  13.348  19.339   8.813  0.1148  0.0598 -0.0580
  299loPI   C3B 4783  13.271  19.868   8.652 -0.1687 -0.1728  0.3599
  299loPI   C4B 4784  13.098  20.340   8.713  0.3242 -0.1716 -0.0897
  300loPI    C1 4785  16.376   5.506  10.295  0.1287 -0.1964 -0.3655
  300loPI    C2 4786  16.557   5.826  10.136  0.0020 -0.0262 -0.1725
  300loPI    C3 4787  16.405   5.845  10.506 -0.3188 -0.1981 -0.2918
  300loPI   PO4 4788  16.489   5.250  10.225  0.0072 -0.4345  0.1525
  300loPI   GL1 4789  16.543   4.933   9.860 -0.0198  0.0272  0.2619
  300loPI   GL2 4790  16.828   5.057   9.662 -0.1971 -0.1355 -0.0461
  300loPI   C1A 4791  16.482   4.722   9.528  0.3235 -0.2905  0.0535
  300loPI   C2A 4792  16.401   4.693   9.062 -0.0451  0.0225  0.0612
  300loPI   C3A 4793  16.294   4.400   8.817  0.2661 -0.0103  0.2355
  300loPI   C4A 4794  16.367   4.334   8.404  0.1392 -0.0102  0.0530
  300loPI   C5A 4795  16.236   4.095   8.070 -0.2674  0.0472 -0.2142
  300loPI   C6A 4796  15.945   4.081   7.744 -0.0790 -0.0248  0.2416
  300loPI   C1B 4797  16.955   4.975   9.192 -0.0578  0.1077  0.1342
  300loPI   C2B 4798  16.738   4.766   8.740  0.0103  0.0304 -0.0397
  300loPI   C3B 4799  16.778   4.712   8.283  0.1853  0.1080 -0.1756
  300loPI   C4B 4800  16.949   4.666   7.905 -0.1087 -0.0999  0.1404
  301loPI    C1 4801  11.983   9.107   9.895 -0.0087  0.0402 -0.0617
  301loPI    C2 4802  12.110   9.004  10.260  0.0036 -0.1460 -0.1174
  301loPI    C3 4803  11.761   9.194  10.216  0.1411  0.1442  0.0153
  301loPI   PO4 4804  12.191   9.231   9.797 -0.1044  0.1557  0.2221
  301loPI   GL1 4805  12.258   9.560   9.584  0.0603  0.0095 -0.0540
  301loPI   GL2 4806  12.531   9.595   9.454 -0.1847 -0.0200 -0.3039
  301loPI   C1A 4807  12.046   9.605   9.149 -0.1272  0.0343  0.2806
  301loPI   C2A 4808  12.002   9.710   8.850  0.0690  0.0323  0.1355
  301loPI   C3A 4809  11.839   9.663   8.440 -0.4129  0.1187 -0.0218
  301loPI   C4A 4810  11.836   9.626   8.032  0.0882 -0.1957  0.2462
  301loPI   C5A 4811  11.568   9.850   7.766  0.1504  0.0006 -0.4930
  301loPI   C6A 4812  11.488   9.893   7.332 -0.2086  0.0912 -0.1781
  301loPI   C1B 4813  12.542   9.833   9.114 -0.1132  0.0154  0.0272
  301loPI   C2B 4814  12.387  10.008   8.717  0.2859  0.3044 -0.1985
  301loPI   C3B 4815  12.047  10.139   8.461 -0.2833  0.3010  0.1175
  301loPI   C4B 4816  11.711  10.104   8.185  0.0762  0.1426  0.0848
  302loPI    C1 4817   7.212   9.331  10.217 -0.1932 -0.1048 -0.1127
  302loPI    C2 4818   7.061   9.051  10.460 -0.0093 -0.1312 -0.0275
  302loPI    C3 4819   7.433   9.188  10.518 -0.1274  0.1937 -0.0153
  302loPI   PO4 4820   7.187   9.258   9.963  0.0600  0.1253  0.3299
  302loPI   GL1 4821   7.335   9.137   9.594 -0.1785  0.2848 -0.0530
  302loPI   GL2 4822   7.237   9.432   9.446  0.2348 -0.4038  0.4123
  302loPI   C1A 4823   7.248   9.002   9.188  0.0001  0.1022 -0.2088
  302loPI   C2A 4824   7.073   9.031   8.813  0.1644  0.0930 -0.4007
  302loPI   C3A 4825   7.210   8.969   8.373 -0.3823  0.0717  0.1259
  302loPI   C4A 4826   7.416   8.779   8.064 -0.0214 -0.2616 -0.0628
  302loPI   C5A 4827   7.301   8.818   7.621  0.1376 -0.4479 -0.2474
  302loPI   C6A 4828   7.092   8.945   7.272 -0.0950  0.1041 -0.2236
  302loPI   C1B 4829   7.246   9.525   8.938  0.0594 -0.4089  0.0993
  302loPI   C2B 4830   7.164   9.450   8.582  0.1092  0.2023  0.2177
  302loPI   C3B 4831   7.042   9.424   8.161 -0.0117  0.2716 -0.1028
  302loPI   C4B 4832   7.309   9.277   7.830  0.1248 -0.1694  0.0873
  303loPI    C1 4833   7.810  15.117  10.228 -0.0416  0.0053  0.0140
  303loPI    C2 4834   7.832  15.137  10.627  0.0843 -0.0148  0.0083
  303loPI    C3 4835   8.152  15.225  10.404 -0.1163  0.4592 -0.1051
  303loPI   PO4 4836   7.637  14.936  10.211  0.2142  0.0326  0.0517
  303loPI   GL1 4837   7.762  14.663   9.870  0.2380  0.0145  0.1680
  303loPI   GL2 4838   7.835  14.301   9.725 -0.3360  0.3075 -0.0269
  303loPI   C1A 4839   7.494  14.780   9.542  0.1558  0.2543  0.1683
  303loPI   C2A 4840   7.534  14.814   9.123 -0.2905  0.4685 -0.0592
  303loPI   C3A 4841   7.433  14.699   8.697  0.1631  0.1923  0.1701
  303loPI   C4A 4842   7.528  14.537   8.289 -0.1091 -0.3464  0.1378
  303loPI   C5A 4843   7.403  14.692   7.909 -0.2416  0.0892 -0.0967
  303loPI   C6A 4844   7.340  14.688   7.495  0.2941  0.0459 -0.1493
  303loPI   C1B 4845   7.874  14.419   9.281 -0.2134 -0.2587  0.0284
  303loPI   C2B 4846   7.789  14.407   8.847  0.1403 -0.0208 -0.1394
  303loPI   C3B 4847   7.940  14.700   8.573  0.1523 -0.0043 -0.3723
  303loPI   C4B 4848   7.885  14.864   8.169 -0.0930  0.0164 -0.1746
  304loPI    C1 4849   0.871  13.443  10.780 -0.2602  0.2386 -0.1661
  304loPI    C2 4850   0.568  13.446  11.041  0.2248 -0.2776  0.4367
  304loPI    C3 4851   0.892  13.670  11.108  0.0611  0.1523 -0.1238
  304loPI   PO4 4852   0.700  13.515  10.481  0.1253  0.0734 -0.3906
  304loPI   GL1 4853   0.785  13.440  10.008  0.1794  0.4763  0.0788
  304loPI   GL2 4854   0.811  13.170   9.861 -0.2460  0.2948  0.2799
  304loPI   C1A 4855   0.744  13.748   9.750  0.1181  0.3441  0.0003
  304loPI   C2A 4856   0.691  13.724   9.233  0.0010 -0.0991  0.1632
  304loPI   C3A 4857   0.829  13.814   8.836 -0.2876 -0.1457 -0.2029
  304loPI   C4A 4858   1.134  13.798   8.507  0.0220 -0.1244  0.0307
  304loPI   C5A 4859   1.319  13.821   8.118 -0.1442 -0.1118  0.0493
  304loPI   C6A 4860   1.616  13.823   7.798 -0.1446 -0.1006  0.1943
  304loPI   C1B 4861   0.937  13.275   9.457  0.2127  0.2112 -0.1439
  304loPI   C2B 4862   0.902  13.281   9.036 -0.0323 -0.1187 -0.1525
  304loPI   C3B 4863   0.825  13.260   8.616  0.0309  0.0501  0.1604
  304loPI   C4B 4864   0.443  13.287   8.361  0.2280  0.0766 -0.0337
  305loPI    C1 4865  17.879  13.146  10.491  0.0162 -0.1259  0.1950
  305loPI    C2 4866  17.556  12.916  10.542 -0.0934  0.0329  0.2246
  305loPI    C3 4867  17.913  12.748  10.479 -0.1979 -0.1428  0.0909
  305loPI   PO4 4868  17.938  13.306  10.323 -0.0754 -0.0646 -0.4604
  305loPI   GL1 4869  17.860  13.461   9.950  0.2576  0.0910  0.0528
  305loPI   GL2 4870  17.597  13.323   9.785 -0.0678 -0.0526  0.1024
  305loPI   C1A 4871  18.119  13.259   9.611 -0.0419 -0.0487 -0.2395
  305loPI   C2A 4872  18.191  13.215   9.107  0.4391 -0.1410  0.3220
  305loPI   C3A 4873  18.337  13.198   8.667 -0.1521  0.0007 -0.0372
  305loPI   C4A 4874  18.324  13.339   8.231  0.0791  0.1352  0.1921
  305loPI   C5A 4875  18.406  13.656   7.866 -0.2157  0.1100  0.0815
  305loPI   C6A 4876  18.223  14.040   7.882 -0.1224  0.0554 -0.0037
  305loPI   C1B 4877  17.709  13.256   9.299  0.2497  0.2302 -0.0511
  305loPI   C2B 4878  17.735  13.379   8.879  0.3085 -0.0111  0.0171
  305loPI   C3B 4879  17.909  13.333   8.470  0.1968 -0.0678 -0.0643
  305loPI   C4B 4880  17.984  13.606   8.054 -0.0926  0.1338 -0.0260
  306loPI    C1 4881   0.806  16.384   9.835  0.2589  0.0548  0.0420
  306loPI    C2 4882   0.583  16.442  10.161  0.1203  0.1092 -0.0617
  306loPI    C3 4883   0.736  16.081  10.087 -0.1456  0.0061 -0.1208
  306loPI   PO4 4884   0.986  16.574   9.819 -0.3100 -0.1357 -0.0542
  306loPI   GL1 4885   1.190  16.820   9.422 -0.1575  0.0510 -0.2846
  306loPI   GL2 4886   1.404  16.544   9.500  0.3772 -0.1449 -0.1825
  306loPI   C1A 4887   0.887  16.622   9.141 -0.2290 -0.0591 -0.2273
  306loPI   C2A 4888   0.949  16.561   8.776  0.0190 -0.3698  0.2879
  306loPI   C3A 4889   1.065  16.549   8.365  0.1165 -0.2558  0.2527
  306loPI   C4A 4890   1.176  16.719   7.960 -0.1813 -0.4259 -0.1456
  306loPI   C5A 4891   1.167  16.571   7.497 -0.0024 -0.0763 -0.3127
  306loPI   C6A 4892   0.971  16.379   7.311 -0.1417  0.0451 -0.0006
  306loPI   C1B 4893   1.603  16.463   9.070  0.0063  0.1550  0.3883
  306loPI   C2B 4894   1.498  16.569   8.614  0.0111 -0.1523 -0.0597
  306loPI   C3B 4895   1.560  16.562   8.229  0.1190 -0.1748 -0.0314
  306loPI   C4B 4896   1.562  16.368   7.780  0.2699 -0.0941 -0.3249
  307loPI    C1 4897   7.361   5.788  10.219 -0.0409 -0.1382 -0.0050
  307loPI    C2 4898   7.284   6.004  10.547 -0.2487  0.3530 -0.3653
  307loPI    C3 4899   7.014   5.742  10.412 -0.0866  0.0141 -0.0496
  307loPI   PO4 4900   7.436   5.949  10.078  0.1782 -0.2485 -0.3761
  307loPI   GL1 4901   7.303   6.250   9.832  0.0450 -0.0621  0.0367
  307loPI   GL2 4902   7.607   6.121   9.659  0.0912 -0.0422 -0.0357
  307loPI   C1A 4903   7.006   6.217   9.513 -0.0219  0.1269  0.2097
  307loPI   C2A 4904   7.027   6.228   9.138 -0.0290  0.0515  0.0553
  307loPI   C3A 4905   7.087   6.168   8.760  0.0652 -0.4042 -0.1486
  307loPI   C4A 4906   6.906   6.201   8.432 -0.1303 -0.6103 -0.2227
  307loPI   C5A 4907   6.861   6.251   8.036 -0.0413  0.1804  0.0276
  307loPI   C6A 4908   6.657   6.252   7.632 -0.0789 -0.2739 -0.0799
  307loPI   C1B 4909   7.509   6.243   9.206  0.0849  0.2900 -0.3396
  307loPI   C2B 4910   7.573   6.259   8.806  0.0270  0.0028  0.2504
  307loPI   C3B 4911   7.397   6.320   8.395 -0.0138 -0.4789 -0.1580
  307loPI   C4B 4912   7.312   6.225   7.929  0.4423  0.2375  0.0841
  308loPI    C1 4913   6.282  14.467  10.431  0.1240  0.1122 -0.0175
  308loPI    C2 4914   6.032  14.778  10.404  0.0630  0.0385 -0.3370
  308loPI    C3 4915   6.048  14.563  10.741 -0.0988  0.2155 -0.2147
  308loPI   PO4 4916   6.263  14.416  10.142 -0.1922  0.1184  0.0378
  308loPI   GL1 4917   6.416  14.633   9.757 -0.0827 -0.2331  0.0463
  308loPI   GL2 4918   6.162  14.712   9.476 -0.0665  0.1823  0.0453
  308loPI   C1A 4919   6.589  14.436   9.426  0.2038  0.2430  0.3535
  308loPI   C2A 4920   6.655  14.458   8.905  0.0054 -0.1206 -0.2874
  308loPI   C3A 4921   6.678  14.527   8.487  0.1725 -0.0836  0.0177
  308loPI   C4A 4922   6.459  14.340   8.133 -0.1886 -0.0321  0.0673
  308loPI   C5A 4923   6.261  14.327   7.747 -0.2013 -0.0216  0.5330
  308loPI   C6A 4924   6.244  14.218   7.363 -0.2448 -0.4975 -0.2244
  308loPI   C1B 4925   6.193  14.552   9.018 -0.4349  0.3063  0.1802
  308loPI   C2B 4926   6.195  14.474   8.601 -0.0120  0.2177 -0.1484
  308loPI   C3B 4927   5.998  14.615   8.191 -0.1819 -0.1183 -0.0392
  308loPI   C4B 4928   5.969  14.807   7.828  0.1074 -0.2508 -0.0133
  309loPI    C1 4929   5.608   7.609  10.382 -0.0841 -0.1333  0.1067
  309loPI    C2 4930   5.899   7.349  10.472  0.1305  0.0217 -0.1295
  309loPI    C3 4931   5.759   7.598  10.752  0.0763 -0.1969  0.0400
  309loPI   PO4 4932   5.617   7.774  10.184 -0.2755 -0.2526  0.2497
  309loPI   GL1 4933   5.333   8.013   9.880 -0.1686  0.2657  0.0242
  309loPI   GL2 4934   5.592   8.236   9.777  0.1890 -0.2618 -0.1462
  309loPI   C1A 4935   5.234   7.959   9.420  0.0287 -0.0742 -0.0233
  309loPI   C2A 4936   5.330   8.062   8.987  0.1738 -0.0533  0.1342
  309loPI   C3A 4937   5.618   8.223   8.620 -0.0190  0.3551  0.1046
  309loPI   C4A 4938   5.867   8.271   8.186 -0.4036  0.0857 -0.2109
  309loPI   C5A 4939   5.982   8.612   7.967  0.1777  0.0258 -0.2974
  309loPI   C6A 4940   6.285   9.012   7.900  0.2059 -0.1390  0.0970
  309loPI   C1B 4941   5.663   8.203   9.369 -0.0606  0.3508  0.2748
  309loPI   C2B 4942   5.546   8.573   9.074 -0.2296 -0.3311  0.1941
  309loPI   C3B 4943   5.545   8.727   8.755 -0.2706  0.1667 -0.0413
  309loPI   C4B 4944   5.737   8.784   8.416 -0.3708  0.2185 -0.2734
  310loPI    C1 4945  17.348   8.069  10.568  0.2491 -0.1334 -0.2614
  310loPI    C2 4946  17.712   8.161  10.705  0.0450  0.2239  0.0591
  310loPI    C3 4947  17.442   7.997  10.950 -0.0420  0.0472 -0.1521
  310loPI   PO4 4948  17.462   7.971  10.292 -0.0025  0.0537  0.0432
  310loPI   GL1 4949  17.238   8.185   9.983 -0.0529  0.0663  0.0180
  310loPI   GL2 4950  17.578   8.046   9.847 -0.1532 -0.0095  0.2459
  310loPI   C1A 4951  17.294   8.526   9.618  0.1709  0.2135  0.0166
  310loPI   C2A 4952  17.307   8.610   9.143  0.1577  0.0631  0.0450
  310loPI   C3A 4953  17.243   8.611   8.714 -0.0568 -0.0493  0.1737
  310loPI   C4A 4954  16.999   8.507   8.308 -0.0547  0.0327  0.0302
  310loPI   C5A 4955  16.992   8.601   7.880  0.0530 -0.0784 -0.0650
  310loPI   C6A 4956  17.391   8.533   7.744 -0.0144 -0.4925 -0.3334
  310loPI   C1B 4957  17.461   8.011   9.343  0.2307  0.1670 -0.0491
  310loPI   C2B 4958  17.357   8.164   8.914 -0.3561  0.0714  0.0859
  310loPI   C3B 4959  17.377   8.208   8.449  0.0103  0.0808 -0.2902
  310loPI   C4B 4960  17.334   8.103   8.060 -0.2098 -0.5382  0.0807
  311loPI    C1 4961   3.468   9.415  10.187 -0.2894  0.0452  0.2210
  311loPI    C2 4962   3.868   9.397  10.202 -0.2746  0.2469  0.1039
  311loPI    C3 4963   3.649   9.212  10.481 -0.1087 -0.1851 -0.0436
  311loPI   PO4 4964   3.472   9.714  10.208 -0.1009 -0.0205  0.0716
  311loPI   GL1 4965   3.172  10.047   9.996  0.2560 -0.0052  0.3573
  311loPI   GL2 4966   3.068   9.695   9.930  0.0125 -0.3196 -0.2483
  311loPI   C1A 4967   3.220  10.186   9.688 -0.0749  0.0279  0.2022
  311loPI   C2A 4968   3.201  10.152   9.178  0.0055  0.2860 -0.1138
  311loPI   C3A 4969   2.970  10.268   8.879  0.0923  0.0246  0.2817
  311loPI   C4A 4970   2.630  10.352   8.660 -0.0397  0.0171  0.0774
  311loPI   C5A 4971   2.540  10.727   8.307  0.1535 -0.2298 -0.3622
  311loPI   C6A 4972   2.352  10.772   7.940  0.0676  0.0497  0.0591
  311loPI   C1B 4973   3.174   9.695   9.544 -0.1413  0.1316 -0.0752
  311loPI   C2B 4974   3.450   9.685   9.235 -0.2039 -0.0261  0.1769
  311loPI   C3B 4975   3.302   9.749   8.885  0.1139  0.0542 -0.0930
  311loPI   C4B 4976   3.250   9.593   8.441  0.0043 -0.2350 -0.3537
  312loPI    C1 4977   4.983  17.198  10.187 -0.0910  0.1891  0.2396
  312loPI    C2 4978   4.913  16.838  10.026 -0.3321  0.3665 -0.0639
  312loPI    C3 4979   4.707  16.956  10.348  0.1851 -0.0085  0.4241
  312loPI   PO4 4980   4.956  17.424   9.903 -0.3301  0.3049 -0.0948
  312loPI   GL1 4981   5.042  17.577   9.445 -0.0014  0.0211 -0.2336
  312loPI   GL2 4982   5.359  17.539   9.562  0.3093 -0.0318  0.0345
  312loPI   C1A 4983   5.122  17.695   8.980 -0.1645  0.1263  0.1240
  312loPI   C2A 4984   5.142  17.855   8.611 -0.3857  0.0499 -0.0611
  312loPI   C3A 4985   5.245  18.017   8.184 -0.0592 -0.1002 -0.0166
  312loPI   C4A 4986   5.194  18.154   7.785 -0.0411 -0.1112 -0.0728
  312loPI   C5A 4987   5.216  18.464   7.556  0.2233  0.0434 -0.4525
  312loPI   C6A 4988   5.128  18.840   7.656 -0.0796 -0.3000  0.2485
  312loPI   C1B 4989   5.507  17.473   9.160  0.1169  0.2510 -0.1739
  312loPI   C2B 4990   5.571  17.552   8.725  0.2660  0.0991 -0.2093
  312loPI   C3B 4991   5.669  17.687   8.298  0.0111  0.0586 -0.2455
  312loPI   C4B 4992   5.869  17.607   7.949  0.0939  0.1705 -0.0317
  313loPI    C1 4993   9.437   0.661  10.324  0.1753  0.0974  0.0654
  313loPI    C2 4994   9.228   0.367  10.497 -0.0669  0.0296 -0.3295
  313loPI    C3 4995   9.053   0.718  10.422  0.2337  0.3014  0.1810
  313loPI   PO4 4996   9.650   0.556  10.199 -0.1520 -0.2785 -0.0514
  313loPI   GL1 4997   9.566   0.460   9.773 -0.0077 -0.0657 -0.1728
  313loPI   GL2 4998   9.656   0.140   9.868 -0.1386 -0.2314  0.1786
  313loPI   C1A 4999   9.726   0.811   9.540 -0.1324 -0.1702 -0.2051
  313loPI   C2A 5000   9.955   1.029   9.143 -0.0128 -0.2346  0.3066
  313loPI   C3A 5001   9.955   1.361   8.706 -0.3316 -0.1171  0.4415
  313loPI   C4A 5002  10.019   1.478   8.327 -0.3404  0.1006 -0.1051
  313loPI   C5A 5003  10.106   1.603   7.810  0.2560  0.0956 -0.2491
  313loPI   C6A 5004  10.131   1.746   7.371 -0.0622 -0.1219 -0.0377
  313loPI   C1B 5005   9.805   0.284   9.377 -0.3074 -0.3340 -0.2848
  313loPI   C2B 5006  10.027   0.474   8.996  0.3266 -0.1086 -0.1388
  313loPI   C3B 5007  10.179   0.472   8.518 -0.1581  0.0286 -0.2046
  313loPI   C4B 5008  10.126   0.490   8.033  0.1753  0.0853  0.0228
  314loPI    C1 5009   6.735   4.505  10.192 -0.1075  0.0840 -0.0108
  314loPI    C2 5010   6.897   4.837  10.345 -0.0313  0.0245  0.0378
  314loPI    C3 5011   6.955   4.484  10.525  0.0687 -0.0477 -0.1340
  314loPI   PO4 5012   6.682   4.532   9.917  0.0182 -0.3126  0.1314
  314loPI   GL1 5013   6.740   4.853   9.584  0.0297 -0.3374  0.0278
  314loPI   GL2 5014   6.967   4.610   9.525  0.3018  0.2215 -0.0769
  314loPI   C1A 5015   6.814   4.916   9.117  0.0009 -0.2330 -0.0437
  314loPI   C2A 5016   6.668   4.943   8.717  0.0645 -0.1251  0.2418
  314loPI   C3A 5017   6.743   4.774   8.392 -0.2955 -0.2052  0.0933
  314loPI   C4A 5018   6.590   4.854   7.995 -0.0469  0.0663  0.0839
  314loPI   C5A 5019   6.360   5.045   7.656 -0.1400 -0.1917 -0.1644
  314loPI   C6A 5020   6.495   5.227   7.429 -0.1912 -0.1581 -0.0715
  314loPI   C1B 5021   7.382   4.750   9.280  0.1476  0.0135  0.1236
  314loPI   C2B 5022   7.537   4.667   8.970  0.1126 -0.0912 -0.0372
  314loPI   C3B 5023   7.725   4.786   8.553  0.1808  0.2694 -0.2047
  314loPI   C4B 5024   7.795   4.786   8.152  0.0063 -0.0621  0.1384
  315loPI    C1 5025  10.315   7.756  10.559 -0.0806 -0.2102  0.0554
  315loPI    C2 5026  10.320   7.716  10.957  0.1084  0.1183  0.0901
  315loPI    C3 5027  10.207   8.062  10.793 -0.2851 -0.1189 -0.1553
  315loPI   PO4 5028  10.460   7.575  10.450  0.0118  0.3069 -0.1971
  315loPI   GL1 5029  10.634   7.519  10.102 -0.0965 -0.0637 -0.2327
  315loPI   GL2 5030  10.965   7.558   9.977 -0.0000  0.2447 -0.0797
  315loPI   C1A 5031  10.635   7.709   9.640 -0.0580 -0.3173 -0.1292
  315loPI   C2A 5032  10.878   7.508   9.349 -0.0089 -0.1276  0.0286
  315loPI   C3A 5033  10.899   7.282   8.920 -0.2069  0.0905 -0.0313
  315loPI   C4A 5034  10.724   7.057   8.635  0.1107 -0.1591 -0.4195
  315loPI   C5A 5035  10.605   7.137   8.216  0.1195  0.0595  0.2094
  315loPI   C6A 5036  10.796   6.902   7.873 -0.0011  0.0081  0.1159
  315loPI   C1B 5037  11.190   7.408   9.741  0.3391  0.2490  0.2184
  315loPI   C2B 5038  11.404   7.365   9.346  0.0742  0.0134  0.0501
  315loPI   C3B 5039  11.684   7.351   9.056 -0.2250 -0.2075 -0.5848
  315loPI   C4B 5040  11.871   7.339   8.561  0.0809  0.0982  0.0555
  316loPI    C1 5041   1.420   1.507  10.827  0.1492  0.0007  0.1168
  316loPI    C2 5042   1.622   1.256  11.065 -0.0868 -0.2164  0.0928
  316loPI    C3 5043   1.243   1.176  10.965 -0.1889  0.1860  0.1377
  316loPI   PO4 5044   1.512   1.518  10.562  0.1540  0.1484  0.1074
  316loPI   GL1 5045   1.553   1.765  10.087 -0.0848  0.0040  0.2121
  316loPI   GL2 5046   1.347   1.492  10.019 -0.1007 -0.0746  0.1677
  316loPI   C1A 5047   1.789   1.471   9.785 -0.1143  0.1569 -0.1135
  316loPI   C2A 5048   1.856   1.321   9.481 -0.0162 -0.2617  0.0760
  316loPI   C3A 5049   1.606   1.429   9.020  0.0037  0.0321 -0.0290
  316loPI   C4A 5050   1.547   1.625   8.680 -0.0581 -0.1489  0.0170
  316loPI   C5A 5051   1.394   1.965   8.429  0.0638 -0.0327 -0.2432
  316loPI   C6A 5052   1.426   2.146   8.085 -0.1116 -0.1213  0.2980
  316loPI   C1B 5053   1.355   1.555   9.569 -0.0342 -0.2335  0.2823
  316loPI   C2B 5054   1.291   1.795   9.261  0.1327  0.0022  0.1940
  316loPI   C3B 5055   1.214   1.937   8.895 -0.1965  0.0398 -0.2236
  316loPI   C4B 5056   1.198   2.275   8.779  0.0279 -0.3824 -0.1556
  317loPI    C1 5057   4.112   4.229  10.299  0.0618  0.0077 -0.0307
  317loPI    C2 5058   4.209   4.569  10.486  0.1426 -0.0327  0.0015
  317loPI    C3 5059   4.350   4.220  10.620  0.1715 -0.0656 -0.1132
  317loPI   PO4 5060   4.103   4.337  10.011 -0.1107 -0.0977 -0.0602
  317loPI   GL1 5061   4.093   4.277   9.689  0.0964 -0.0392  0.4246
  317loPI   GL2 5062   3.931   4.039   9.619 -0.0080 -0.0950 -0.0372
  317loPI   C1A 5063   4.365   4.363   9.359  0.1369  0.2349  0.1649
  317loPI   C2A 5064   4.365   4.063   9.060 -0.1510 -0.0299 -0.0560
  317loPI   C3A 5065   4.657   4.092   8.711 -0.1549  0.0291  0.0524
  317loPI   C4A 5066   4.959   3.889   8.409 -0.0516  0.1847  0.0907
  317loPI   C5A 5067   5.197   3.639   8.153  0.0046  0.1884  0.0397
  317loPI   C6A 5068   5.392   3.280   7.875  0.4078  0.3409  0.4245
  317loPI   C1B 5069   3.547   4.025   9.375 -0.2626 -0.1111  0.2383
  317loPI   C2B 5070   3.335   4.257   9.048 -0.2271  0.0347 -0.2338
  317loPI   C3B 5071   3.448   4.303   8.637 -0.1968  0.2529  0.0723
  317loPI   C4B 5072   3.264   4.372   8.201  0.1674  0.1301  0.0421
  318loPI    C1 5073   7.664  10.549  10.108 -0.1063 -0.2364  0.1493
  318loPI    C2 5074   7.971  10.315  10.212  0.1011  0.0106  0.1037
  318loPI    C3 5075   7.957  10.694  10.340  0.0208  0.1207 -0.2220
  318loPI   PO4 5076   7.617  10.473   9.871 -0.2005  0.2002  0.0145
  318loPI   GL1 5077   7.545  10.325   9.529 -0.0412 -0.0652 -0.0952
  318loPI   GL2 5078   7.683   9.998   9.544  0.1670  0.2012 -0.1007
  318loPI   C1A 5079   7.236  10.321   9.213  0.1242  0.1807  0.4767
  318loPI   C2A 5080   7.081  10.333   8.783  0.1214 -0.2626 -0.1388
  318loPI   C3A 5081   6.897  10.255   8.396 -0.0160 -0.2800 -0.2981
  318loPI   C4A 5082   6.720  10.385   8.035 -0.0519 -0.1197  0.0200
  318loPI   C5A 5083   6.936  10.587   7.736  0.3520 -0.1234  0.0476
  318loPI   C6A 5084   7.274  10.282   7.554  0.0906  0.3013 -0.1711
  318loPI   C1B 5085   7.634   9.839   9.144 -0.0878  0.1782 -0.0627
  318loPI   C2B 5086   7.471   9.969   8.866  0.0736  0.0413 -0.0497
  318loPI   C3B 5087   7.287  10.004   8.484 -0.1275 -0.1997  0.0671
  318loPI   C4B 5088   7.152   9.923   8.056 -0.2294  0.1493 -0.1496
  319loPI    C1 5089  10.387   6.482  10.661 -0.1205 -0.1198 -0.2408
  319loPI    C2 5090  10.038   6.350  10.805 -0.0327 -0.2785 -0.1703
  319loPI    C3 5091  10.252   6.615  11.014  0.0030 -0.3630 -0.0990
  319loPI   PO4 5092  10.274   6.440  10.386 -0.3406  0.4535  0.1301
  319loPI   GL1 5093  10.227   6.405   9.984  0.3183 -0.2642 -0.2350
  319loPI   GL2 5094  10.302   6.045   9.994  0.0591 -0.0316 -0.3104
  319loPI   C1A 5095  10.263   6.439   9.563  0.0725  0.1096 -0.1374
  319loPI   C2A 5096  10.201   6.735   9.271 -0.2117  0.0487  0.1549
  319loPI   C3A 5097  10.339   7.041   8.930 -0.2768 -0.1295 -0.0626
  319loPI   C4A 5098  10.198   7.321   8.579  0.0483  0.0168  0.0918
  319loPI   C5A 5099  10.129   7.260   8.097  0.0706 -0.0174  0.0670
  319loPI   C6A 5100  10.362   7.251   7.709 -0.0567  0.2476 -0.1831
  319loPI   C1B 5101  10.312   5.929   9.546  0.2134  0.0055 -0.0569
  319loPI   C2B 5102  10.396   5.895   9.113  0.0769 -0.1298  0.0831
  319loPI   C3B 5103  10.503   6.381   9.024  0.0286 -0.0418 -0.0303
  319loPI   C4B 5104  10.719   6.744   9.035 -0.0341  0.0459 -0.1487
  320loPI    C1 5105   8.752   4.938  10.668 -0.0633 -0.2455 -0.0033
  320loPI    C2 5106   8.377   4.848  10.776 -0.1133 -0.1167 -0.0668
  320loPI    C3 5107   8.499   5.229  10.774  0.0227 -0.1593 -0.0330
  320loPI   PO4 5108   8.764   4.687  10.440  0.1064 -0.2334 -0.1206
  320loPI   GL1 5109   8.759   4.514  10.132 -0.0019  0.1258 -0.0338
  320loPI   GL2 5110   8.665   4.649   9.917  0.0484  0.0223  0.1558
  320loPI   C1A 5111   8.542   4.129   9.834  0.1278 -0.6425 -0.2608
  320loPI   C2A 5112   8.409   3.976   9.470 -0.0820  0.0225  0.1865
  320loPI   C3A 5113   8.201   3.811   9.129 -0.1605 -0.2741 -0.0725
  320loPI   C4A 5114   8.065   3.882   8.728  0.2063  0.2042 -0.0255
  320loPI   C5A 5115   8.156   4.129   8.468 -0.1933  0.1811 -0.0623
  320loPI   C6A 5116   8.046   4.290   8.144  0.3361 -0.0097  0.1826
  320loPI   C1B 5117   8.818   4.486   9.580  0.0928  0.0307  0.1982
  320loPI   C2B 5118   8.949   4.486   9.168  0.2986  0.0459 -0.3511
  320loPI   C3B 5119   9.250   4.630   8.920  0.1644 -0.2162 -0.1296
  320loPI   C4B 5120   9.547   4.694   9.060 -0.0402  0.4681 -0.1235
  321loPI    C1 5121  10.332   4.932  10.690 -0.2291 -0.1626  0.1761
  321loPI    C2 5122  10.104   5.164  10.457  0.0388 -0.1286 -0.0583
  321loPI    C3 5123   9.998   5.096  10.837 -0.1815  0.1600 -0.0646
  321loPI   PO4 5124  10.586   4.964  10.502  0.4716  0.1122 -0.2149
  321loPI   GL1 5125  10.566   4.889  10.013 -0.4455  0.1573  0.1077
  321loPI   GL2 5126  10.879   4.960   9.837  0.0922 -0.4335  0.0762
  321loPI   C1A 5127  10.337   4.709   9.689 -0.1870  0.3013 -0.0788
  321loPI   C2A 5128   9.974   4.689   9.320  0.0501 -0.3881  0.0095
  321loPI   C3A 5129   9.988   4.885   9.000 -0.0685  0.4618  0.3189
  321loPI   C4A 5130   9.867   4.717   8.617 -0.0401  0.3225  0.2499
  321loPI   C5A 5131   9.752   4.612   8.165  0.0626 -0.0713  0.0027
  321loPI   C6A 5132   9.847   4.678   7.688 -0.0155 -0.0037 -0.0774
  321loPI   C1B 5133  10.711   5.009   9.510 -0.0513 -0.1978 -0.2774
  321loPI   C2B 5134  10.488   4.867   9.145 -0.1192 -0.0561  0.1198
  321loPI   C3B 5135  10.350   4.884   8.600 -0.0040 -0.0671 -0.0240
  321loPI   C4B 5136  10.273   4.720   8.142 -0.0856 -0.0285  0.2072
  322loPI    C1 5137   5.873  12.345   9.923 -0.0894  0.0724  0.0107
  322loPI    C2 5138   5.996  12.050  10.163 -0.0188  0.0047 -0.1079
  322loPI    C3 5139   5.675  12.267  10.261 -0.0519 -0.0905 -0.0042
  322loPI   PO4 5140   5.863  12.404   9.729 -0.1357 -0.2610 -0.4367
  322loPI   GL1 5141   5.915  12.849   9.574  0.2661 -0.2689 -0.1646
  322loPI   GL2 5142   5.946  13.200   9.619 -0.2456  0.2570 -0.3201
  322loPI   C1A 5143   5.884  12.786   9.131 -0.0322 -0.0324  0.0173
  322loPI   C2A 5144   5.945  12.382   8.964  0.0292 -0.1758 -0.0464
  322loPI   C3A 5145   5.798  12.223   8.567  0.1453 -0.1187  0.0188
  322loPI   C4A 5146   5.872  12.281   8.195  0.0522 -0.1324  0.2754
  322loPI   C5A 5147   6.059  12.408   7.818  0.1065 -0.1289 -0.0680
  322loPI   C6A 5148   5.983  12.615   7.399  0.3199 -0.1428 -0.0968
  322loPI   C1B 5149   5.801  13.303   9.213  0.0703 -0.0630 -0.4291
  322loPI   C2B 5150   5.841  13.253   8.871 -0.2440  0.2190  0.2132
  322loPI   C3B 5151   5.804  13.211   8.390  0.1351  0.0196 -0.0684
  322loPI   C4B 5152   5.945  13.398   8.041 -0.0235 -0.0226  0.0703
  323loPI    C1 5153  11.606   0.779  10.063 -0.0198 -0.1367  0.1080
  323loPI    C2 5154  11.788   0.642  10.392  0.1887 -0.0694  0.0227
  323loPI    C3 5155  11.959   0.593  10.034 -0.0119 -0.0953 -0.0712
  323loPI   PO4 5156  11.535   1.031  10.188  0.0629  0.0936 -0.1235
  323loPI   GL1 5157  11.572   1.402   9.957  0.2168  0.1159 -0.2128
  323loPI   GL2 5158  11.241   1.394  10.027  0.3302 -0.0582  0.0387
  323loPI   C1A 5159  11.753   1.455   9.596  0.1280  0.0910  0.0239
  323loPI   C2A 5160  11.976   1.573   9.209  0.0499 -0.2620 -0.3143
  323loPI   C3A 5161  12.003   1.776   8.764  0.0268  0.1733  0.2773
  323loPI   C4A 5162  12.124   1.802   8.420 -0.0525 -0.0553  0.3042
  323loPI   C5A 5163  12.369   1.872   7.993  0.2488 -0.1248  0.0472
  323loPI   C6A 5164  12.542   1.837   7.622 -0.3813  0.1464  0.3324
  323loPI   C1B 5165  11.234   1.375   9.596  0.2081  0.0663 -0.4108
  323loPI   C2B 5166  11.375   1.341   9.147  0.0001  0.2266 -0.0538
  323loPI   C3B 5167  11.544   1.513   8.760 -0.0704  0.0335 -0.1767
  323loPI   C4B 5168  11.568   1.676   8.424 -0.1196  0.1645  0.2938
  324loPI    C1 5169   5.114   4.782  10.444  0.2014 -0.0064 -0.1109
  324loPI    C2 5170   5.069   5.060  10.728 -0.1427 -0.0223 -0.1455
  324loPI    C3 5171   5.435   4.931  10.630 -0.0043  0.1667  0.1115
  324loPI   PO4 5172   5.080   4.856  10.159 -0.0511  0.1852 -0.1238
  324loPI   GL1 5173   5.173   4.882   9.702  0.3031 -0.0699 -0.1576
  324loPI   GL2 5174   5.021   4.614   9.778 -0.1157  0.3170 -0.0255
  324loPI   C1A 5175   5.147   4.862   9.232  0.0472 -0.3595 -0.0533
  324loPI   C2A 5176   5.110   4.908   8.776 -0.1128 -0.1866 -0.2731
  324loPI   C3A 5177   5.087   5.087   8.355 -0.3580 -0.2408 -0.4241
  324loPI   C4A 5178   5.162   4.902   7.994  0.1446  0.1501 -0.0896
  324loPI   C5A 5179   4.976   4.525   7.891 -0.3869  0.1621 -0.1001
  324loPI   C6A 5180   4.967   4.132   7.916  0.3699  0.0339  0.2062
  324loPI   C1B 5181   4.838   4.317   9.521  0.0065  0.1270 -0.0586
  324loPI   C2B 5182   4.864   4.087   9.219 -0.0859  0.2678  0.2208
  324loPI   C3B 5183   5.108   3.777   9.056  0.0167 -0.3371 -0.0464
  324loPI   C4B 5184   5.369   3.785   8.632 -0.0771 -0.1973  0.1612
  325loPI    C1 5185  17.900   7.789  10.342 -0.0617  0.0203  0.1633
  325loPI    C2 5186  18.128   7.580  10.595 -0.0827 -0.0391  0.1331
  325loPI    C3 5187  17.752   7.674  10.695 -0.1353 -0.1789  0.0688
  325loPI   PO4 5188  18.040   7.791  10.095  0.0132  0.1614 -0.1715
  325loPI   GL1 5189  18.322   7.680   9.710 -0.0511  0.0335 -0.1862
  325loPI   GL2 5190  18.624   7.842   9.664 -0.2326  0.2011 -0.0801
  325loPI   C1A 5191  18.312   7.591   9.295  0.0132 -0.2893  0.4539
  325loPI   C2A 5192  18.265   7.661   8.865  0.0420 -0.1368 -0.0358
  325loPI   C3A 5193  18.182   7.521   8.465 -0.3186  0.1000 -0.0223
  325loPI   C4A 5194  18.135   7.211   8.138  0.0037 -0.1390 -0.0419
  325loPI   C5A 5195  17.776   6.942   7.913  0.1943  0.0611 -0.0630
  325loPI   C6A 5196  17.629   6.591   7.526 -0.2618  0.1118 -0.1557
  325loPI   C1B 5197  18.768   7.843   9.217  0.2852 -0.2169  0.0389
  325loPI   C2B 5198  18.723   7.837   8.758 -0.1262 -0.0457 -0.0563
  325loPI   C3B 5199  18.680   7.770   8.289 -0.0082 -0.0156  0.0282
  325loPI   C4B 5200  18.409   7.635   7.939 -0.2061 -0.1333  0.2276
  326loPI    C1 5201   6.496  11.997   9.835 -0.2690  0.1359 -0.0352
  326loPI    C2 5202   6.670  12.216  10.121  0.0224 -0.1520  0.0139
  326loPI    C3 5203   6.381  12.375   9.896  0.2104  0.2736  0.0637
  326loPI   PO4 5204   6.529  11.848   9.715 -0.4119 -0.2579 -0.0929
  326loPI   GL1 5205   6.414  11.823   9.221 -0.0248 -0.0108  0.1848
  326loPI   GL2 5206   6.644  11.575   9.265  0.1073  0.1711 -0.1214
  326loPI   C1A 5207   6.243  12.066   8.821 -0.0487 -0.1720  0.0145
  326loPI   C2A 5208   6.454  12.178   8.471  0.0121 -0.3154 -0.0885
  326loPI   C3A 5209   6.413  12.166   8.119 -0.0375  0.2204 -0.1106
  326loPI   C4A 5210   6.596  12.403   7.718 -0.1792 -0.0663  0.0946
  326loPI   C5A 5211   6.446  12.791   7.708 -0.0902 -0.0226 -0.2154
  326loPI   C6A 5212   6.389  13.142   8.055 -0.0089 -0.0984 -0.0743
  326loPI   C1B 5213   6.696  11.803   8.819 -0.1330  0.2359 -0.0111
  326loPI   C2B 5214   6.633  11.757   8.293  0.2142  0.2695  0.3069
  326loPI   C3B 5215   6.614  11.776   7.806  0.3377  0.1477 -0.2578
  326loPI   C4B 5216   6.351  11.953   7.571  0.3048 -0.0586 -0.1022
  327loPI    C1 5217   3.089   6.689  10.388  0.0101  0.0655  0.1976
  327loPI    C2 5218   2.703   6.717  10.287  0.0682  0.2179  0.0088
  327loPI    C3 5219   2.818   6.787  10.664 -0.1219 -0.1129  0.1327
  327loPI   PO4 5220   3.208   6.827  10.199 -0.1608  0.2760  0.0143
  327loPI   GL1 5221   3.300   6.876   9.817  0.0660 -0.0365  0.0558
  327loPI   GL2 5222   2.905   6.701   9.809  0.1941  0.1240  0.3628
  327loPI   C1A 5223   3.162   6.949   9.359  0.1606  0.2778 -0.1046
  327loPI   C2A 5224   3.146   7.104   8.932 -0.1340 -0.0115 -0.0351
  327loPI   C3A 5225   3.016   7.283   8.555  0.4740 -0.1791 -0.0176
  327loPI   C4A 5226   2.898   7.362   8.098 -0.0174  0.1164  0.1563
  327loPI   C5A 5227   2.547   7.379   7.774  0.2638 -0.1535  0.2007
  327loPI   C6A 5228   2.160   7.150   7.565  0.1672  0.0353  0.2042
  327loPI   C1B 5229   2.818   6.606   9.420 -0.0761  0.1110 -0.1172
  327loPI   C2B 5230   2.869   6.577   8.971 -0.1661  0.4270 -0.3807
  327loPI   C3B 5231   2.937   6.733   8.515  0.0984 -0.3163 -0.0262
  327loPI   C4B 5232   2.962   6.844   8.063 -0.0525  0.0636  0.0711
  328loPI    C1 5233  15.879   6.963  10.050 -0.0214 -0.1067 -0.0902
  328loPI    C2 5234  15.870   7.363  10.039 -0.2621 -0.1140 -0.2289
  328loPI    C3 5235  15.790   7.171  10.381  0.0632 -0.0418 -0.1077
  328loPI   PO4 5236  15.726   6.878   9.831  0.2352 -0.0784 -0.0179
  328loPI   GL1 5237  15.620   6.492   9.655 -0.2334  0.3624 -0.3832
  328loPI   GL2 5238  15.323   6.257   9.620 -0.2006  0.2178  0.0387
  328loPI   C1A 5239  15.886   6.517   9.305 -0.3057 -0.1504 -0.1612
  328loPI   C2A 5240  15.947   6.367   8.901  0.1447 -0.0360 -0.4292
  328loPI   C3A 5241  15.981   6.291   8.561 -0.0601  0.0354 -0.0760
  328loPI   C4A 5242  15.981   6.513   8.186 -0.1004 -0.5114 -0.0396
  328loPI   C5A 5243  16.072   6.899   7.895  0.1674  0.1247 -0.0381
  328loPI   C6A 5244  15.884   7.265   7.873 -0.2344 -0.1570  0.0170
  328loPI   C1B 5245  15.123   6.099   9.326 -0.0894 -0.2146  0.0682
  328loPI   C2B 5246  15.142   6.039   8.915  0.0738  0.3161  0.0432
  328loPI   C3B 5247  15.210   5.940   8.544 -0.2909 -0.0102 -0.3341
  328loPI   C4B 5248  15.010   5.868   8.172 -0.2164  0.4370  0.0105
  329loPI    C1 5249   9.459  14.387  10.233 -0.1168 -0.4543 -0.0252
  329loPI    C2 5250   9.793  14.273  10.422  0.0240  0.1246  0.0940
  329loPI    C3 5251   9.523  14.500  10.611 -0.1322  0.1921 -0.2039
  329loPI   PO4 5252   9.497  14.332   9.969 -0.2021 -0.0730 -0.2313
  329loPI   GL1 5253   9.328  14.229   9.532 -0.0113  0.2183  0.0209
  329loPI   GL2 5254   9.209  14.517   9.515  0.1936 -0.0236 -0.0707
  329loPI   C1A 5255   9.666  14.296   9.272 -0.2344  0.4790  0.0900
  329loPI   C2A 5256   9.619  14.168   8.869  0.2658 -0.3277 -0.1262
  329loPI   C3A 5257   9.696  14.343   8.495 -0.1508  0.1542 -0.3568
  329loPI   C4A 5258   9.472  14.222   8.134 -0.3250  0.1169  0.0828
  329loPI   C5A 5259   9.410  13.971   7.736  0.1327  0.2188  0.2239
  329loPI   C6A 5260   9.196  13.655   7.549 -0.1845  0.0319  0.0430
  329loPI   C1B 5261   9.223  14.483   9.069  0.2469  0.2491 -0.1158
  329loPI   C2B 5262   9.246  14.508   8.640  0.0256  0.2401 -0.2002
  329loPI   C3B 5263   9.147  14.571   8.281  0.2088  0.0174 -0.0175
  329loPI   C4B 5264   8.769  14.642   7.966 -0.1839 -0.0545  0.0195
  330loPI    C1 5265  15.872  11.050  10.027 -0.2255  0.0595 -0.0925
  330loPI    C2 5266  15.671  11.225  10.326 -0.1443 -0.1901  0.1118
  330loPI    C3 5267  15.931  10.932  10.404  0.1262 -0.0331 -0.1734
  330loPI   PO4 5268  15.906  11.158   9.908 -0.1430  0.1768  0.1826
  330loPI   GL1 5269  15.823  11.429   9.670 -0.0670 -0.0429 -0.0607
  330loPI   GL2 5270  16.064  11.343   9.452  0.0508 -0.0792 -0.3261
  330loPI   C1A 5271  15.592  11.485   9.331  0.0534 -0.0018 -0.1880
  330loPI   C2A 5272  15.717  11.438   8.954 -0.0526  0.0609  0.1205
  330loPI   C3A 5273  15.820  11.462   8.494 -0.1917  0.0598  0.2572
  330loPI   C4A 5274  15.922  11.667   8.143  0.2256 -0.2400  0.1235
  330loPI   C5A 5275  16.108  11.748   7.798 -0.0948  0.0390  0.2276
  330loPI   C6A 5276  16.419  12.101   7.775 -0.2058 -0.0146  0.2465
  330loPI   C1B 5277  16.179  11.257   9.053  0.2132 -0.2316 -0.2339
  330loPI   C2B 5278  16.282  11.247   8.581  0.1463  0.0785  0.0339
  330loPI   C3B 5279  16.461  11.123   8.177 -0.0153 -0.1754  0.2521
  330loPI   C4B 5280  16.537  10.794   7.825  0.0396 -0.1222 -0.0034
  331loPI    C1 5281  18.275   6.207  10.565 -0.1163 -0.0837 -0.0544
  331loPI    C2 5282  18.393   6.571  10.682  0.2289 -0.1601 -0.1536
  331loPI    C3 5283  18.466   6.253  10.914 -0.0729 -0.1692 -0.0666
  331loPI   PO4 5284  18.279   6.223  10.315 -0.2151  0.1608  0.3907
  331loPI   GL1 5285  18.460   6.009  10.009 -0.1263 -0.0804  0.2019
  331loPI   GL2 5286  18.492   5.674   9.831 -0.1891 -0.5585 -0.1102
  331loPI   C1A 5287  18.435   6.070   9.488  0.0054 -0.1183 -0.2620
  331loPI   C2A 5288  18.205   5.890   9.085 -0.1439  0.1127  0.0419
  331loPI   C3A 5289  18.241   5.879   8.662  0.1398  0.0400 -0.0299
  331loPI   C4A 5290  18.297   5.883   8.197 -0.4111  0.0084  0.0587
  331loPI   C5A 5291  18.183   6.038   7.749 -0.1204 -0.0396  0.2117
  331loPI   C6A 5292  18.306   6.122   7.249  0.0739 -0.2901 -0.3059
  331loPI   C1B 5293  18.590   5.615   9.444  0.2519  0.1104  0.0038
  331loPI   C2B 5294  18.574   5.580   8.889  0.0261  0.0362 -0.0069
  331loPI   C3B 5295  18.574   5.546   8.438  0.0615 -0.2958 -0.1103
  331loPI   C4B 5296  18.621   5.428   7.930  0.3947  0.0992 -0.0814
  332loPI    C1 5297  12.179  10.340  10.006 -0.0529  0.2801  0.2319
  332loPI    C2 5298  11.793  10.265  10.079 -0.0281  0.0608  0.1459
  332loPI    C3 5299  12.077  10.072  10.285  0.0370 -0.0661 -0.0597
  332loPI   PO4 5300  12.251  10.281   9.823 -0.1472 -0.0765 -0.1159
  332loPI   GL1 5301  12.297  10.086   9.491 -0.0168 -0.2788 -0.2758
  332loPI   GL2 5302  12.629  10.156   9.474  0.2001 -0.2065 -0.2868
  332loPI   C1A 5303  12.105  10.109   9.192  0.0350 -0.0325 -0.2372
  332loPI   C2A 5304  11.734  10.106   8.926  0.0256 -0.1325  0.0306
  332loPI   C3A 5305  11.429  10.108   8.743  0.1435  0.1769  0.1457
  332loPI   C4A 5306  11.285  10.410   8.395 -0.0422  0.1420 -0.1586
  332loPI   C5A 5307  11.199  10.477   8.024 -0.0888  0.2986  0.0299
  332loPI   C6A 5308  11.423  10.300   7.705 -0.2539 -0.0838 -0.1304
  332loPI   C1B 5309  12.559  10.352   9.146  0.1760  0.1765  0.3912
  332loPI   C2B 5310  12.824  10.570   8.827 -0.1009  0.4387  0.0726
  332loPI   C3B 5311  13.077  10.795   8.540 -0.1238 -0.0232 -0.1911
  332loPI   C4B 5312  13.167  10.979   8.192  0.2005  0.1179 -0.0150
  333loPI    C1 5313  11.067  15.740   9.833 -0.0346  0.0137  0.0025
  333loPI    C2 5314  10.949  15.836  10.203 -0.2180 -0.0541 -0.0373
  333loPI    C3 5315  10.892  16.093   9.902 -0.0094  0.0282 -0.0082
  333loPI   PO4 5316  10.924  15.454   9.793  0.0344  0.0907  0.3148
  333loPI   GL1 5317  11.035  15.186   9.460 -0.1488 -0.0028 -0.1457
  333loPI   GL2 5318  11.221  15.378   9.359  0.0511 -0.4491 -0.1129
  333loPI   C1A 5319  11.086  14.814   9.110 -0.2465 -0.0810 -0.1464
  333loPI   C2A 5320  11.026  14.832   8.796  0.0681  0.1232 -0.2166
  333loPI   C3A 5321  10.941  14.953   8.348 -0.3456  0.0026  0.2504
  333loPI   C4A 5322  10.800  14.824   7.907 -0.2456  0.2147  0.0299
  333loPI   C5A 5323  10.432  14.601   7.756 -0.0665  0.0523 -0.0076
  333loPI   C6A 5324   9.999  14.793   7.624  0.2836  0.0595 -0.2076
  333loPI   C1B 5325  11.217  15.332   8.894  0.1908  0.0842 -0.3417
  333loPI   C2B 5326  11.301  15.276   8.451 -0.2743 -0.1685 -0.2156
  333loPI   C3B 5327  11.325  15.149   8.041  0.0121 -0.3677  0.1767
  333loPI   C4B 5328  11.535  14.938   7.680  0.1431  0.1959 -0.1279
  334loPI    C1 5329   2.511  12.824   9.870  0.1071 -0.0961  0.2791
  334loPI    C2 5330   2.230  12.972  10.113  0.0205  0.3046 -0.0545
  334loPI    C3 5331   2.610  13.088  10.153  0.0083  0.3609 -0.1007
  334loPI   PO4 5332   2.373  12.767   9.651 -0.3078  0.0828 -0.0512
  334loPI   GL1 5333   2.159  12.581   9.353  0.0371  0.0952  0.4111
  334loPI   GL2 5334   2.077  12.914   9.242  0.0002  0.4907  0.0208
  334loPI   C1A 5335   2.440  12.623   9.032  0.1773  0.0716  0.1078
  334loPI   C2A 5336   2.454  12.493   8.682 -0.1606 -0.2638  0.0541
  334loPI   C3A 5337   2.644  12.452   8.295  0.2188  0.3036 -0.2553
  334loPI   C4A 5338   2.681  12.696   7.951 -0.0800 -0.0454 -0.0302
  334loPI   C5A 5339   2.386  12.603   7.580  0.2332 -0.4244  0.0843
  334loPI   C6A 5340   2.154  12.331   7.600  0.0899 -0.2507  0.2602
  334loPI   C1B 5341   1.993  12.740   8.869  0.3211 -0.3607 -0.1073
  334loPI   C2B 5342   2.031  12.642   8.428  0.1206  0.2655 -0.1046
  334loPI   C3B 5343   1.952  12.634   7.936  0.0501 -0.3540 -0.0923
  334loPI   C4B 5344   1.841  12.938   7.562 -0.3409 -0.1274  0.3848
  335loPI    C1 5345   9.416   5.690  10.613  0.0061 -0.1406  0.0696
  335loPI    C2 5346   9.105   5.930  10.691  0.1394  0.0420  0.0462
  335loPI    C3 5347   9.117   5.561  10.845 -0.0034  0.0977  0.1936
  335loPI   PO4 5348   9.511   5.818  10.351  0.6321  0.0350 -0.0091
  335loPI   GL1 5349   9.483   5.773   9.965 -0.1201 -0.0494  0.3307
  335loPI   GL2 5350   9.552   6.102   9.963 -0.3439  0.1958 -0.0398
  335loPI   C1A 5351   9.410   5.982   9.454 -0.2431 -0.2022  0.3047
  335loPI   C2A 5352   9.499   5.996   9.015 -0.1786 -0.1493  0.0104
  335loPI   C3A 5353   9.562   6.220   8.649 -0.1855 -0.4066  0.1394
  335loPI   C4A 5354   9.872   6.372   8.452 -0.1786 -0.1428  0.0749
  335loPI   C5A 5355  10.185   6.270   8.063 -0.0090  0.1952 -0.1101
  335loPI   C6A 5356  10.204   5.878   7.892  0.0484  0.2293  0.0996
  335loPI   C1B 5357   9.845   6.191   9.679  0.1608  0.0831 -0.0393
  335loPI   C2B 5358   9.885   6.174   9.227 -0.2701  0.2446 -0.0010
  335loPI   C3B 5359  10.028   6.101   8.877  0.1278  0.0160 -0.0295
  335loPI   C4B 5360  10.358   6.173   8.552  0.2069  0.3491 -0.3505
  336loPI    C1 5361   1.272  13.648  10.390 -0.0355 -0.1196 -0.0985
  336loPI    C2 5362   1.648  13.657  10.525  0.0033 -0.3278 -0.1886
  336loPI    C3 5363   1.345  13.609  10.782  0.0228  0.0259 -0.0942
  336loPI   PO4 5364   1.299  13.495  10.197  0.0075  0.1070 -0.0238
  336loPI   GL1 5365   1.577  13.517   9.768  0.3435  0.1196  0.1849
  336loPI   GL2 5366   1.703  13.898   9.600 -0.0465 -0.1301  0.0895
  336loPI   C1A 5367   1.514  13.231   9.365  0.2205  0.3524  0.0316
  336loPI   C2A 5368   1.783  13.171   8.976 -0.1350  0.0029  0.1688
  336loPI   C3A 5369   1.687  13.028   8.616  0.0851  0.0655 -0.1730
  336loPI   C4A 5370   1.568  12.805   8.271  0.0692  0.2303 -0.0775
  336loPI   C5A 5371   1.439  12.810   7.875 -0.0557 -0.1145  0.2827
  336loPI   C6A 5372   1.335  12.831   7.485 -0.0519 -0.0120  0.3149
  336loPI   C1B 5373   1.861  13.827   9.188  0.0481 -0.1212  0.0972
  336loPI   C2B 5374   2.038  13.711   8.827  0.2700 -0.0989  0.0402
  336loPI   C3B 5375   2.024  13.398   8.571 -0.0367  0.1488  0.0560
  336loPI   C4B 5376   1.987  13.092   8.222 -0.0864  0.0832  0.1484
  337loPI    C1 5377  15.418   6.109  10.101 -0.0266  0.2012  0.0987
  337loPI    C2 5378  15.224   5.965  10.420  0.3391 -0.0131  0.2304
  337loPI    C3 5379  15.555   6.185  10.469  0.2756  0.1372  0.0020
  337loPI   PO4 5380  15.449   5.891   9.943  0.4199 -0.2727 -0.0517
  337loPI   GL1 5381  15.802   5.631   9.786  0.2134 -0.2272 -0.2137
  337loPI   GL2 5382  15.756   6.012   9.615  0.0726  0.0135 -0.1192
  337loPI   C1A 5383  15.939   5.525   9.385 -0.2683  0.3120 -0.0667
  337loPI   C2A 5384  15.817   5.459   8.979 -0.0549 -0.0003 -0.2663
  337loPI   C3A 5385  15.755   5.489   8.475 -0.0784  0.0870 -0.1071
  337loPI   C4A 5386  15.912   5.572   8.092 -0.1601 -0.1341  0.1235
  337loPI   C5A 5387  16.333   5.444   7.867  0.2366  0.0385  0.1791
  337loPI   C6A 5388  16.455   5.616   7.438 -0.1953  0.1196  0.0509
  337loPI   C1B 5389  15.601   6.092   9.167  0.0720 -0.1695  0.0323
  337loPI   C2B 5390  15.689   5.991   8.737  0.3718 -0.1574  0.0583
  337loPI   C3B 5391  15.697   6.020   8.292 -0.1758  0.2521  0.2469
  337loPI   C4B 5392  15.543   6.009   7.864  0.3410 -0.1021 -0.0641
  338loPI    C1 5393   3.611   7.428  10.246 -0.0063  0.0822  0.0559
  338loPI    C2 5394   3.822   7.580   9.942  0.0711 -0.0299  0.0530
  338loPI    C3 5395   3.848   7.744  10.305  0.1934 -0.0664  0.0614
  338loPI   PO4 5396   3.388   7.322  10.082 -0.4305 -0.0054 -0.1683
  338loPI   GL1 5397   3.263   7.463   9.701  0.1651 -0.1537 -0.1036
  338loPI   GL2 5398   3.580   7.259   9.616  0.1830  0.0260 -0.0068
  338loPI   C1A 5399   3.029   7.452   9.295  0.1639 -0.2339 -0.0151
  338loPI   C2A 5400   3.134   7.623   8.865 -0.3869 -0.4626  0.0120
  338loPI   C3A 5401   3.424   7.897   8.703 -0.1679  0.2964  0.0384
  338loPI   C4A 5402   3.631   8.172   8.407 -0.0700  0.0630 -0.0100
  338loPI   C5A 5403   3.716   8.463   8.188  0.0869 -0.2180  0.1260
  338loPI   C6A 5404   3.711   8.587   7.696  0.1432  0.1619  0.0533
  338loPI   C1B 5405   3.682   7.027   9.187  0.1157 -0.0326 -0.1653
  338loPI   C2B 5406   3.965   7.082   8.813 -0.0379 -0.1082 -0.0761
  338loPI   C3B 5407   3.918   7.131   8.289 -0.0619  0.2495 -0.3734
  338loPI   C4B 5408   3.765   7.159   7.904 -0.2446  0.0144 -0.0985
  339loPI    C1 5409   5.734  13.702  10.186 -0.3523 -0.4212  0.0055
  339loPI    C2 5410   5.762  13.673  10.584 -0.2583 -0.2773  0.0100
  339loPI    C3 5411   5.484  13.910  10.420 -0.1304 -0.1357 -0.0050
  339loPI   PO4 5412   5.916  13.605  10.110 -0.0205 -0.1200  0.1780
  339loPI   GL1 5413   6.147  13.960   9.869  0.0952  0.1552 -0.0759
  339loPI   GL2 5414   6.051  14.303   9.762 -0.0877 -0.0120  0.0486
  339loPI   C1A 5415   6.376  14.032   9.520 -0.0633  0.0311 -0.2086
  339loPI   C2A 5416   6.425  14.029   9.089 -0.1924 -0.0098  0.2356
  339loPI   C3A 5417   6.458  14.043   8.703 -0.0366  0.4226 -0.0516
  339loPI   C4A 5418   6.679  13.945   8.298  0.0014  0.3114  0.0208
  339loPI   C5A 5419   6.836  14.041   8.003  0.3771 -0.0905  0.0540
  339loPI   C6A 5420   7.216  13.996   7.678  0.0850 -0.3080  0.1983
  339loPI   C1B 5421   5.891  14.256   9.350 -0.0152  0.0294  0.0890
  339loPI   C2B 5422   5.964  14.067   8.875  0.1818 -0.0957  0.1881
  339loPI   C3B 5423   5.686  14.125   8.486 -0.1143  0.1475 -0.1300
  339loPI   C4B 5424   5.511  14.246   8.062 -0.1027  0.1118  0.0231
  340loPI    C1 5425   2.868  17.781  10.269  0.1185  0.0113 -0.0358
  340loPI    C2 5426   3.247  17.899  10.320  0.0705 -0.0305  0.4621
  340loPI    C3 5427   3.091  17.618  10.559 -0.3213  0.0957  0.3616
  340loPI   PO4 5428   2.897  17.652   9.959 -0.2024 -0.0810  0.2233
  340loPI   GL1 5429   3.096  17.541   9.656 -0.2159 -0.0979  0.2207
  340loPI   GL2 5430   2.843  17.594   9.360  0.2043 -0.1459  0.1283
  340loPI   C1A 5431   3.257  17.493   9.141  0.1350  0.3207 -0.0130
  340loPI   C2A 5432   3.072  17.634   8.776 -0.0311  0.2485  0.0552
  340loPI   C3A 5433   2.920  17.606   8.367  0.1883 -0.1452 -0.0675
  340loPI   C4A 5434   2.865  17.703   7.918  0.0003 -0.1491 -0.1846
  340loPI   C5A 5435   2.587  17.682   7.608 -0.2896 -0.1025  0.0087
  340loPI   C6A 5436   2.188  17.573   7.303  0.2704  0.1384  0.2532
  340loPI   C1B 5437   2.550  17.477   8.945  0.0610  0.0487  0.0604
  340loPI   C2B 5438   2.438  17.548   8.514 -0.0918 -0.0885  0.1940
  340loPI   C3B 5439   2.407  17.745   8.103 -0.0616 -0.1302  0.1821
  340loPI   C4B 5440   2.180  17.969   7.768  0.0603 -0.1520  0.0260
  341loPI    C1 5441   4.711  11.843   9.898  0.0247  0.0836  0.2661
  341loPI    C2 5442   4.387  11.671  10.060  0.0488 -0.2626 -0.0413
  341loPI    C3 5443   4.745  11.629  10.235 -0.0155 -0.1614  0.1166
  341loPI   PO4 5444   4.770  11.759   9.682 -0.0419 -0.4065  0.0089
  341loPI   GL1 5445   4.652  11.840   9.353 -0.0537 -0.0951 -0.0765
  341loPI   GL2 5446   4.908  11.606   9.215  0.0880  0.0363  0.0144
  341loPI   C1A 5447   4.306  11.942   9.187  0.1426 -0.0467  0.0651
  341loPI   C2A 5448   4.124  12.177   9.019 -0.3267 -0.0203  0.3814
  341loPI   C3A 5449   4.031  12.356   8.588 -0.1707  0.0784 -0.0547
  341loPI   C4A 5450   4.193  12.790   8.517  0.1578  0.0603 -0.0069
  341loPI   C5A 5451   4.442  12.988   8.308 -0.2080 -0.0468 -0.1834
  341loPI   C6A 5452   4.826  13.027   7.996  0.0642  0.3534 -0.0771
  341loPI   C1B 5453   4.748  11.750   8.817  0.3352 -0.0659 -0.1063
  341loPI   C2B 5454   4.564  11.970   8.433  0.4317  0.2432  0.1932
  341loPI   C3B 5455   4.524  11.809   8.053  0.0606  0.1613 -0.0673
  341loPI   C4B 5456   4.688  11.401   8.013 -0.0775  0.0885 -0.2590
  342loPI    C1 5457   3.813  15.914   9.970  0.0896 -0.1343 -0.0529
  342loPI    C2 5458   3.833  16.064  10.340  0.1678 -0.3210  0.0200
  342loPI    C3 5459   4.096  16.182  10.063 -0.0855  0.0582 -0.0675
  342loPI   PO4 5460   3.496  15.843   9.885  0.0979  0.0172 -0.2796
  342loPI   GL1 5461   3.412  15.991   9.434  0.0589 -0.0724 -0.1574
  342loPI   GL2 5462   3.060  16.109   9.437 -0.1216 -0.1548 -0.1155
  342loPI   C1A 5463   3.458  15.817   9.039  0.0880  0.0025 -0.2188
  342loPI   C2A 5464   3.299  15.444   8.787  0.0755  0.0863 -0.0026
  342loPI   C3A 5465   3.446  15.363   8.281  0.0972 -0.2381  0.3905
  342loPI   C4A 5466   3.441  15.388   7.793 -0.2451  0.2287 -0.1671
  342loPI   C5A 5467   3.247  15.659   7.524 -0.1476 -0.0859  0.0341
  342loPI   C6A 5468   2.980  15.850   7.384  0.0147 -0.4804  0.0660
  342loPI   C1B 5469   2.709  16.058   9.183 -0.3457 -0.0270  0.3169
  342loPI   C2B 5470   2.512  15.791   8.885 -0.3958 -0.6035 -0.2714
  342loPI   C3B 5471   2.259  15.719   8.624 -0.0657 -0.1471  0.4523
  342loPI   C4B 5472   2.105  15.653   8.292  0.1405 -0.1735  0.1731
  343loPI    C1 5473  12.922  14.719  10.249 -0.0904 -0.1560 -0.2286
  343loPI    C2 5474  12.788  15.093  10.203 -0.1047 -0.1018  0.2059
  343loPI    C3 5475  12.905  14.966  10.564  0.1076 -0.4509  0.0200
  343loPI   PO4 5476  12.968  14.693   9.929  0.0890 -0.0907  0.0303
  343loPI   GL1 5477  13.186  14.629   9.619  0.2792  0.2438 -0.1105
  343loPI   GL2 5478  13.397  14.515   9.538  0.1956  0.2537  0.1296
  343loPI   C1A 5479  13.069  14.410   9.167 -0.0516 -0.1989 -0.0146
  343loPI   C2A 5480  12.866  14.362   8.684  0.0252 -0.3372  0.1079
  343loPI   C3A 5481  12.562  14.298   8.408 -0.1040  0.0583 -0.0242
  343loPI   C4A 5482  12.371  14.494   7.985  0.1882  0.0953 -0.1443
  343loPI   C5A 5483  12.402  14.918   7.826 -0.1699  0.0765  0.0714
  343loPI   C6A 5484  12.613  15.059   7.546 -0.1686  0.1533 -0.1240
  343loPI   C1B 5485  13.356  14.813   9.176  0.0819  0.0749 -0.1401
  343loPI   C2B 5486  13.233  14.871   8.781 -0.0801  0.2414 -0.1209
  343loPI   C3B 5487  13.252  15.070   8.270 -0.0595  0.1333 -0.1077
  343loPI   C4B 5488  13.166  15.069   7.840  0.0474 -0.0662  0.1056
  344loPI    C1 5489  11.123  10.052  10.287 -0.3093 -0.0620 -0.1309
  344loPI    C2 5490  10.975   9.681  10.305 -0.1304 -0.1301 -0.0410
  344loPI    C3 5491  11.193   9.824  10.608 -0.2424  0.0679 -0.0526
  344loPI   PO4 5492  11.327  10.046  10.103  0.1473 -0.0396  0.2281
  344loPI   GL1 5493  11.444   9.982   9.747  0.0655  0.1098  0.0614
  344loPI   GL2 5494  11.192   9.824   9.592  0.0367  0.1811  0.2787
  344loPI   C1A 5495  11.673   9.848   9.339 -0.0282  0.0964  0.1967
  344loPI   C2A 5496  11.517   9.565   9.035 -0.2438  0.1850 -0.1983
  344loPI   C3A 5497  11.377   9.586   8.672 -0.4399  0.2486  0.1604
  344loPI   C4A 5498  11.251   9.785   8.320 -0.0436 -0.1451  0.0957
  344loPI   C5A 5499  11.115   9.991   7.941 -0.0163 -0.0724 -0.3144
  344loPI   C6A 5500  10.893  10.072   7.584  0.1415 -0.0090 -0.0662
  344loPI   C1B 5501  11.235  10.144   9.198  0.1315 -0.0477  0.0238
  344loPI   C2B 5502  10.966  10.239   8.919  0.0765 -0.2566 -0.2319
  344loPI   C3B 5503  10.834  10.121   8.361  0.1340 -0.1151  0.1713
  344loPI   C4B 5504  10.733  10.356   7.933  0.0329  0.0716 -0.4629
  345loPI    C1 5505   6.963   6.857  10.227 -0.1674 -0.2374  0.0499
  345loPI    C2 5506   6.930   6.646  10.566 -0.0468 -0.3270  0.0068
  345loPI    C3 5507   7.134   6.496  10.257  0.1131 -0.1107  0.0052
  345loPI   PO4 5508   6.703   6.923  10.196  0.1233 -0.1976  0.1879
  345loPI   GL1 5509   6.604   7.248   9.866 -0.2530 -0.1080 -0.1403
  345loPI   GL2 5510   6.452   6.861   9.744 -0.0610 -0.1762 -0.4648
  345loPI   C1A 5511   6.353   7.383   9.596  0.2671 -0.0527 -0.0602
  345loPI   C2A 5512   6.232   7.402   9.185  0.2803 -0.2185 -0.0065
  345loPI   C3A 5513   6.274   7.315   8.728  0.0482 -0.1186  0.1847
  345loPI   C4A 5514   6.104   7.334   8.219  0.1089 -0.1607  0.1219
  345loPI   C5A 5515   6.088   7.360   7.815  0.0357 -0.2235  0.1124
  345loPI   C6A 5516   6.225   7.660   7.515 -0.1091  0.1449  0.0368
  345loPI   C1B 5517   6.335   6.881   9.356  0.5041  0.0191 -0.0945
  345loPI   C2B 5518   6.068   6.855   9.027 -0.2906  0.1193 -0.0230
  345loPI   C3B 5519   5.806   6.772   8.746 -0.0587 -0.2832  0.0736
  345loPI   C4B 5520   5.475   6.728   8.507 -0.2736 -0.1310  0.1175
  346loPI    C1 5521  13.909  12.380   9.915  0.0742  0.2013 -0.0282
  346loPI    C2 5522  14.218  12.326  10.163  0.0481 -0.0113 -0.0405
  346loPI    C3 5523  13.881  12.118  10.216  0.0581 -0.0916 -0.2806
  346loPI   PO4 5524  13.952  12.679   9.794  0.1363  0.0219 -0.0951
  346loPI   GL1 5525  13.630  12.670   9.396 -0.2638 -0.2460  0.0471
  346loPI   GL2 5526  13.341  12.642   9.545  0.2391  0.1729 -0.0333
  346loPI   C1A 5527  13.662  12.681   8.932 -0.3513  0.1044 -0.3472
  346loPI   C2A 5528  13.635  12.269   8.743 -0.2174  0.1700  0.0687
  346loPI   C3A 5529  13.600  12.222   8.328 -0.2515  0.0295  0.1881
  346loPI   C4A 5530  13.461  12.436   7.937  0.0754 -0.0521 -0.1279
  346loPI   C5A 5531  13.396  12.749   7.729  0.0217  0.2702 -0.4766
  346loPI   C6A 5532  13.210  13.169   7.652 -0.4864  0.2246 -0.1430
  346loPI   C1B 5533  13.227  12.755   9.122 -0.2556  0.0822  0.0546
  346loPI   C2B 5534  13.240  12.699   8.692 -0.1747 -0.1103 -0.0511
  346loPI   C3B 5535  13.211  12.526   8.388 -0.2511 -0.2694  0.0729
  346loPI   C4B 5536  13.009  12.606   7.984  0.0492  0.1154  0.0952
  347loPI    C1 5537   2.273  18.101  10.297  0.1370 -0.0637 -0.0380
  347loPI    C2 5538   2.550  18.385  10.351  0.1546 -0.1181  0.1628
  347loPI    C3 5539   2.275  18.316  10.634 -0.1870  0.0671 -0.1161
  347loPI   PO4 5540   2.457  17.986  10.092 -0.1002  0.0106 -0.0709
  347loPI   GL1 5541   2.671  18.034   9.615  0.0097 -0.0637 -0.0502
  347loPI   GL2 5542   3.085  18.050   9.672  0.1843  0.0826  0.0056
  347loPI   C1A 5543   2.708  18.027   9.146 -0.0728  0.4302  0.2329
  347loPI   C2A 5544   2.738  17.994   8.665 -0.1942  0.0198 -0.3115
  347loPI   C3A 5545   2.741  18.065   8.266 -0.1720 -0.1188 -0.1616
  347loPI   C4A 5546   2.640  18.174   7.898 -0.0863 -0.2089 -0.0266
  347loPI   C5A 5547   3.003  18.028   7.577 -0.3090 -0.0921 -0.0450
  347loPI   C6A 5548   3.094  18.061   7.169  0.0808  0.1837  0.2930
  347loPI   C1B 5549   3.191  17.957   9.236  0.1388 -0.0727 -0.2459
  347loPI   C2B 5550   3.370  18.008   8.950  0.0728 -0.0578 -0.0798
  347loPI   C3B 5551   3.274  18.092   8.432  0.2335  0.0034 -0.0035
  347loPI   C4B 5552   3.229  18.184   7.997  0.0935  0.1330 -0.1345
  348loPI    C1 5553   5.897  15.645  10.106  0.3532 -0.1576 -0.0707
  348loPI    C2 5554   5.956  15.991   9.913 -0.0248 -0.1324 -0.1506
  348loPI    C3 5555   5.980  15.977  10.312  0.2922 -0.0831 -0.1648
  348loPI   PO4 5556   5.630  15.579   9.923 -0.0092  0.2908  0.2001
  348loPI   GL1 5557   5.652  15.632   9.500  0.4154 -0.0958 -0.3126
  348loPI   GL2 5558   5.329  15.768   9.578 -0.2474 -0.2666 -0.1392
  348loPI   C1A 5559   5.811  15.556   9.098  0.0452 -0.0599 -0.1128
  348loPI   C2A 5560   5.766  15.590   8.654 -0.0189  0.0050 -0.0932
  348loPI   C3A 5561   5.673  15.717   8.218  0.0563 -0.0733  0.1618
  348loPI   C4A 5562   5.359  15.956   8.027  0.1427  0.0183  0.0656
  348loPI   C5A 5563   5.313  16.408   7.967 -0.2498  0.1644  0.2876
  348loPI   C6A 5564   5.384  16.668   7.659  0.1703 -0.1777 -0.2964
  348loPI   C1B 5565   5.465  15.867   9.104 -0.1489 -0.1271 -0.2064
  348loPI   C2B 5566   5.740  16.067   8.783 -0.5678 -0.1256 -0.1831
  348loPI   C3B 5567   6.081  16.329   8.568  0.1502 -0.0576 -0.1926
  348loPI   C4B 5568   6.183  16.538   8.183 -0.0585  0.2577 -0.2108
  349loPI    C1 5569   4.506   1.383  10.245  0.1057 -0.0074  0.0021
  349loPI    C2 5570   4.575   1.131  10.547  0.0660 -0.0121  0.0073
  349loPI    C3 5571   4.521   1.520  10.620 -0.2550 -0.0605  0.0392
  349loPI   PO4 5572   4.445   1.162  10.063  0.0707 -0.2505 -0.1573
  349loPI   GL1 5573   4.175   1.216   9.720 -0.1965 -0.0929 -0.2769
  349loPI   GL2 5574   4.454   1.372   9.579 -0.2955  0.0347 -0.0127
  349loPI   C1A 5575   3.995   1.437   9.479 -0.3932  0.0292 -0.0952
  349loPI   C2A 5576   4.068   1.413   9.083  0.0389  0.0265  0.1144
  349loPI   C3A 5577   4.021   1.479   8.627  0.0362 -0.4679 -0.1761
  349loPI   C4A 5578   3.836   1.562   8.200 -0.2247 -0.2251  0.0635
  349loPI   C5A 5579   4.004   1.750   7.795  0.3856 -0.1758 -0.0621
  349loPI   C6A 5580   3.888   1.557   7.374 -0.0420  0.1731 -0.2417
  349loPI   C1B 5581   4.565   1.539   9.181  0.1140 -0.1318 -0.1163
  349loPI   C2B 5582   4.518   1.555   8.695 -0.0401  0.0229  0.1269
  349loPI   C3B 5583   4.364   1.685   8.252 -0.1050  0.1534  0.3466
  349loPI   C4B 5584   4.541   1.754   7.874 -0.0330 -0.2024 -0.1414
  350loPI    C1 5585   8.874   8.760  10.262 -0.0961 -0.0322  0.0113
  350loPI    C2 5586   9.243   8.730  10.413 -0.1079  0.1485  0.0789
  350loPI    C3 5587   8.931   8.580  10.614 -0.0820  0.0719  0.0624
  350loPI   PO4 5588   8.867   8.925   9.957 -0.0044  0.2021  0.2423
  350loPI   GL1 5589   9.032   8.735   9.544 -0.1687 -0.1271  0.1580
  350loPI   GL2 5590   9.272   8.408   9.466  0.2800  0.1476 -0.1405
  350loPI   C1A 5591   9.002   8.884   9.147  0.1898 -0.2204  0.2897
  350loPI   C2A 5592   9.241   9.045   8.730  0.0616 -0.0615 -0.1394
  350loPI   C3A 5593   9.425   9.096   8.262  0.0376 -0.1296  0.1020
  350loPI   C4A 5594   9.596   8.957   7.957 -0.4206 -0.2677 -0.2764
  350loPI   C5A 5595   9.929   9.124   7.709  0.1523  0.1975 -0.0078
  350loPI   C6A 5596  10.243   9.105   7.544  0.0954  0.4517 -0.2584
  350loPI   C1B 5597   9.393   8.533   9.105 -0.1632 -0.0813  0.0171
  350loPI   C2B 5598   9.394   8.512   8.727  0.1787 -0.0073 -0.0653
  350loPI   C3B 5599   9.448   8.086   8.397 -0.0882 -0.1314 -0.1520
  350loPI   C4B 5600   9.703   7.896   8.126 -0.4050 -0.1624  0.0881
  351loPI    C1 5601  17.993  12.363  10.166 -0.1822  0.0090  0.1764
  351loPI    C2 5602  17.806  12.262  10.505 -0.0185 -0.3859  0.1548
  351loPI    C3 5603  18.178  12.132  10.436  0.1667  0.1622  0.0733
  351loPI   PO4 5604  17.748  12.397  10.003  0.1529  0.1684  0.0161
  351loPI   GL1 5605  17.639  12.431   9.670 -0.1597  0.5503 -0.2662
  351loPI   GL2 5606  17.781  12.728   9.567  0.1211 -0.3045 -0.2880
  351loPI   C1A 5607  17.863  12.239   9.414 -0.1614  0.0076 -0.1428
  351loPI   C2A 5608  17.875  12.160   9.005 -0.0781  0.0249 -0.2181
  351loPI   C3A 5609  17.954  12.325   8.607  0.1674 -0.0506  0.1382
  351loPI   C4A 5610  18.115  12.371   8.217 -0.2291 -0.2084  0.0857
  351loPI   C5A 5611  18.051  12.241   7.781  0.3749  0.1931  0.1143
  351loPI   C6A 5612  18.209  12.319   7.253 -0.0643 -0.4157  0.0223
  351loPI   C1B 5613  17.805  12.723   9.174 -0.1932 -0.1024 -0.0654
  351loPI   C2B 5614  17.911  12.910   8.706  0.2776 -0.0755  0.0890
  351loPI   C3B 5615  17.917  12.829   8.324  0.2290 -0.3976  0.0137
  351loPI   C4B 5616  17.820  13.092   7.997  0.1050 -0.0495 -0.0543
  352loPI    C1 5617   3.896   0.545  10.250 -0.0654 -0.1563 -0.0880
  352loPI    C2 5618   3.555   0.434  10.427 -0.1354  0.2111  0.0153
  352loPI    C3 5619   3.764   0.744  10.570  0.1002  0.1612 -0.2125
  352loPI   PO4 5620   4.033   0.318  10.140 -0.2722  0.4376  0.0733
  352loPI   GL1 5621   3.960   0.195   9.771  0.1255  0.3963  0.2925
  352loPI   GL2 5622   4.161   0.281   9.642  0.0730 -0.1845  0.3096
  352loPI   C1A 5623   3.862  -0.147   9.530 -0.0789 -0.0475 -0.2664
  352loPI   C2A 5624   3.943  -0.139   9.097 -0.1296 -0.0096 -0.4736
  352loPI   C3A 5625   3.754   0.142   8.903 -0.0764 -0.0924  0.2614
  352loPI   C4A 5626   3.701   0.387   8.512 -0.1659 -0.1870  0.1439
  352loPI   C5A 5627   3.940   0.531   8.208  0.1507  0.0401 -0.0389
  352loPI   C6A 5628   3.933   0.902   7.853 -0.1561  0.1215 -0.1298
  352loPI   C1B 5629   4.043   0.556   9.303  0.2411 -0.1948  0.0123
  352loPI   C2B 5630   4.005   0.531   8.914 -0.0908 -0.0630  0.3290
  352loPI   C3B 5631   3.925   0.804   8.722  0.0718 -0.2081 -0.2407
  352loPI   C4B 5632   3.907   1.046   8.404 -0.1942  0.0748  0.1270
  353loPI    C1 5633  10.451   7.066  10.167  0.0529  0.1276 -0.1922
  353loPI    C2 5634  10.660   6.777  10.348 -0.2345  0.0529  0.0278
  353loPI    C3 5635  10.719   7.159  10.450  0.0093  0.0588 -0.1278
  353loPI   PO4 5636  10.195   6.910  10.125  0.0519  0.0770  0.1464
  353loPI   GL1 5637  10.196   6.875   9.774 -0.1730 -0.3096  0.0711
  353loPI   GL2 5638   9.868   6.771   9.782 -0.2552  0.0524  0.4751
  353loPI   C1A 5639  10.659   6.722   9.739 -0.3434 -0.3424 -0.1442
  353loPI   C2A 5640  10.930   6.929   9.465  0.0316 -0.0166 -0.1121
  353loPI   C3A 5641  11.137   6.968   9.180 -0.3564  0.0723 -0.0436
  353loPI   C4A 5642  11.135   6.807   8.734 -0.1285  0.0461  0.3282
  353loPI   C5A 5643  11.023   6.814   8.330 -0.0052 -0.0103  0.1462
  353loPI   C6A 5644  10.732   6.466   8.056 -0.3935 -0.1150 -0.1031
  353loPI   C1B 5645   9.722   6.623   9.398  0.0625  0.3037 -0.0940
  353loPI   C2B 5646   9.705   6.600   8.934  0.2461  0.1601 -0.4246
  353loPI   C3B 5647  10.123   6.647   8.799  0.4254  0.2296  0.3048
  353loPI   C4B 5648  10.469   6.618   8.505  0.2679  0.0996  0.1142
  354loPI    C1 5649  15.894   0.995   9.962  0.0086  0.0894 -0.1351
  354loPI    C2 5650  16.203   1.202   9.813  0.1715 -0.0702 -0.0236
  354loPI    C3 5651  16.170   1.147  10.208  0.0184 -0.0838 -0.0373
  354loPI   PO4 5652  15.667   1.078   9.830 -0.0919  0.2047  0.1269
  354loPI   GL1 5653  15.543   1.088   9.389  0.1188  0.2852  0.2195
  354loPI   GL2 5654  15.290   1.209   9.381 -0.0043  0.0018  0.0076
  354loPI   C1A 5655  15.558   0.844   9.005  0.0211 -0.0970 -0.1757
  354loPI   C2A 5656  15.680   1.033   8.680 -0.0106 -0.1635  0.0093
  354loPI   C3A 5657  15.547   0.982   8.223  0.0860  0.1495 -0.0024
  354loPI   C4A 5658  15.202   0.833   8.007  0.0428 -0.0109 -0.0259
  354loPI   C5A 5659  14.763   0.867   7.734  0.1197 -0.3925  0.4985
  354loPI   C6A 5660  14.283   0.794   7.755  0.2115 -0.1200 -0.2027
  354loPI   C1B 5661  15.343   1.334   9.029 -0.0098 -0.1640  0.2780
  354loPI   C2B 5662  15.353   1.358   8.550  0.1933 -0.0802 -0.4766
  354loPI   C3B 5663  15.122   1.276   8.199  0.0005  0.0924  0.0499
  354loPI   C4B 5664  14.701   1.311   7.982 -0.0271  0.2262 -0.0499
  355loPI    C1 5665   9.252   6.358  10.498  0.0829  0.0755 -0.0170
  355loPI    C2 5666   9.520   6.582  10.693 -0.2261  0.2089  0.2655
  355loPI    C3 5667   9.580   6.189  10.651  0.1329  0.2766  0.1023
  355loPI   PO4 5668   9.241   6.481  10.245 -0.1029  0.2785 -0.1055
  355loPI   GL1 5669   8.915   6.467   9.885  0.2610  0.1212 -0.1518
  355loPI   GL2 5670   9.050   6.206   9.764 -0.1439 -0.0393  0.1697
  355loPI   C1A 5671   8.813   6.778   9.630 -0.0172  0.0312  0.0617
  355loPI   C2A 5672   8.806   6.818   9.107  0.2423  0.3186 -0.0355
  355loPI   C3A 5673   8.911   6.850   8.650 -0.0382  0.1617  0.0304
  355loPI   C4A 5674   8.793   6.862   8.241 -0.0187  0.1908 -0.2538
  355loPI   C5A 5675   8.592   7.036   7.906  0.4464 -0.0491  0.2100
  355loPI   C6A 5676   8.154   7.109   8.012  0.0885 -0.2597  0.2758
  355loPI   C1B 5677   9.159   6.494   9.333 -0.0105  0.0478  0.4257
  355loPI   C2B 5678   9.175   6.456   8.863 -0.0660 -0.1910  0.0813
  355loPI   C3B 5679   9.312   6.552   8.478  0.0899 -0.1938 -0.3420
  355loPI   C4B 5680   9.448   6.361   8.110 -0.0081  0.0473 -0.2996
  356loPI    C1 5681   0.170  11.854  10.078  0.0783  0.0163 -0.1680
  356loPI    C2 5682   0.198  11.638  10.413  0.0150 -0.0351 -0.1956
  356loPI    C3 5683   0.016  11.995  10.419 -0.0704 -0.0784 -0.1950
  356loPI   PO4 5684   0.367  11.814   9.965  0.1053 -0.0791  0.0937
  356loPI   GL1 5685   0.439  12.003   9.536 -0.1670  0.0009 -0.1284
  356loPI   GL2 5686   0.106  12.028   9.561 -0.0127 -0.0524  0.2970
  356loPI   C1A 5687   0.562  12.202   9.230  0.1296 -0.0081  0.0855
  356loPI   C2A 5688   0.625  12.365   8.759  0.2287  0.1882  0.0725
  356loPI   C3A 5689   0.905  12.352   8.341  0.0199 -0.0246  0.0967
  356loPI   C4A 5690   1.250  12.323   8.086 -0.0741  0.0564  0.0559
  356loPI   C5A 5691   1.508  12.307   7.754  0.0910  0.4153 -0.4610
  356loPI   C6A 5692   1.700  12.351   7.432  0.0181  0.4778  0.0972
  356loPI   C1B 5693   0.084  11.970   9.072 -0.0631 -0.1431  0.0963
  356loPI   C2B 5694   0.213  12.089   8.646  0.1394  0.2117  0.2739
  356loPI   C3B 5695   0.421  12.275   8.242  0.3421  0.1522  0.0204
  356loPI   C4B 5696   0.627  12.339   7.858 -0.2467 -0.1988  0.1152
  357loPI    C1 5697  17.115  12.891  10.364 -0.1100  0.2210  0.0427
  357loPI    C2 5698  16.860  12.853  10.670  0.0056 -0.1270  0.1007
  357loPI    C3 5699  17.129  13.149  10.669 -0.1228 -0.0084  0.2405
  357loPI   PO4 5700  17.004  12.932  10.074 -0.1246 -0.1921  0.2295
  357loPI   GL1 5701  16.786  12.983   9.739 -0.2230  0.1094  0.0211
  357loPI   GL2 5702  16.471  13.052   9.841 -0.0387 -0.3792 -0.1551
  357loPI   C1A 5703  16.774  13.083   9.402 -0.1504  0.2673  0.2018
  357loPI   C2A 5704  16.844  13.144   8.973 -0.1392  0.0056 -0.0028
  357loPI   C3A 5705  16.909  13.138   8.574 -0.0085 -0.2234 -0.1545
  357loPI   C4A 5706  16.783  13.435   8.155  0.1786  0.0438 -0.1693
  357loPI   C5A 5707  16.967  13.514   7.825 -0.0870  0.2161  0.3223
  357loPI   C6A 5708  17.231  13.717   7.512 -0.0097  0.1158  0.2325
  357loPI   C1B 5709  16.296  13.250   9.435 -0.0265  0.1206  0.3019
  357loPI   C2B 5710  16.374  13.382   8.944  0.2158 -0.1356 -0.0563
  357loPI   C3B 5711  16.494  13.451   8.573 -0.0239  0.1220 -0.0316
  357loPI   C4B 5712  16.356  13.682   8.152  0.0664  0.3983 -0.1390
  358loPI    C1 5713  17.330   2.645  10.356  0.2948 -0.1604  0.2891
  358loPI    C2 5714  17.394   2.252  10.396  0.3272 -0.1950 -0.0659
  358loPI    C3 5715  17.183   2.450  10.673 -0.1119 -0.5584 -0.1299
  358loPI   PO4 5716  17.389   2.676  10.179  0.0928  0.0888  0.0163
  358loPI   GL1 5717  17.242   2.882   9.832 -0.3898 -0.1310 -0.0106
  358loPI   GL2 5718  17.394   2.712   9.666  0.3331 -0.1954  0.0093
  358loPI   C1A 5719  17.324   3.134   9.435 -0.1120 -0.1178 -0.1022
  358loPI   C2A 5720  17.330   3.393   9.026  0.2636 -0.2451  0.0227
  358loPI   C3A 5721  17.344   3.464   8.654 -0.0149 -0.4999  0.1448
  358loPI   C4A 5722  17.123   3.332   8.306  0.0963 -0.5047 -0.1770
  358loPI   C5A 5723  17.024   3.013   7.977 -0.1307 -0.1362  0.0508
  358loPI   C6A 5724  17.133   3.027   7.636  0.2061  0.3042 -0.2162
  358loPI   C1B 5725  17.256   2.663   9.312 -0.0078  0.1316 -0.2632
  358loPI   C2B 5726  17.314   2.520   8.883  0.1731 -0.3390  0.0676
  358loPI   C3B 5727  17.398   2.392   8.523 -0.0641 -0.2154 -0.0863
  358loPI   C4B 5728  17.212   2.275   8.119  0.2505  0.1480 -0.1709
  359loPI    C1 5729   3.998   1.043  10.216  0.0902  0.1084 -0.0822
  359loPI    C2 5730   4.020   1.425  10.331 -0.0578  0.1100 -0.0566
  359loPI    C3 5731   4.093   1.133  10.594 -0.1659  0.1175 -0.0176
  359loPI   PO4 5732   3.749   1.018  10.124 -0.0324 -0.0412 -0.1283
  359loPI   GL1 5733   3.486   0.667   9.948 -0.1224 -0.0040 -0.2141
  359loPI   GL2 5734   3.596   0.491   9.806 -0.2235 -0.3612 -0.0232
  359loPI   C1A 5735   3.181   0.720   9.518  0.3823  0.1319 -0.1011
  359loPI   C2A 5736   3.147   0.965   9.271 -0.1289 -0.1923 -0.1605
  359loPI   C3A 5737   3.136   1.127   8.892 -0.0924 -0.2118 -0.1053
  359loPI   C4A 5738   3.132   1.126   8.346  0.0858 -0.0567  0.2554
  359loPI   C5A 5739   3.456   1.283   8.138 -0.0197  0.1068 -0.2363
  359loPI   C6A 5740   3.613   1.325   7.726 -0.0855  0.3327  0.1584
  359loPI   C1B 5741   3.677   0.815   9.531  0.1621  0.0591  0.1567
  359loPI   C2B 5742   3.727   1.001   9.159  0.0721  0.4642 -0.1013
  359loPI   C3B 5743   3.618   1.259   8.899 -0.2983  0.0958 -0.0654
  359loPI   C4B 5744   3.430   1.406   8.598  0.2147  0.4051  0.0046
  360loPI    C1 5745   0.653   3.366  10.237 -0.2956  0.1262 -0.0009
  360loPI    C2 5746   0.857   3.264  10.566  0.1501 -0.1446 -0.3492
  360loPI    C3 5747   0.458   3.229  10.559  0.1133  0.0556  0.2233
  360loPI   PO4 5748   0.901   3.463  10.119 -0.0216  0.1947  0.0095
  360loPI   GL1 5749   1.186   3.347   9.791 -0.0686  0.0881 -0.1406
  360loPI   GL2 5750   1.425   3.154   9.638 -0.1365 -0.1024 -0.0374
  360loPI   C1A 5751   0.879   3.531   9.425  0.1232  0.1927  0.0701
  360loPI   C2A 5752   0.917   3.560   8.894  0.1893  0.3175  0.1482
  360loPI   C3A 5753   1.154   3.578   8.507 -0.1084  0.1034  0.2804
  360loPI   C4A 5754   1.381   3.189   8.299 -0.6312  0.2777  0.3782
  360loPI   C5A 5755   1.688   3.045   7.931  0.0599 -0.0329  0.1097
  360loPI   C6A 5756   2.130   3.066   7.778 -0.1317  0.0588 -0.0644
  360loPI   C1B 5757   1.251   3.244   9.246 -0.2376 -0.0619  0.2096
  360loPI   C2B 5758   1.262   3.149   8.790  0.2313  0.3288  0.0847
  360loPI   C3B 5759   1.127   2.801   8.530 -0.1591 -0.2082 -0.1096
  360loPI   C4B 5760   1.124   2.402   8.317 -0.0400 -0.1741  0.1981
  361loPI    C1 5761  17.304  14.155  10.378 -0.2230 -0.2630  0.0218
  361loPI    C2 5762  17.318  14.344  10.731  0.0737 -0.0409 -0.1045
  361loPI    C3 5763  17.140  13.987  10.702  0.1440 -0.1126  0.2938
  361loPI   PO4 5764  17.235  14.334  10.252  0.0778  0.1598  0.0648
  361loPI   GL1 5765  17.395  14.385   9.876  0.1399 -0.0069  0.2014
  361loPI   GL2 5766  17.309  14.769  10.005 -0.3229 -0.1511  0.0595
  361loPI   C1A 5767  17.378  14.267   9.494  0.1038  0.1384  0.2351
  361loPI   C2A 5768  17.353  14.344   9.146 -0.1929  0.0068 -0.0730
  361loPI   C3A 5769  17.503  14.360   8.823  0.3466 -0.1148  0.2602
  361loPI   C4A 5770  17.661  14.505   8.482  0.3514  0.1599 -0.1290
  361loPI   C5A 5771  17.869  14.483   8.060 -0.1614  0.0853 -0.1382
  361loPI   C6A 5772  17.813  14.352   7.630  0.0035 -0.2654 -0.1624
  361loPI   C1B 5773  17.269  14.802   9.500  0.0874 -0.1372  0.0882
  361loPI   C2B 5774  17.425  14.832   9.038  0.2066 -0.1666  0.1289
  361loPI   C3B 5775  17.425  15.078   8.703  0.1143 -0.1351  0.0989
  361loPI   C4B 5776  17.413  15.158   8.164  0.0450  0.0413  0.2143
  362loPI    C1 5777  16.656  13.305  10.634  0.2387 -0.0074 -0.0462
  362loPI    C2 5778  16.414  13.054  10.830  0.1635  0.1744  0.0956
  362loPI    C3 5779  16.732  13.211  11.015  0.3979 -0.0703 -0.0926
  362loPI   PO4 5780  16.636  13.216  10.346 -0.2363 -0.3499 -0.1046
  362loPI   GL1 5781  16.785  13.399  10.036  0.2280  0.0128 -0.0802
  362loPI   GL2 5782  16.571  13.541   9.781 -0.1620 -0.0427 -0.0673
  362loPI   C1A 5783  17.120  13.408   9.705 -0.0879 -0.1748 -0.2194
  362loPI   C2A 5784  17.250  13.495   9.316  0.0791 -0.2075  0.1110
  362loPI   C3A 5785  17.208  13.456   8.849 -0.0251 -0.1691 -0.1445
  362loPI   C4A 5786  17.281  13.672   8.459  0.0548  0.1295 -0.0590
  362loPI   C5A 5787  17.450  13.701   7.987  0.0716 -0.0079  0.0859
  362loPI   C6A 5788  17.676  13.859   7.774 -0.0819 -0.0861  0.3156
  362loPI   C1B 5789  16.694  13.604   9.282 -0.1023 -0.0463 -0.1669
  362loPI   C2B 5790  16.710  13.734   8.891  0.1918 -0.1954 -0.0048
  362loPI   C3B 5791  16.740  13.883   8.485  0.0011  0.0350 -0.2424
  362loPI   C4B 5792  16.929  13.947   8.039  0.0142  0.0536 -0.0632
  363loPI    C1 5793   2.284  16.095  10.114  0.0533 -0.1797 -0.1206
  363loPI    C2 5794   1.970  16.279  10.279  0.1815  0.1857 -0.2730
  363loPI    C3 5795   2.164  15.993  10.481 -0.1186  0.1031 -0.0960
  363loPI   PO4 5796   2.240  16.056   9.938  0.1061 -0.0365  0.0044
  363loPI   GL1 5797   2.229  16.065   9.503 -0.2145 -0.0361 -0.3440
  363loPI   GL2 5798   2.505  16.263   9.525  0.0263  0.0153 -0.2024
  363loPI   C1A 5799   2.212  15.652   9.293  0.1654  0.1023 -0.3497
  363loPI   C2A 5800   2.307  15.255   8.900 -0.1294 -0.0345 -0.0820
  363loPI   C3A 5801   2.165  15.152   8.421  0.1357 -0.3828  0.1450
  363loPI   C4A 5802   2.184  14.865   8.024  0.3192 -0.0422  0.1996
  363loPI   C5A 5803   2.225  14.544   7.593  0.1313 -0.1454  0.0761
  363loPI   C6A 5804   2.379  14.613   7.135  0.2172 -0.0011  0.0511
  363loPI   C1B 5805   2.304  16.301   9.010 -0.0087 -0.2074  0.0058
  363loPI   C2B 5806   2.372  16.203   8.556  0.0400  0.1458  0.0379
  363loPI   C3B 5807   2.574  15.890   8.239  0.1995 -0.1046 -0.0874
  363loPI   C4B 5808   2.809  15.715   7.920  0.0739 -0.4267 -0.0427
  364loPI    C1 5809  11.630   4.378  10.278  0.0818  0.0911  0.0939
  364loPI    C2 5810  11.907   4.641  10.398  0.2704 -0.0243 -0.0815
  364loPI    C3 5811  12.014   4.269  10.296  0.0382 -0.0965 -0.0689
  364loPI   PO4 5812  11.401   4.472  10.372  0.0327 -0.0806 -0.0015
  364loPI   GL1 5813  11.253   4.687   9.952  0.1504 -0.0972 -0.3450
  364loPI   GL2 5814  10.993   4.459  10.043  0.2338 -0.1446  0.0612
  364loPI   C1A 5815  11.233   4.721   9.564  0.1325  0.1305 -0.1897
  364loPI   C2A 5816  10.952   4.659   9.226 -0.0825 -0.3130  0.2214
  364loPI   C3A 5817  10.917   4.753   8.808 -0.2246  0.0305 -0.0246
  364loPI   C4A 5818  10.798   4.886   8.428 -0.1956  0.2747 -0.1595
  364loPI   C5A 5819  10.724   5.220   7.982  0.0188  0.0976  0.1822
  364loPI   C6A 5820  10.950   5.593   7.968  0.1481 -0.0462  0.1501
  364loPI   C1B 5821  10.785   4.504   9.693  0.1135 -0.0489  0.1458
  364loPI   C2B 5822  10.431   4.416   9.321  0.2043 -0.4245  0.0226
  364loPI   C3B 5823  10.213   4.452   8.931 -0.0510 -0.1563  0.1471
  364loPI   C4B 5824  10.140   4.316   8.440 -0.1502 -0.0087  0.0111
  365loPI    C1 5825  15.847   5.816  10.311  0.0285 -0.2541 -0.1715
  365loPI    C2 5826  15.884   5.484  10.531 -0.0226 -0.1242  0.0367
  365loPI    C3 5827  15.589   5.514  10.263  0.0417 -0.2847 -0.0533
  365loPI   PO4 5828  16.068   5.898  10.124  0.2652 -0.0895 -0.0351
  365loPI   GL1 5829  16.240   5.884   9.675 -0.0645 -0.0697  0.0988
  365loPI   GL2 5830  16.319   6.192   9.836  0.0548 -0.2308  0.0276
  365loPI   C1A 5831  16.129   5.987   9.229 -0.0349 -0.0337  0.2171
  365loPI   C2A 5832  16.164   5.837   8.880  0.1617  0.0869  0.1825
  365loPI   C3A 5833  16.153   5.843   8.416 -0.1157 -0.2586  0.1208
  365loPI   C4A 5834  16.036   6.037   8.004 -0.3184 -0.2860  0.0687
  365loPI   C5A 5835  16.034   5.923   7.617  0.1106  0.3028 -0.0311
  365loPI   C6A 5836  15.973   5.865   7.176 -0.4123  0.1548 -0.2309
  365loPI   C1B 5837  16.435   6.347   9.479 -0.1225  0.2889 -0.1423
  365loPI   C2B 5838  16.472   6.372   9.151 -0.1206 -0.1352  0.0281
  365loPI   C3B 5839  16.518   6.198   8.652 -0.3381  0.0929 -0.2621
  365loPI   C4B 5840  16.405   6.274   8.252  0.0846  0.0851 -0.0003
  366loPI    C1 5841   6.648  11.388  10.261 -0.0319 -0.2164  0.2166
  366loPI    C2 5842   6.552  11.768  10.344 -0.1594 -0.2414  0.1841
  366loPI    C3 5843   6.864  11.688  10.107 -0.1641 -0.1555  0.1484
  366loPI   PO4 5844   6.517  11.200  10.148 -0.0718 -0.1628  0.1492
  366loPI   GL1 5845   6.434  11.040   9.731 -0.2120  0.2355 -0.1670
  366loPI   GL2 5846   6.162  10.716   9.724  0.0677 -0.0703  0.1150
  366loPI   C1A 5847   6.410  10.872   9.257 -0.0376 -0.0202  0.2482
  366loPI   C2A 5848   6.482  10.841   8.876 -0.1848  0.2552 -0.1076
  366loPI   C3A 5849   6.539  10.597   8.528 -0.0417  0.1714 -0.0084
  366loPI   C4A 5850   6.401  10.772   8.184  0.1391 -0.2034  0.3009
  366loPI   C5A 5851   6.320  10.785   7.750  0.2146 -0.0488 -0.2282
  366loPI   C6A 5852   6.005  11.058   7.733  0.0252 -0.0815 -0.2597
  366loPI   C1B 5853   6.004  10.520   9.386 -0.0232 -0.2699  0.1413
  366loPI   C2B 5854   5.965  10.451   8.932  0.1359  0.0672 -0.0862
  366loPI   C3B 5855   5.976  10.492   8.506 -0.0178  0.0170  0.3164
  366loPI   C4B 5856   6.031  10.419   7.971  0.2674  0.3005 -0.1301
  367loPI    C1 5857   5.901   4.356  10.198 -0.0179  0.2771 -0.2406
  367loPI    C2 5858   6.290   4.299  10.269 -0.0457  0.1699 -0.1729
  367loPI    C3 5859   6.026   4.265  10.567 -0.1290  0.0358 -0.2606
  367loPI   PO4 5860   5.893   4.640  10.109 -0.2643 -0.1453  0.0153
  367loPI   GL1 5861   5.781   4.767   9.679 -0.1687  0.2475 -0.1250
  367loPI   GL2 5862   5.622   5.106   9.736  0.2977  0.1079 -0.0371
  367loPI   C1A 5863   5.727   4.904   9.248  0.0467  0.1444  0.3539
  367loPI   C2A 5864   5.579   4.859   8.812  0.0240  0.0867 -0.0960
  367loPI   C3A 5865   5.364   4.659   8.477  0.0925  0.1450 -0.0717
  367loPI   C4A 5866   5.402   4.264   8.221  0.0442  0.0701  0.2093
  367loPI   C5A 5867   5.459   3.931   7.842 -0.2189 -0.1686 -0.0410
  367loPI   C6A 5868   5.438   3.638   7.445 -0.0693 -0.0951 -0.0927
  367loPI   C1B 5869   5.414   5.283   9.423  0.0166 -0.1677 -0.1873
  367loPI   C2B 5870   5.381   5.275   9.049 -0.1354 -0.2091  0.0974
  367loPI   C3B 5871   5.429   5.436   8.627 -0.1445  0.1873  0.0920
  367loPI   C4B 5872   5.392   5.523   8.105  0.0492 -0.0229  0.1801
  368loPI    C1 5873   5.194  11.984   9.658 -0.0312  0.0544  0.0669
  368loPI    C2 5874   5.536  11.973   9.866 -0.0864 -0.1890  0.1483
  368loPI    C3 5875   5.286  12.284   9.906  0.3016  0.1801 -0.2007
  368loPI   PO4 5876   5.272  11.900   9.411  0.2936 -0.2254 -0.1943
  368loPI   GL1 5877   5.138  11.988   9.023  0.1096  0.0245  0.0534
  368loPI   GL2 5878   5.102  12.338   9.099 -0.0951 -0.0461 -0.3772
  368loPI   C1A 5879   5.197  12.130   8.620 -0.1776 -0.1233 -0.0608
  368loPI   C2A 5880   5.330  12.404   8.318 -0.3101 -0.3251 -0.2851
  368loPI   C3A 5881   5.646  12.764   8.160  0.0475  0.2725 -0.0466
  368loPI   C4A 5882   5.975  12.896   7.899  0.0120 -0.1166  0.0249
  368loPI   C5A 5883   6.143  13.216   7.624 -0.1145 -0.2367 -0.0461
  368loPI   C6A 5884   6.560  13.365   7.606 -0.0759  0.3048  0.0280
  368loPI   C1B 5885   4.685  12.250   8.990 -0.0141 -0.1984  0.1942
  368loPI   C2B 5886   4.565  12.467   8.671 -0.2891 -0.1332 -0.0703
  368loPI   C3B 5887   4.472  12.410   8.218  0.0755 -0.0045 -0.0132
  368loPI   C4B 5888   4.440  12.603   7.926  0.1893 -0.1373  0.2630
  369loPI    C1 5889   7.458  14.469  10.353  0.2629  0.1198  0.0889
  369loPI    C2 5890   7.288  14.799  10.502  0.1007  0.0738  0.0089
  369loPI    C3 5891   7.627  14.658  10.663  0.1067  0.2115  0.1192
  369loPI   PO4 5892   7.356  14.227  10.314 -0.1331 -0.2099 -0.4327
  369loPI   GL1 5893   7.403  14.134   9.898  0.1697  0.2098  0.2462
  369loPI   GL2 5894   7.590  13.775   9.697  0.2310 -0.3552  0.1778
  369loPI   C1A 5895   7.252  14.329   9.587 -0.1123 -0.1297 -0.1067
  369loPI   C2A 5896   7.304  14.393   9.267 -0.0983 -0.0557  0.0934
  369loPI   C3A 5897   7.142  14.364   8.894 -0.1885  0.2758 -0.2559
  369loPI   C4A 5898   7.072  14.259   8.443  0.2616 -0.0771 -0.1264
  369loPI   C5A 5899   7.007  14.508   8.062 -0.0819 -0.1546 -0.0242
  369loPI   C6A 5900   6.801  14.409   7.640  0.3093 -0.4277 -0.0350
  369loPI   C1B 5901   7.425  13.879   9.397 -0.0988  0.0154 -0.0698
  369loPI   C2B 5902   7.510  13.956   8.994 -0.0531 -0.1995 -0.0577
  369loPI   C3B 5903   7.606  14.038   8.549  0.0230 -0.0629  0.1154
  369loPI   C4B 5904   7.358  14.040   8.170  0.1520  0.1000  0.0432
  370loPI    C1 5905  11.031   2.817  10.282  0.0574 -0.1072  0.2874
  370loPI    C2 5906  11.404   2.903  10.400  0.1629  0.0819 -0.1639
  370loPI    C3 5907  11.153   3.197  10.299 -0.1702 -0.0336  0.2974
  370loPI   PO4 5908  11.035   2.677  10.105  0.1378  0.0359  0.3991
  370loPI   GL1 5909  11.034   2.332   9.800 -0.1572 -0.0769  0.2849
  370loPI   GL2 5910  11.407   2.287   9.861  0.2672  0.2212  0.1893
  370loPI   C1A 5911  10.898   2.215   9.368  0.1870  0.0730 -0.0885
  370loPI   C2A 5912  10.804   2.041   8.975 -0.1576  0.1661 -0.1306
  370loPI   C3A 5913  10.781   1.981   8.498  0.2868 -0.0297 -0.2589
  370loPI   C4A 5914  10.874   1.993   8.124 -0.3472 -0.1696  0.0671
  370loPI   C5A 5915  10.841   2.005   7.625  0.1259 -0.0515 -0.0471
  370loPI   C6A 5916  11.119   1.865   7.323  0.1043 -0.0354 -0.1838
  370loPI   C1B 5917  11.399   2.337   9.480  0.1434 -0.0643  0.1393
  370loPI   C2B 5918  11.450   2.548   9.145 -0.0207 -0.1294  0.2471
  370loPI   C3B 5919  11.060   2.456   8.939  0.0135  0.0954 -0.0793
  370loPI   C4B 5920  10.999   2.474   8.511  0.2457 -0.4041 -0.1110
  371loPI    C1 5921   2.346   4.900  10.426  0.1537 -0.0554 -0.0052
  371loPI    C2 5922   2.040   4.908  10.684  0.2156  0.0854  0.0651
  371loPI    C3 5923   2.314   4.617  10.707  0.1388  0.0122  0.0615
  371loPI   PO4 5924   2.176   4.923  10.188  0.1117  0.1958 -0.3674
  371loPI   GL1 5925   1.841   5.064   9.873  0.2065  0.2946  0.0925
  371loPI   GL2 5926   2.177   5.128   9.707  0.0131  0.0586  0.0557
  371loPI   C1A 5927   1.749   5.160   9.432 -0.3348 -0.2971  0.0358
  371loPI   C2A 5928   1.915   5.291   8.981 -0.0373 -0.3589  0.3450
  371loPI   C3A 5929   1.788   5.240   8.572 -0.0091 -0.1060 -0.2356
  371loPI   C4A 5930   1.926   5.132   8.095 -0.0898 -0.1656 -0.4145
  371loPI   C5A 5931   2.366   5.129   7.945  0.3063  0.0477  0.2099
  371loPI   C6A 5932   2.659   5.094   8.026  0.1774  0.1049 -0.0139
  371loPI   C1B 5933   2.247   5.108   9.296 -0.0687  0.0670  0.0240
  371loPI   C2B 5934   2.329   4.917   8.952  0.1509 -0.2837 -0.2571
  371loPI   C3B 5935   2.483   4.467   8.826  0.2472  0.3277 -0.0328
  371loPI   C4B 5936   2.629   4.120   8.629  0.2109  0.0484  0.0448
  372loPI    C1 5937   3.370  18.378  10.398  0.0084 -0.1558 -0.1725
  372loPI    C2 5938   3.702  18.247  10.578 -0.0953 -0.0694  0.0868
  372loPI    C3 5939   3.423  18.440  10.789 -0.1957  0.0830 -0.1802
  372loPI   PO4 5940   3.432  18.624  10.242 -0.3034 -0.0957  0.1376
  372loPI   GL1 5941   3.501  18.734   9.803 -0.4010 -0.1498 -0.2498
  372loPI   GL2 5942   3.380  18.544   9.674 -0.0409  0.0876  0.1246
  372loPI   C1A 5943   3.597  18.981   9.406 -0.0517  0.1042 -0.1224
  372loPI   C2A 5944   3.483  19.220   9.134  0.1322 -0.3291  0.0505
  372loPI   C3A 5945   3.396  19.402   8.905  0.0683 -0.1603  0.1150
  372loPI   C4A 5946   3.479  19.576   8.552 -0.1282 -0.1664 -0.2034
  372loPI   C5A 5947   3.537  19.527   8.075 -0.0972 -0.1507 -0.0584
  372loPI   C6A 5948   3.494  19.617   7.531  0.2293 -0.0092  0.3315
  372loPI   C1B 5949   3.415  18.521   9.240 -0.2944 -0.1089  0.0017
  372loPI   C2B 5950   3.467  18.506   8.752 -0.1974  0.0762  0.0108
  372loPI   C3B 5951   3.506  18.619   8.314 -0.0810  0.0688  0.1116
  372loPI   C4B 5952   3.465  18.740   7.941 -0.0277  0.0186 -0.2645
  373loPI    C1 5953  10.212  11.614  10.137  0.0677  0.0327  0.0780
  373loPI    C2 5954  10.482  11.326  10.207  0.0325 -0.0536 -0.1331
  373loPI    C3 5955  10.342  11.547  10.509  0.1320 -0.1939  0.0171
  373loPI   PO4 5956   9.996  11.481  10.034  0.1364  0.1645 -0.0918
  373loPI   GL1 5957   9.945  11.566   9.545 -0.2460  0.0402 -0.0151
  373loPI   GL2 5958   9.791  11.869   9.522  0.2631 -0.0100  0.0389
  373loPI   C1A 5959   9.809  11.323   9.155 -0.0500 -0.0336  0.0154
  373loPI   C2A 5960   9.761  11.309   8.747 -0.1879  0.0559  0.1070
  373loPI   C3A 5961   9.769  11.076   8.368  0.0952  0.1014 -0.1083
  373loPI   C4A 5962   9.760  10.722   8.133 -0.3974 -0.2408  0.1114
  373loPI   C5A 5963   9.772  10.255   8.273 -0.1905  0.3808  0.0892
  373loPI   C6A 5964   9.566   9.919   7.990  0.1676  0.0497  0.3659
  373loPI   C1B 5965   9.839  11.852   9.076 -0.2268  0.0016 -0.1519
  373loPI   C2B 5966   9.885  11.840   8.640  0.1271  0.2679  0.1083
  373loPI   C3B 5967   9.892  11.855   8.213  0.2078 -0.0176  0.3570
  373loPI   C4B 5968   9.836  11.601   7.849 -0.1021 -0.2963 -0.1197
  374loPI    C1 5969   8.930  12.680   9.788  0.0752 -0.0548  0.1834
  374loPI    C2 5970   8.701  12.827  10.082 -0.0752 -0.2698  0.1756
  374loPI    C3 5971   8.796  13.057   9.769  0.3251  0.0566  0.5252
  374loPI   PO4 5972   8.848  12.417   9.761  0.0592 -0.4416 -0.0823
  374loPI   GL1 5973   8.901  12.274   9.349  0.1661  0.0483 -0.1718
  374loPI   GL2 5974   8.615  12.027   9.341 -0.3808 -0.2446 -0.3457
  374loPI   C1A 5975   8.996  12.386   8.934  0.1424 -0.1423 -0.2829
  374loPI   C2A 5976   8.962  12.359   8.465  0.1245 -0.2623  0.3309
  374loPI   C3A 5977   8.947  12.323   8.119 -0.1638  0.3199  0.0648
  374loPI   C4A 5978   8.896  12.468   7.831  0.2894  0.1326  0.0627
  374loPI   C5A 5979   8.834  12.701   7.478 -0.1456 -0.1128 -0.1851
  374loPI   C6A 5980   8.857  12.676   7.064  0.1067  0.1179 -0.1357
  374loPI   C1B 5981   8.407  12.111   8.987 -0.1269  0.0546  0.2438
  374loPI   C2B 5982   8.433  12.180   8.502 -0.0748 -0.1628  0.1766
  374loPI   C3B 5983   8.474  12.118   8.119 -0.0433  0.2387 -0.1375
  374loPI   C4B 5984   8.519  12.094   7.654  0.3624  0.1356  0.2574
  375loPI    C1 5985  10.444   0.629  10.253 -0.0608 -0.0062 -0.1384
  375loPI    C2 5986  10.779   0.411  10.253 -0.0810 -0.0381 -0.0062
  375loPI    C3 5987  10.468   0.299  10.478 -0.1266  0.0732 -0.0134
  375loPI   PO4 5988  10.620   0.927  10.335  0.1345  0.1148  0.2143
  375loPI   GL1 5989  10.936   0.899   9.988  0.1967  0.4153 -0.3158
  375loPI   GL2 5990  10.738   0.789   9.846  0.0276 -0.2481  0.0503
  375loPI   C1A 5991  11.231   0.915   9.667  0.0068 -0.0459 -0.1917
  375loPI   C2A 5992  11.369   0.834   9.196 -0.3054  0.3672  0.0171
  375loPI   C3A 5993  11.484   0.921   8.757 -0.1045  0.0864 -0.0342
  375loPI   C4A 5994  11.467   1.123   8.463  0.3492  0.0190 -0.3406
  375loPI   C5A 5995  11.450   1.040   8.001  0.5161 -0.1611 -0.0361
  375loPI   C6A 5996  11.640   0.991   7.607 -0.0942 -0.0404 -0.2450
  375loPI   C1B 5997  10.867   0.621   9.384  0.2828 -0.1054  0.0754
  375loPI   C2B 5998  10.994   0.508   8.991 -0.2733  0.2413  0.4290
  375loPI   C3B 5999  10.890   0.611   8.569 -0.0764 -0.0989  0.0725
  375loPI   C4B 6000  10.571   0.685   8.206  0.3488 -0.1954  0.0115
  376loPI    C1 6001  14.588   2.055  10.186  0.0610 -0.1144 -0.1614
  376loPI    C2 6002  14.964   2.126  10.069  0.0026  0.0670 -0.2430
  376loPI    C3 6003  14.866   2.151  10.456  0.0695  0.0425 -0.2244
  376loPI   PO4 6004  14.400   2.285  10.094 -0.0696  0.4483  0.0417
  376loPI   GL1 6005  14.348   2.364   9.683  0.0741  0.0850 -0.4953
  376loPI   GL2 6006  14.239   2.669   9.686 -0.1441  0.2009  0.2085
  376loPI   C1A 6007  14.178   2.190   9.283 -0.3731  0.1369  0.1317
  376loPI   C2A 6008  14.130   1.826   9.197  0.2470  0.0665 -0.1159
  376loPI   C3A 6009  14.107   1.820   8.781 -0.3899 -0.0153 -0.1331
  376loPI   C4A 6010  13.998   1.707   8.429 -0.0488  0.1224  0.0925
  376loPI   C5A 6011  13.722   1.693   8.082 -0.0930 -0.2485 -0.3036
  376loPI   C6A 6012  13.469   1.521   7.737  0.1059 -0.1446  0.0508
  376loPI   C1B 6013  14.320   2.629   9.270  0.0173 -0.3063  0.0374
  376loPI   C2B 6014  14.375   2.699   8.762  0.2365 -0.2542 -0.1182
  376loPI   C3B 6015  14.574   2.486   8.438 -0.1070  0.2599  0.0696
  376loPI   C4B 6016  14.582   2.214   8.037  0.1815  0.1495  0.0297
  377loPI    C1 6017  17.039  15.661  10.070  0.1326  0.1131 -0.1323
  377loPI    C2 6018  16.962  16.032  10.199  0.3576  0.2052 -0.2588
  377loPI    C3 6019  17.210  15.795  10.406  0.0003  0.0241 -0.0280
  377loPI   PO4 6020  16.823  15.611   9.916 -0.1868 -0.1614  0.2809
  377loPI   GL1 6021  16.715  15.588   9.504 -0.0286  0.0425  0.1990
  377loPI   GL2 6022  16.535  15.336   9.512 -0.2179 -0.2862 -0.0376
  377loPI   C1A 6023  16.782  15.642   9.113 -0.0548  0.1126 -0.0581
  377loPI   C2A 6024  17.095  15.825   8.828 -0.3083 -0.0574  0.2026
  377loPI   C3A 6025  17.157  16.027   8.384  0.0953  0.1143 -0.2778
  377loPI   C4A 6026  17.158  16.347   8.123  0.1325  0.4322  0.0011
  377loPI   C5A 6027  17.367  16.689   7.939  0.0356  0.0776  0.2976
  377loPI   C6A 6028  17.768  16.857   7.712 -0.3252 -0.2022 -0.0569
  377loPI   C1B 6029  16.239  15.206   9.268  0.2126 -0.1895 -0.2027
  377loPI   C2B 6030  16.216  15.157   8.795 -0.1828  0.0891 -0.0853
  377loPI   C3B 6031  16.174  15.184   8.369  0.2573 -0.1846  0.0162
  377loPI   C4B 6032  15.974  14.927   8.012 -0.1130 -0.0208  0.0081
  378loPI    C1 6033   3.158  13.430  10.121 -0.0042 -0.1148  0.2725
  378loPI    C2 6034   3.195  13.677  10.434  0.1073  0.0394  0.1394
  378loPI    C3 6035   2.851  13.483  10.371  0.0404  0.1105  0.2818
  378loPI   PO4 6036   3.179  13.493   9.860 -0.2124 -0.2016 -0.1250
  378loPI   GL1 6037   3.032  13.652   9.390  0.2775  0.1279 -0.2622
  378loPI   GL2 6038   3.181  13.380   9.378  0.1385  0.0884 -0.1462
  378loPI   C1A 6039   3.094  13.796   8.881  0.2033  0.1152 -0.0249
  378loPI   C2A 6040   3.130  13.572   8.503  0.2763  0.0959  0.0402
  378loPI   C3A 6041   3.058  13.588   8.025 -0.1911 -0.0375  0.3726
  378loPI   C4A 6042   2.745  13.572   7.727 -0.0337 -0.1543 -0.0783
  378loPI   C5A 6043   2.909  13.785   7.351 -0.1028  0.0843 -0.2234
  378loPI   C6A 6044   3.012  14.208   7.347  0.1809  0.0011 -0.1921
  378loPI   C1B 6045   3.249  13.337   8.951  0.5398  0.1391  0.0200
  378loPI   C2B 6046   3.397  13.185   8.665 -0.0075  0.1140 -0.4266
  378loPI   C3B 6047   3.448  13.222   8.232 -0.0805 -0.0989  0.2263
  378loPI   C4B 6048   3.583  13.441   7.898 -0.0902  0.2423  0.1531
  379loPI    C1 6049  11.396  10.540  10.061 -0.2209 -0.3258 -0.0063
  379loPI    C2 6050  11.140  10.828  10.168 -0.1760 -0.1938 -0.2484
  379loPI    C3 6051  11.209  10.521  10.414 -0.1900  0.0242  0.0322
  379loPI   PO4 6052  11.479  10.604   9.887  0.0323 -0.0480  0.3485
  379loPI   GL1 6053  11.433  10.628   9.493  0.1133  0.1558 -0.4878
  379loPI   GL2 6054  11.731  10.730   9.380  0.0071 -0.0595  0.3018
  379loPI   C1A 6055  11.520  10.542   9.006  0.1073 -0.0091 -0.0484
  379loPI   C2A 6056  11.729  10.553   8.580  0.1803 -0.1861 -0.0457
  379loPI   C3A 6057  11.698  10.599   8.136 -0.0369  0.1139 -0.0780
  379loPI   C4A 6058  11.876  10.436   7.722 -0.3246  0.2074 -0.1155
  379loPI   C5A 6059  12.151  10.095   7.523  0.1169 -0.0139  0.2242
  379loPI   C6A 6060  11.970   9.783   7.265 -0.3272 -0.0146 -0.0808
  379loPI   C1B 6061  11.555  11.047   9.074 -0.0919 -0.1426 -0.0855
  379loPI   C2B 6062  11.639  11.186   8.622 -0.1985 -0.0278 -0.3815
  379loPI   C3B 6063  11.730  11.160   8.162  0.1204  0.2800  0.1579
  379loPI   C4B 6064  11.681  11.365   7.760  0.2121  0.2165 -0.1143
  380loPI    C1 6065   7.589   2.191  10.039  0.1645 -0.2814 -0.1745
  380loPI    C2 6066   7.773   1.990  10.332  0.0725  0.0724  0.1344
  380loPI    C3 6067   7.384   1.929  10.262  0.1370 -0.1515 -0.0459
  380loPI   PO4 6068   7.632   2.185   9.883  0.2020 -0.1363  0.2801
  380loPI   GL1 6069   7.751   2.513   9.635  0.2639 -0.1924  0.0767
  380loPI   GL2 6070   8.065   2.344   9.630  0.3004 -0.0664  0.1248
  380loPI   C1A 6071   7.831   2.813   9.328 -0.1216 -0.0547  0.1058
  380loPI   C2A 6072   7.790   2.709   8.752 -0.3193  0.0672 -0.2479
  380loPI   C3A 6073   7.859   2.906   8.418  0.1661 -0.4151  0.1139
  380loPI   C4A 6074   7.776   3.105   8.025  0.1383  0.0533  0.1434
  380loPI   C5A 6075   7.953   3.363   7.815  0.0600 -0.0685  0.0467
  380loPI   C6A 6076   8.113   3.755   7.939 -0.0348  0.0270 -0.4235
  380loPI   C1B 6077   8.047   2.347   9.213 -0.1598 -0.3345 -0.0440
  380loPI   C2B 6078   8.198   2.499   8.874 -0.1022 -0.2082 -0.2589
  380loPI   C3B 6079   8.210   2.575   8.497  0.1505 -0.1654  0.2030
  380loPI   C4B 6080   8.248   2.570   8.046 -0.3378  0.1472  0.1694
  381loPI    C1 6081   7.315  11.856  10.292 -0.1978 -0.2727 -0.0528
  381loPI    C2 6082   7.348  11.977  10.672 -0.1396  0.0855 -0.1679
  381loPI    C3 6083   7.007  12.038  10.472 -0.1901 -0.1541 -0.1586
  381loPI   PO4 6084   7.546  11.930  10.086 -0.1641  0.1837 -0.3079
  381loPI   GL1 6085   7.534  12.001   9.612  0.0199 -0.0929 -0.3019
  381loPI   GL2 6086   7.790  11.958   9.582 -0.1254 -0.0294  0.3481
  381loPI   C1A 6087   7.522  12.253   9.167 -0.1663  0.1800  0.2511
  381loPI   C2A 6088   7.561  12.128   8.742 -0.0158 -0.2285  0.0561
  381loPI   C3A 6089   7.583  12.181   8.359  0.0249 -0.0776 -0.1433
  381loPI   C4A 6090   7.575  12.038   7.945 -0.0924  0.2734  0.1913
  381loPI   C5A 6091   7.665  11.735   7.585  0.0029  0.1313 -0.2153
  381loPI   C6A 6092   7.558  11.449   7.189  0.0939  0.2139  0.2004
  381loPI   C1B 6093   7.646  11.789   9.170  0.1299  0.1857  0.1567
  381loPI   C2B 6094   7.629  11.624   8.689 -0.0187  0.1067  0.0904
  381loPI   C3B 6095   7.505  11.546   8.247 -0.0641 -0.4705 -0.3926
  381loPI   C4B 6096   7.413  11.322   7.888 -0.1151  0.1772 -0.0034
  382loPI    C1 6097   9.724   3.939  10.477 -0.2658  0.2266 -0.2924
  382loPI    C2 6098   9.809   4.202  10.765  0.1184 -0.0854 -0.1106
  382loPI    C3 6099   9.653   3.847  10.860  0.0711 -0.1181 -0.3070
  382loPI   PO4 6100   9.574   4.013  10.271  0.0440  0.1444 -0.2362
  382loPI   GL1 6101   9.628   4.018   9.899  0.1376 -0.1313 -0.1759
  382loPI   GL2 6102   9.758   4.342   9.936 -0.1768  0.3140 -0.1342
  382loPI   C1A 6103   9.580   3.888   9.406 -0.1797  0.3431  0.0410
  382loPI   C2A 6104   9.932   3.704   9.158 -0.1827 -0.0521 -0.1852
  382loPI   C3A 6105  10.190   3.914   8.791  0.0547 -0.1177  0.0656
  382loPI   C4A 6106  10.324   3.809   8.341 -0.1703 -0.1590 -0.1262
  382loPI   C5A 6107  10.348   3.872   7.947 -0.1193 -0.0477 -0.0052
  382loPI   C6A 6108  10.746   3.936   7.737 -0.2185  0.1860 -0.1167
  382loPI   C1B 6109   9.979   4.282   9.606  0.0468  0.0478 -0.1100
  382loPI   C2B 6110   9.878   4.200   9.132  0.0388 -0.1609 -0.1885
  382loPI   C3B 6111   9.717   4.281   8.751  0.4028  0.4138 -0.0361
  382loPI   C4B 6112   9.356   4.363   8.415  0.1691  0.2178  0.1379
  383loPI    C1 6113  13.350  11.336  10.031 -0.1502  0.0487  0.0511
  383loPI    C2 6114  13.296  10.939  10.025 -0.0936  0.0415  0.0120
  383loPI    C3 6115  13.375  11.124  10.370  0.2076 -0.0261 -0.0183
  383loPI   PO4 6116  13.089  11.560   9.951 -0.1214  0.2238  0.2595
  383loPI   GL1 6117  13.013  11.597   9.592 -0.0506  0.1879 -0.2824
  383loPI   GL2 6118  12.994  11.866   9.323 -0.2854  0.3218  0.1774
  383loPI   C1A 6119  13.272  11.424   9.268 -0.1058  0.0480  0.2254
  383loPI   C2A 6120  13.355  11.709   8.951  0.1845 -0.1729 -0.3397
  383loPI   C3A 6121  13.525  11.795   8.598 -0.0588  0.1782  0.4812
  383loPI   C4A 6122  13.625  11.738   8.161 -0.1230 -0.1873 -0.3696
  383loPI   C5A 6123  13.885  11.605   7.833  0.2338 -0.4366 -0.1186
  383loPI   C6A 6124  14.229  11.792   7.586 -0.1923 -0.1164  0.1138
  383loPI   C1B 6125  12.800  11.833   8.860  0.0678  0.3623  0.1526
  383loPI   C2B 6126  12.606  11.695   8.382 -0.2785  0.0327  0.1926
  383loPI   C3B 6127  12.572  11.669   7.918 -0.2314  0.0481 -0.3058
  383loPI   C4B 6128  12.852  11.793   7.543 -0.0835 -0.1720 -0.1870
  384loPI    C1 6129  18.649   5.124  10.008  0.0666 -0.0085 -0.4304
  384loPI    C2 6130  18.263   5.139   9.904 -0.0722  0.3416  0.0944
  384loPI    C3 6131  18.373   5.233  10.277  0.4840 -0.1249  0.0613
  384loPI   PO4 6132  18.748   5.192   9.851  0.0814 -0.1645 -0.0208
  384loPI   GL1 6133  18.548   5.126   9.472 -0.4262  0.3413  0.1205
  384loPI   GL2 6134  18.259   4.929   9.458 -0.0363 -0.2400 -0.1398
  384loPI   C1A 6135  18.777   5.201   9.067 -0.2504 -0.0806 -0.1035
  384loPI   C2A 6136  18.669   5.132   8.691  0.1710 -0.2233  0.1620
  384loPI   C3A 6137  18.492   4.890   8.335  0.1235  0.1199 -0.1917
  384loPI   C4A 6138  18.495   4.898   7.925  0.1345  0.0728  0.0882
  384loPI   C5A 6139  18.297   5.147   7.576  0.1620  0.0343 -0.2750
  384loPI   C6A 6140  18.158   5.263   7.136 -0.3005 -0.4004  0.0272
  384loPI   C1B 6141  18.312   4.963   9.039  0.0101  0.4902  0.1892
  384loPI   C2B 6142  18.225   4.602   8.791  0.1497 -0.0703 -0.1113
  384loPI   C3B 6143  18.015   4.227   8.618 -0.1000  0.4261 -0.0963
  384loPI   C4B 6144  17.795   4.204   8.244  0.0197 -0.1725 -0.1308
  385loPI    C1 6145   0.032   1.676  10.385  0.1852  0.1868 -0.2282
  385loPI    C2 6146  -0.031   2.034  10.219  0.0668  0.2348 -0.0818
  385loPI    C3 6147   0.205   2.001  10.541  0.1506  0.1679 -0.1498
  385loPI   PO4 6148   0.130   1.551  10.101  0.4348 -0.0009 -0.1447
  385loPI   GL1 6149   0.325   1.464   9.665  0.0009  0.2582 -0.0156
  385loPI   GL2 6150   0.090   1.374   9.685  0.1202 -0.2308  0.0245
  385loPI   C1A 6151   0.255   1.376   9.241 -0.0679  0.0027 -0.1365
  385loPI   C2A 6152   0.460   1.557   8.879  0.0540  0.1600 -0.0132
  385loPI   C3A 6153   0.623   1.572   8.521 -0.0132 -0.2092 -0.1320
  385loPI   C4A 6154   0.662   1.755   8.157  0.1129 -0.1140  0.1341
  385loPI   C5A 6155   1.064   1.804   8.007 -0.0667 -0.0774  0.1632
  385loPI   C6A 6156   1.405   1.600   7.911  0.1067 -0.0836  0.4097
  385loPI   C1B 6157  -0.112   1.100   9.356 -0.3046 -0.1096 -0.2335
  385loPI   C2B 6158  -0.224   0.759   9.088 -0.0663 -0.2017 -0.1577
  385loPI   C3B 6159  -0.678   0.604   9.066 -0.2428 -0.2569  0.1595
  385loPI   C4B 6160  -0.891   0.743   8.655 -0.3712  0.4651 -0.0641
  386loPI    C1 6161   5.711  11.502  10.180  0.2280 -0.2191  0.3390
  386loPI    C2 6162   5.617  11.797  10.433  0.1158  0.0921 -0.0549
  386loPI    C3 6163   5.378  11.478  10.401  0.2169 -0.0302  0.3442
  386loPI   PO4 6164   5.743  11.558   9.951 -0.2354 -0.3612 -0.2676
  386loPI   GL1 6165   5.603  11.453   9.624  0.1651 -0.0613  0.1648
  386loPI   GL2 6166   5.778  11.612   9.379  0.3207  0.0203  0.1353
  386loPI   C1A 6167   5.287  11.229   9.266  0.0205  0.3483  0.1595
  386loPI   C2A 6168   5.255  11.236   8.876 -0.0562 -0.1419  0.0758
  386loPI   C3A 6169   5.018  11.481   8.528 -0.2710  0.0770 -0.1913
  386loPI   C4A 6170   4.951  11.732   8.182 -0.0333 -0.2465 -0.2846
  386loPI   C5A 6171   4.966  12.173   8.103  0.0102  0.0043 -0.1719
  386loPI   C6A 6172   5.178  12.616   7.908 -0.0980  0.1727  0.1454
  386loPI   C1B 6173   5.700  11.349   9.013 -0.0289 -0.2855 -0.0558
  386loPI   C2B 6174   5.678  11.221   8.616  0.3610  0.0397 -0.2318
  386loPI   C3B 6175   5.667  11.364   8.193  0.0466  0.3609 -0.3894
  386loPI   C4B 6176   5.633  11.393   7.815 -0.0221  0.1143  0.2696
  387loPI    C1 6177  12.385   7.191  10.011  0.0224  0.3041 -0.2358
  387loPI    C2 6178  12.410   7.546  10.193  0.1115  0.2065 -0.0562
  387loPI    C3 6179  12.085   7.319  10.243  0.1228  0.1933 -0.0427
  387loPI   PO4 6180  12.354   7.128   9.613  0.2569 -0.0663 -0.1805
  387loPI   GL1 6181  12.114   7.188   9.379  0.1827 -0.2511  0.1151
  387loPI   GL2 6182  12.101   7.559   9.218 -0.0741 -0.0275 -0.3942
  387loPI   C1A 6183  12.135   7.133   8.960  0.4253 -0.1678  0.0975
  387loPI   C2A 6184  12.321   7.129   8.458 -0.0080  0.2510  0.0030
  387loPI   C3A 6185  12.535   7.131   8.029 -0.0587 -0.0036  0.1202
  387loPI   C4A 6186  12.513   7.220   7.683  0.2200 -0.0867 -0.1406
  387loPI   C5A 6187  12.137   7.217   7.583 -0.1437  0.1658 -0.3592
  387loPI   C6A 6188  11.683   7.066   7.711  0.0845 -0.1531 -0.2768
  387loPI   C1B 6189  12.280   7.583   8.771 -0.0684  0.1049  0.3147
  387loPI   C2B 6190  12.278   7.561   8.274 -0.0304  0.1276  0.0791
  387loPI   C3B 6191  11.949   7.319   8.025  0.0733 -0.0597  0.0889
  387loPI   C4B 6192  11.572   7.440   7.979 -0.1626 -0.1020  0.1142
  388loPI    C1 6193   8.359   3.619  10.507 -0.0570  0.4542  0.0721
  388loPI    C2 6194   8.710   3.588  10.319 -0.1638 -0.0439 -0.0610
  388loPI    C3 6195   8.684   3.793  10.661  0.3729 -0.4208  0.2207
  388loPI   PO4 6196   8.144   3.757  10.402 -0.4121  0.0192 -0.2301
  388loPI   GL1 6197   8.058   4.045   9.989 -0.1990  0.0010 -0.0350
  388loPI   GL2 6198   7.926   4.294   9.712  0.1698 -0.0751 -0.1324
  388loPI   C1A 6199   7.949   3.754   9.639 -0.1494 -0.1007  0.5242
  388loPI   C2A 6200   7.693   3.691   9.159  0.3900 -0.2361 -0.0357
  388loPI   C3A 6201   7.599   3.767   8.723 -0.0349 -0.1555  0.0210
  388loPI   C4A 6202   7.231   3.742   8.437  0.2671  0.1674  0.3374
  388loPI   C5A 6203   7.177   3.403   8.093  0.2385  0.1867  0.3266
  388loPI   C6A 6204   7.127   3.614   7.662  0.0657  0.0993 -0.2120
  388loPI   C1B 6205   7.893   4.242   9.298  0.1041  0.0200 -0.2119
  388loPI   C2B 6206   7.653   4.233   8.929 -0.3330  0.0664 -0.1203
  388loPI   C3B 6207   7.640   4.293   8.455  0.0360 -0.5946  0.1787
  388loPI   C4B 6208   7.572   4.397   7.995  0.1072 -0.0477 -0.0959
  389loPI    C1 6209  16.188   8.414  10.385  0.1725  0.1506  0.0677
  389loPI    C2 6210  16.365   8.059  10.337 -0.1597 -0.0059 -0.0290
  389loPI    C3 6211  16.189   8.149  10.684 -0.1021  0.0535 -0.0149
  389loPI   PO4 6212  16.228   8.541  10.187  0.0664  0.1385  0.1950
  389loPI   GL1 6213  16.211   8.442   9.775 -0.1475 -0.3809 -0.3763
  389loPI   GL2 6214  16.321   8.084   9.818  0.1374  0.0158  0.1388
  389loPI   C1A 6215  16.360   8.481   9.284 -0.2560  0.1503  0.0992
  389loPI   C2A 6216  16.461   8.327   9.020 -0.0704 -0.1532 -0.0773
  389loPI   C3A 6217  16.431   8.362   8.593 -0.0529 -0.0349  0.1635
  389loPI   C4A 6218  16.505   8.236   8.222  0.0285  0.0157  0.1098
  389loPI   C5A 6219  16.416   7.904   7.845  0.1557  0.2630  0.2309
  389loPI   C6A 6220  16.123   7.727   7.642  0.1125  0.1749 -0.2340
  389loPI   C1B 6221  16.361   8.008   9.446 -0.0142  0.2034  0.2443
  389loPI   C2B 6222  16.457   7.836   9.109  0.0679 -0.2008 -0.0610
  389loPI   C3B 6223  16.378   7.848   8.675 -0.1605 -0.1679  0.0581
  389loPI   C4B 6224  16.604   7.657   8.319 -0.1533  0.2157 -0.2359
  390loPI    C1 6225   1.429  16.721  10.584 -0.1028 -0.0085 -0.0089
  390loPI    C2 6226   1.777  16.803  10.763  0.0200 -0.1304 -0.1882
  390loPI    C3 6227   1.443  16.773  10.980  0.1400 -0.1237 -0.0002
  390loPI   PO4 6228   1.471  17.014  10.234  0.0153  0.0557  0.0408
  390loPI   GL1 6229   1.648  17.226   9.963 -0.1262  0.3595  0.1586
  390loPI   GL2 6230   1.765  16.913   9.799 -0.3672  0.0585 -0.0177
  390loPI   C1A 6231   1.421  17.355   9.617 -0.0464  0.2032  0.0114
  390loPI   C2A 6232   1.313  17.289   9.201 -0.2137 -0.0222  0.1549
  390loPI   C3A 6233   1.118  17.057   8.953  0.1429  0.0679 -0.4417
  390loPI   C4A 6234   1.089  17.088   8.561 -0.1020 -0.0874  0.1435
  390loPI   C5A 6235   0.846  17.030   8.159 -0.0318  0.1574  0.0054
  390loPI   C6A 6236   0.774  16.945   7.721 -0.0579  0.0148 -0.1808
  390loPI   C1B 6237   1.782  17.051   9.346  0.1423 -0.3241 -0.0858
  390loPI   C2B 6238   1.653  16.994   8.886  0.0038 -0.2374  0.1356
  390loPI   C3B 6239   1.735  16.984   8.409  0.1299  0.0815 -0.2811
  390loPI   C4B 6240   1.582  17.177   7.999  0.1605  0.1217 -0.0445
  391loPI    C1 6241   1.558   3.121  10.204  0.1692  0.1321  0.2230
  391loPI    C2 6242   1.334   3.335  10.458  0.0162  0.0448  0.1633
  391loPI    C3 6243   1.166   3.047  10.237  0.1452  0.1280 -0.0470
  391loPI   PO4 6244   1.652   3.247  10.063 -0.1554 -0.0949 -0.2045
  391loPI   GL1 6245   1.793   3.573   9.791  0.2641  0.2152  0.3018
  391loPI   GL2 6246   1.516   3.679   9.639 -0.1308  0.1062  0.0315
  391loPI   C1A 6247   2.019   3.665   9.342 -0.1265  0.0701 -0.0193
  391loPI   C2A 6248   2.155   3.542   8.940  0.1994  0.1287  0.1071
  391loPI   C3A 6249   2.416   3.661   8.573 -0.1729 -0.1587  0.2449
  391loPI   C4A 6250   2.498   3.929   8.180  0.0396  0.0062 -0.1572
  391loPI   C5A 6251   2.398   4.191   7.949 -0.1446 -0.1454  0.0730
  391loPI   C6A 6252   2.147   4.571   7.792  0.0220  0.0019 -0.3103
  391loPI   C1B 6253   1.410   3.723   9.159 -0.4168 -0.0868 -0.0307
  391loPI   C2B 6254   1.572   3.575   8.767  0.0377 -0.1278 -0.0446
  391loPI   C3B 6255   1.570   3.948   8.447  0.0951 -0.0563 -0.3005
  391loPI   C4B 6256   1.476   4.274   8.224  0.0803  0.0854 -0.0282
  392loPI    C1 6257   0.779  11.201  10.025 -0.1881  0.0052 -0.1125
  392loPI    C2 6258   0.859  11.227  10.416 -0.1622  0.1009 -0.1241
  392loPI    C3 6259   0.640  11.511  10.236  0.2764  0.3445 -0.2885
  392loPI   PO4 6260   0.701  10.914  10.000 -0.2015  0.0203 -0.3131
  392loPI   GL1 6261   0.621  10.714   9.580 -0.1251 -0.2301 -0.0312
  392loPI   GL2 6262   0.483  11.090   9.538  0.2749  0.0042  0.1533
  392loPI   C1A 6263   0.393  10.748   9.155 -0.0951 -0.2503 -0.0040
  392loPI   C2A 6264   0.317  11.084   8.900  0.0115 -0.2301 -0.1312
  392loPI   C3A 6265   0.478  11.113   8.488  0.2074 -0.1607 -0.0217
  392loPI   C4A 6266   0.544  11.056   8.000  0.1384  0.3974  0.0191
  392loPI   C5A 6267   0.301  11.340   7.753 -0.2603  0.0934  0.0991
  392loPI   C6A 6268   0.066  11.675   7.638  0.0172 -0.1456 -0.1014
  392loPI   C1B 6269   0.650  11.238   9.179  0.1443  0.2183 -0.3399
  392loPI   C2B 6270   0.817  11.376   8.766  0.0864  0.0285 -0.3049
  392loPI   C3B 6271   0.827  11.409   8.213 -0.1923 -0.0779  0.0175
  392loPI   C4B 6272   0.864  11.503   7.788 -0.1423 -0.0925  0.1404
  393loPI    C1 6273   3.623  12.509   9.814  0.0418 -0.0022  0.1505
  393loPI    C2 6274   3.832  12.825   9.941  0.0059  0.0634  0.0484
  393loPI    C3 6275   4.022  12.490   9.833  0.0485  0.0730  0.0930
  393loPI   PO4 6276   3.422  12.651   9.636 -0.0872 -0.2777 -0.3425
  393loPI   GL1 6277   3.294  12.715   9.290 -0.0648 -0.2644 -0.0554
  393loPI   GL2 6278   3.518  13.001   9.248 -0.0943  0.1183  0.1936
  393loPI   C1A 6279   3.331  12.742   8.891  0.3935  0.1932  0.3434
  393loPI   C2A 6280   3.227  12.680   8.418 -0.0318  0.0823  0.1161
  393loPI   C3A 6281   3.219  12.540   8.040 -0.0654  0.3427  0.2202
  393loPI   C4A 6282   3.059  12.642   7.607  0.0201 -0.3151  0.2253
  393loPI   C5A 6283   3.398  12.754   7.291  0.0474 -0.1903 -0.1012
  393loPI   C6A 6284   3.787  12.767   7.304  0.0198 -0.2083 -0.2694
  393loPI   C1B 6285   3.783  13.094   8.934 -0.2544 -0.0056 -0.3286
  393loPI   C2B 6286   3.970  13.200   8.561  0.1946 -0.0110 -0.0258
  393loPI   C3B 6287   4.025  13.249   8.103  0.1299 -0.1287  0.0374
  393loPI   C4B 6288   4.058  13.037   7.662 -0.1583  0.1045  0.2192
  394loPI    C1 6289   1.896  12.171  10.364 -0.0993 -0.0204 -0.0013
  394loPI    C2 6290   2.027  11.806  10.460 -0.0539  0.0307  0.1327
  394loPI    C3 6291   2.245  12.128  10.556 -0.0037  0.0828 -0.1492
  394loPI   PO4 6292   1.765  12.062  10.052  0.0874  0.1399  0.0900
  394loPI   GL1 6293   1.623  11.882   9.746  0.3200 -0.2042 -0.2753
  394loPI   GL2 6294   1.232  11.839   9.703 -0.3695  0.0001  0.1217
  394loPI   C1A 6295   1.675  11.604   9.447 -0.1705 -0.0483 -0.1427
  394loPI   C2A 6296   1.777  11.333   9.102 -0.1068 -0.0148  0.3028
  394loPI   C3A 6297   1.767  11.326   8.633 -0.0800 -0.1584 -0.1081
  394loPI   C4A 6298   1.613  11.335   8.210  0.2342 -0.0600  0.0787
  394loPI   C5A 6299   1.687  11.488   7.788  0.1992  0.0623  0.1711
  394loPI   C6A 6300   1.726  11.242   7.373  0.0512 -0.3817 -0.0340
  394loPI   C1B 6301   0.995  11.955   9.380  0.2745 -0.0874  0.0048
  394loPI   C2B 6302   0.789  11.835   8.996 -0.1905 -0.1979  0.0098
  394loPI   C3B 6303   0.748  11.876   8.494  0.1571  0.1337 -0.2225
  394loPI   C4B 6304   0.880  11.928   8.032 -0.1092  0.1574 -0.0738
  395loPI    C1 6305   0.268  11.154  10.417  0.0946  0.1844  0.0136
  395loPI    C2 6306   0.537  10.871  10.505 -0.0794 -0.0070 -0.0623
  395loPI    C3 6307   0.303  11.020  10.793  0.1141  0.1687  0.0062
  395loPI   PO4 6308   0.124  10.953  10.266  0.1188  0.1087  0.1068
  395loPI   GL1 6309   0.122  10.734   9.812 -0.1474 -0.0009 -0.1963
  395loPI   GL2 6310   0.098  10.482   9.624  0.0515  0.1754  0.3079
  395loPI   C1A 6311  -0.004  10.924   9.364 -0.1035 -0.0399  0.1036
  395loPI   C2A 6312  -0.247  11.046   9.024  0.2979  0.2468 -0.2232
  395loPI   C3A 6313  -0.105  11.165   8.623 -0.3143 -0.0799  0.3601
  395loPI   C4A 6314   0.091  11.088   8.188  0.3490 -0.0804 -0.0633
  395loPI   C5A 6315  -0.106  10.920   7.843  0.1734  0.0968 -0.0250
  395loPI   C6A 6316  -0.102  10.992   7.384  0.0627  0.1339  0.1370
  395loPI   C1B 6317  -0.025  10.485   9.178 -0.3130  0.0945 -0.1089
  395loPI   C2B 6318  -0.053  10.588   8.752 -0.0113 -0.1607  0.4149
  395loPI   C3B 6319   0.237  10.671   8.502 -0.2418 -0.0999 -0.0083
  395loPI   C4B 6320   0.278  10.573   8.103  0.0207  0.0301  0.1010
  396loPI    C1 6321  11.900   2.404  10.641  0.0408  0.2544 -0.2839
  396loPI    C2 6322  11.555   2.507  10.814  0.0318 -0.0608 -0.1046
  396loPI    C3 6323  11.897   2.673  10.936 -0.0025 -0.1035  0.0510
  396loPI   PO4 6324  11.803   2.366  10.342  0.0187 -0.0988  0.0108
  396loPI   GL1 6325  11.940   2.283   9.878  0.0762  0.0600  0.0728
  396loPI   GL2 6326  11.825   2.488   9.643 -0.3504  0.0307  0.0356
  396loPI   C1A 6327  11.718   1.937   9.655 -0.0866 -0.0310 -0.2275
  396loPI   C2A 6328  11.727   1.960   9.315 -0.0429  0.2976 -0.0635
  396loPI   C3A 6329  11.662   2.108   8.961 -0.1538  0.1399 -0.2454
  396loPI   C4A 6330  11.782   2.194   8.547 -0.0252  0.1199 -0.0949
  396loPI   C5A 6331  12.019   2.222   8.136  0.1078 -0.2607  0.0298
  396loPI   C6A 6332  12.036   2.208   7.744 -0.1176 -0.2990 -0.0332
  396loPI   C1B 6333  12.048   2.505   9.312 -0.0469 -0.0333  0.0956
  396loPI   C2B 6334  12.029   2.496   8.891  0.0577 -0.0127 -0.2158
  396loPI   C3B 6335  12.388   2.699   8.565 -0.3244  0.1318 -0.1741
  396loPI   C4B 6336  12.687   2.757   8.267 -0.1653 -0.1530 -0.0810
  397loPI    C1 6337  12.042  17.052  10.170 -0.3085 -0.1155  0.3264
  397loPI    C2 6338  12.083  17.447  10.223 -0.0558 -0.0906 -0.0212
  397loPI    C3 6339  12.398  17.205  10.270 -0.0870 -0.1897 -0.3009
  397loPI   PO4 6340  11.970  16.983   9.928 -0.0375  0.0083 -0.3469
  397loPI   GL1 6341  12.033  16.739   9.519 -0.3384  0.3250 -0.3020
  397loPI   GL2 6342  12.304  16.637   9.516 -0.0269  0.1177  0.6438
  397loPI   C1A 6343  12.030  16.478   9.176 -0.1090 -0.0914  0.0684
  397loPI   C2A 6344  11.931  16.169   8.860 -0.0455 -0.0584  0.1364
  397loPI   C3A 6345  12.005  16.312   8.426  0.0486  0.0865  0.0047
  397loPI   C4A 6346  12.063  16.070   8.083  0.0327  0.1734  0.1348
  397loPI   C5A 6347  11.897  15.950   7.597 -0.0808  0.1734  0.1380
  397loPI   C6A 6348  11.624  16.258   7.508  0.1601 -0.0584  0.0153
  397loPI   C1B 6349  12.571  16.373   9.155  0.0012  0.1389 -0.1969
  397loPI   C2B 6350  12.630  16.052   8.876  0.0791  0.0074 -0.1886
  397loPI   C3B 6351  12.959  15.840   8.668  0.0629 -0.1903 -0.1687
  397loPI   C4B 6352  12.941  15.462   8.404 -0.2576 -0.2610 -0.0925
  398loPI    C1 6353  12.869   9.824   9.778 -0.0403  0.0038  0.1039
  398loPI    C2 6354  13.191   9.934   9.987 -0.1980  0.1343  0.2824
  398loPI    C3 6355  12.866   9.801  10.177 -0.1977 -0.1416  0.0953
  398loPI   PO4 6356  13.004   9.717   9.542  0.0485  0.0786 -0.3015
  398loPI   GL1 6357  13.236   9.464   9.274  0.0627 -0.2622  0.2667
  398loPI   GL2 6358  12.938   9.421   9.116 -0.2128  0.2797 -0.1534
  398loPI   C1A 6359  13.343   9.714   8.871  0.2319  0.6078  0.1617
  398loPI   C2A 6360  13.396   9.852   8.562 -0.2158 -0.1465 -0.3639
  398loPI   C3A 6361  13.198  10.293   8.556 -0.1589  0.1050  0.0573
  398loPI   C4A 6362  13.208  10.404   8.193  0.1635  0.3088  0.1185
  398loPI   C5A 6363  13.181  10.315   7.718 -0.2386 -0.2062 -0.1087
  398loPI   C6A 6364  13.054  10.401   7.354 -0.2369 -0.0492 -0.1121
  398loPI   C1B 6365  12.928   9.426   8.714  0.1740 -0.0727 -0.0042
  398loPI   C2B 6366  13.012   9.598   8.346 -0.2963  0.1125  0.0821
  398loPI   C3B 6367  13.173   9.853   8.111 -0.1476 -0.3651 -0.0713
  398loPI   C4B 6368  13.523   9.963   8.026  0.0391 -0.2006  0.0634
  399loPI    C1 6369  10.639  10.099  10.146 -0.0623 -0.0300  0.2316
  399loPI    C2 6370  10.860  10.425  10.078 -0.0838 -0.0669 -0.0259
  399loPI    C3 6371  10.715  10.355  10.444  0.0015  0.1612  0.0538
  399loPI   PO4 6372  10.794   9.930   9.936  0.1544  0.1024 -0.1342
  399loPI   GL1 6373  10.692   9.851   9.526 -0.2211 -0.0434 -0.3997
  399loPI   GL2 6374  10.521  10.194   9.633 -0.3217  0.0424  0.3389
  399loPI   C1A 6375  10.635   9.932   9.142 -0.2293 -0.1447 -0.2566
  399loPI   C2A 6376  10.432  10.012   8.773  0.1582 -0.2954 -0.1508
  399loPI   C3A 6377  10.317  10.147   8.305  0.4004  0.2633 -0.2081
  399loPI   C4A 6378  10.227  10.505   8.082 -0.0375 -0.2553  0.2752
  399loPI   C5A 6379  10.314  10.564   7.659  0.3278  0.0588  0.0578
  399loPI   C6A 6380  10.620  10.457   7.369  0.0468  0.3136  0.4012
  399loPI   C1B 6381  10.549  10.450   9.230 -0.1161  0.3005  0.4394
  399loPI   C2B 6382  10.302  10.731   9.165 -0.1251 -0.3179 -0.0380
  399loPI   C3B 6383  10.140  10.943   8.864 -0.2240 -0.3660 -0.3051
  399loPI   C4B 6384  10.244  10.892   8.460 -0.1502 -0.0166  0.2022
  400loPI    C1 6385   0.264   3.771  10.151 -0.1948 -0.0428 -0.1097
  400loPI    C2 6386   0.044   3.478  10.312  0.1619 -0.0480  0.3954
  400loPI    C3 6387  -0.048   3.861  10.385 -0.1571 -0.0278 -0.0649
  400loPI   PO4 6388   0.324   3.578   9.896  0.4471 -0.0568  0.1722
  400loPI   GL1 6389   0.371   3.215   9.601 -0.1701 -0.3386  0.2272
  400loPI   GL2 6390   0.073   3.342   9.563 -0.1460 -0.0730  0.2546
  400loPI   C1A 6391   0.438   3.283   9.168  0.2247 -0.0524 -0.1505
  400loPI   C2A 6392   0.432   3.456   8.688 -0.2029 -0.4134  0.0488
  400loPI   C3A 6393   0.534   3.617   8.279  0.1607  0.0450  0.1256
  400loPI   C4A 6394   0.742   3.581   7.825  0.2813 -0.1283 -0.2570
  400loPI   C5A 6395   0.947   3.310   7.529  0.1792  0.1015  0.1846
  400loPI   C6A 6396   1.019   2.905   7.477  0.1843  0.1390  0.3286
  400loPI   C1B 6397  -0.052   3.183   9.231  0.0123 -0.0613 -0.2967
  400loPI   C2B 6398  -0.301   3.296   8.898  0.1384  0.2295 -0.0280
  400loPI   C3B 6399  -0.411   3.296   8.476 -0.0064  0.1345  0.3217
  400loPI   C4B 6400  -0.273   3.033   7.973 -0.0271 -0.0707  0.1219
  401loPI    C1 6401  12.588   6.256   9.992 -0.1303  0.0087  0.1309
  401loPI    C2 6402  12.193   6.267  10.055 -0.1523 -0.0449  0.0044
  401loPI    C3 6403  12.441   6.180  10.357 -0.2528 -0.2463  0.0304
  401loPI   PO4 6404  12.730   6.081   9.806  0.1319 -0.2582 -0.1323
  401loPI   GL1 6405  12.597   5.895   9.465 -0.3575 -0.1073  0.1384
  401loPI   GL2 6406  12.618   5.583   9.324 -0.1005 -0.0201  0.1941
  401loPI   C1A 6407  12.820   6.082   9.100 -0.1111  0.0962  0.0508
  401loPI   C2A 6408  13.206   6.034   8.894 -0.1030 -0.0668 -0.0186
  401loPI   C3A 6409  13.246   5.883   8.387 -0.1176  0.0018 -0.0653
  401loPI   C4A 6410  13.415   5.901   7.984  0.1255 -0.3922 -0.0625
  401loPI   C5A 6411  13.598   5.575   7.764 -0.3183 -0.0589 -0.1697
  401loPI   C6A 6412  13.968   5.313   7.895 -0.2316  0.2197  0.2558
  401loPI   C1B 6413  12.840   5.582   8.930  0.0182 -0.0399 -0.1552
  401loPI   C2B 6414  12.812   5.834   8.608  0.0774  0.2763  0.3449
  401loPI   C3B 6415  12.715   5.677   8.173  0.1495  0.0995 -0.1094
  401loPI   C4B 6416  12.688   5.436   7.794 -0.0890  0.0699  0.1106
  402loPI    C1 6417   3.061  14.062   9.797 -0.1624 -0.0867 -0.0923
  402loPI    C2 6418   2.923  13.970  10.161 -0.0263  0.0546 -0.0039
  402loPI    C3 6419   3.178  14.275  10.115 -0.1473  0.1231 -0.2362
  402loPI   PO4 6420   2.850  14.131   9.591 -0.2651 -0.0413 -0.0626
  402loPI   GL1 6421   2.509  14.285   9.521 -0.2735 -0.1668 -0.0964
  402loPI   GL2 6422   2.742  14.316   9.162  0.0821 -0.1798  0.2419
  402loPI   C1A 6423   2.358  14.551   9.249  0.0103  0.0595 -0.0029
  402loPI   C2A 6424   2.162  14.717   8.847  0.2281 -0.1938 -0.1374
  402loPI   C3A 6425   2.104  14.602   8.425 -0.1114 -0.1193  0.3776
  402loPI   C4A 6426   1.932  14.404   8.003  0.0036 -0.0444  0.0567
  402loPI   C5A 6427   1.790  14.279   7.498  0.2942 -0.0587 -0.0263
  402loPI   C6A 6428   1.550  14.355   7.224  0.1759  0.2000  0.1493
  402loPI   C1B 6429   2.548  14.428   8.794 -0.5059 -0.1131  0.0893
  402loPI   C2B 6430   2.503  14.318   8.383  0.0626  0.0246  0.1438
  402loPI   C3B 6431   2.405  14.222   8.004  0.0866 -0.1428 -0.2884
  402loPI   C4B 6432   2.106  13.955   7.694  0.0356 -0.0648 -0.0765
  403loPI    C1 6433  15.447  16.101   9.933  0.1432  0.0537 -0.1067
  403loPI    C2 6434  15.799  15.911   9.937  0.1123 -0.0029 -0.0560
  403loPI    C3 6435  15.532  15.843  10.227 -0.0680 -0.2024 -0.2652
  403loPI   PO4 6436  15.530  16.414   9.901 -0.2069  0.0524  0.0691
  403loPI   GL1 6437  15.816  16.730   9.666 -0.0108  0.3732  0.4203
  403loPI   GL2 6438  15.538  16.756   9.576 -0.0546 -0.1108  0.0589
  403loPI   C1A 6439  15.930  16.640   9.234  0.1481 -0.1803  0.0504
  403loPI   C2A 6440  15.814  16.520   8.756  0.1601  0.1419 -0.2543
  403loPI   C3A 6441  15.782  16.590   8.356 -0.2569 -0.1096 -0.0963
  403loPI   C4A 6442  15.932  16.751   7.964 -0.1351  0.0038  0.0553
  403loPI   C5A 6443  16.124  17.155   7.686 -0.6625  0.1177 -0.1648
  403loPI   C6A 6444  16.393  17.502   7.474  0.2682  0.2200 -0.1199
  403loPI   C1B 6445  15.429  16.589   9.153  0.2073 -0.1081  0.1387
  403loPI   C2B 6446  15.218  16.288   8.778 -0.2263  0.2673  0.2770
  403loPI   C3B 6447  15.190  15.814   8.789  0.2613 -0.0555 -0.0031
  403loPI   C4B 6448  14.896  15.504   8.852  0.0562 -0.3270 -0.0409
  404loPI    C1 6449  17.078  15.259  10.390  0.0554  0.0051 -0.2646
  404loPI    C2 6450  17.440  15.340  10.240  0.2168 -0.0451  0.0888
  404loPI    C3 6451  17.403  15.221  10.621 -0.1727 -0.0420  0.0554
  404loPI   PO4 6452  16.957  15.185  10.191 -0.1212 -0.1246  0.0868
  404loPI   GL1 6453  17.086  15.248   9.720  0.0433  0.1172 -0.0454
  404loPI   GL2 6454  16.790  14.988   9.693 -0.1226 -0.1413  0.3459
  404loPI   C1A 6455  17.276  15.318   9.330  0.2009 -0.1177  0.2164
  404loPI   C2A 6456  17.434  15.440   9.009 -0.0956  0.0452 -0.0880
  404loPI   C3A 6457  17.536  15.615   8.651 -0.0773 -0.0174  0.0124
  404loPI   C4A 6458  17.480  15.673   8.266 -0.2600 -0.0193  0.1580
  404loPI   C5A 6459  17.515  15.552   7.837 -0.3308 -0.1748  0.4896
  404loPI   C6A 6460  17.727  15.938   7.631  0.0226  0.0404  0.3503
  404loPI   C1B 6461  16.836  15.031   9.301  0.1218 -0.2592 -0.0384
  404loPI   C2B 6462  16.842  15.084   8.787  0.2140 -0.1144 -0.0688
  404loPI   C3B 6463  16.694  14.977   8.317 -0.1914 -0.2644  0.1339
  404loPI   C4B 6464  16.973  14.920   7.887 -0.0174  0.1335  0.0267
  405loPI    C1 6465   0.091   8.077  10.403  0.1939 -0.0794 -0.1038
  405loPI    C2 6466  -0.034   8.273  10.728 -0.1432 -0.2844 -0.1051
  405loPI    C3 6467   0.255   7.998  10.759  0.0033 -0.1227 -0.0239
  405loPI   PO4 6468  -0.176   7.988  10.240 -0.1904 -0.0555 -0.1552
  405loPI   GL1 6469  -0.487   8.193   9.941  0.0773  0.0378  0.0022
  405loPI   GL2 6470  -0.178   8.361   9.870  0.2262 -0.0077  0.0644
  405loPI   C1A 6471  -0.664   8.117   9.527 -0.0352 -0.0112  0.1177
  405loPI   C2A 6472  -0.417   8.071   9.144  0.0086 -0.0557 -0.1152
  405loPI   C3A 6473  -0.422   8.137   8.665  0.0283 -0.1310 -0.2874
  405loPI   C4A 6474  -0.673   8.399   8.284 -0.2458 -0.2309  0.0382
  405loPI   C5A 6475  -0.874   8.586   7.981 -0.0585 -0.3284 -0.2552
  405loPI   C6A 6476  -0.812   8.787   7.588 -0.1884  0.1408  0.1756
  405loPI   C1B 6477  -0.128   8.277   9.460 -0.3782 -0.1359  0.0135
  405loPI   C2B 6478   0.038   8.317   8.995 -0.0687  0.0452 -0.1801
  405loPI   C3B 6479   0.014   8.254   8.549 -0.0300  0.0103 -0.2291
  405loPI   C4B 6480  -0.049   8.349   8.152  0.0363  0.1741  0.0672
  406loPI    C1 6481   8.815   2.768  10.410 -0.0062 -0.1386 -0.1099
  406loPI    C2 6482   8.675   2.395  10.447 -0.1029 -0.0880  0.0472
  406loPI    C3 6483   8.599   2.666  10.731 -0.1963  0.1037 -0.1575
  406loPI   PO4 6484   8.901   2.803   9.979  0.2320 -0.2889 -0.0037
  406loPI   GL1 6485   9.045   2.663   9.581  0.0626 -0.1755 -0.3737
  406loPI   GL2 6486   8.900   2.873   9.453  0.3491 -0.4474  0.3187
  406loPI   C1A 6487   9.064   2.573   9.101 -0.1655 -0.4190  0.0405
  406loPI   C2A 6488   9.172   2.716   8.558  0.1956 -0.2648 -0.2644
  406loPI   C3A 6489   9.286   2.872   8.235 -0.0640  0.0443  0.0527
  406loPI   C4A 6490   9.258   2.954   7.775  0.0980 -0.2467  0.1669
  406loPI   C5A 6491   9.180   3.094   7.358  0.0920  0.0238  0.0754
  406loPI   C6A 6492   9.269   3.159   6.925  0.1787 -0.2093 -0.1272
  406loPI   C1B 6493   8.938   3.110   8.959 -0.1802 -0.3103 -0.1708
  406loPI   C2B 6494   8.875   3.163   8.448  0.1081 -0.1595 -0.1938
  406loPI   C3B 6495   9.005   3.307   8.108  0.0403 -0.0358  0.0333
  406loPI   C4B 6496   9.076   3.470   7.765  0.0481 -0.3009  0.1803
  407loPI    C1 6497  10.275  13.991  10.259  0.1713  0.0747 -0.1527
  407loPI    C2 6498  10.257  14.319  10.486 -0.1049 -0.0131 -0.0434
  407loPI    C3 6499  10.292  13.960  10.657 -0.0227 -0.0582 -0.1537
  407loPI   PO4 6500  10.228  14.023  10.005  0.1235  0.3863  0.0294
  407loPI   GL1 6501  10.185  13.641   9.720 -0.1334 -0.0476 -0.2338
  407loPI   GL2 6502   9.868  13.537   9.723  0.1846  0.1053 -0.0738
  407loPI   C1A 6503  10.378  13.531   9.433  0.2672  0.2992 -0.0016
  407loPI   C2A 6504  10.376  13.586   9.004  0.0470 -0.0505  0.0374
  407loPI   C3A 6505  10.311  13.479   8.616 -0.1671 -0.0637  0.0250
  407loPI   C4A 6506  10.571  13.295   8.392 -0.1445  0.0634 -0.2386
  407loPI   C5A 6507  10.800  13.325   8.027 -0.3381  0.0488 -0.3357
  407loPI   C6A 6508  10.519  13.447   7.680  0.1141  0.0827  0.1752
  407loPI   C1B 6509   9.899  13.723   9.337  0.1096 -0.6951  0.1317
  407loPI   C2B 6510   9.932  13.787   8.867 -0.0134 -0.0703 -0.1166
  407loPI   C3B 6511   9.929  13.864   8.482 -0.1184  0.0400 -0.0829
  407loPI   C4B 6512   9.900  13.963   8.090  0.2287  0.3310  0.1204
  408loPI    C1 6513  13.216  15.121   9.943  0.2256  0.1166 -0.1120
  408loPI    C2 6514  13.270  15.177  10.336 -0.0197 -0.1813 -0.0322
  408loPI    C3 6515  13.382  14.833  10.165 -0.1877 -0.1714 -0.1655
  408loPI   PO4 6516  13.274  15.348   9.768 -0.1270  0.1755  0.3479
  408loPI   GL1 6517  13.367  15.217   9.363 -0.2307  0.1665 -0.0231
  408loPI   GL2 6518  13.353  15.595   9.298 -0.1640 -0.1016  0.3703
  408loPI   C1A 6519  13.721  15.130   8.925  0.1662  0.2333 -0.1665
  408loPI   C2A 6520  13.648  14.956   8.485  0.0119  0.0627  0.0591
  408loPI   C3A 6521  13.694  15.073   8.041 -0.0809  0.1968  0.2379
  408loPI   C4A 6522  13.556  15.306   7.679 -0.1404 -0.1647  0.0570
  408loPI   C5A 6523  13.262  15.583   7.669  0.2582 -0.2904  0.0723
  408loPI   C6A 6524  12.890  15.535   7.386 -0.2060  0.1247  0.1450
  408loPI   C1B 6525  13.636  15.620   8.943 -0.1197 -0.0166  0.1726
  408loPI   C2B 6526  14.038  15.485   8.892 -0.0387 -0.1000 -0.1606
  408loPI   C3B 6527  14.405  15.494   8.659 -0.0889 -0.4225  0.0325
  408loPI   C4B 6528  14.757  15.696   8.413 -0.1254 -0.0935  0.0657
  409loPI    C1 6529  10.906  11.646  10.183  0.2082 -0.0602  0.1624
  409loPI    C2 6530  10.941  11.281  10.024  0.0384  0.0136 -0.0504
  409loPI    C3 6531  10.963  11.330  10.421  0.0194 -0.2326 -0.0174
  409loPI   PO4 6532  10.708  11.760   9.926 -0.1507  0.1043  0.2961
  409loPI   GL1 6533  10.771  11.526   9.595  0.1120 -0.0431  0.0460
  409loPI   GL2 6534  10.424  11.306   9.670 -0.0330  0.1273 -0.2402
  409loPI   C1A 6535  10.788  11.540   9.177 -0.1417 -0.3446 -0.0498
  409loPI   C2A 6536  10.661  11.663   8.726  0.0998 -0.0569  0.1952
  409loPI   C3A 6537  10.734  11.728   8.225 -0.0588  0.1279 -0.0268
  409loPI   C4A 6538  10.800  11.844   7.758  0.0576  0.2248  0.4346
  409loPI   C5A 6539  11.080  12.143   7.675 -0.1572  0.0263  0.0025
  409loPI   C6A 6540  11.374  12.106   7.396 -0.1880  0.1266  0.2574
  409loPI   C1B 6541  10.296  11.354   9.258  0.2067 -0.1071  0.4996
  409loPI   C2B 6542  10.277  11.457   8.928 -0.1282 -0.1983  0.1986
  409loPI   C3B 6543  10.231  11.427   8.491 -0.0129  0.1208  0.0052
  409loPI   C4B 6544  10.228  11.401   8.109 -0.0671  0.0054  0.0656
  410loPI    C1 6545   6.624   3.930  10.248 -0.1652  0.1068 -0.0806
  410loPI    C2 6546   6.525   3.574  10.093  0.3814  0.0039 -0.2143
  410loPI    C3 6547   6.734   3.593  10.433  0.2011  0.2058 -0.1118
  410loPI   PO4 6548   6.763   4.010  10.089  0.2351  0.2846 -0.1325
  410loPI   GL1 6549   6.926   4.030   9.761  0.0731  0.2666  0.0541
  410loPI   GL2 6550   6.861   3.679   9.657 -0.1449  0.0700 -0.5289
  410loPI   C1A 6551   6.802   4.059   9.350 -0.2060 -0.0815  0.2784
  410loPI   C2A 6552   6.666   3.896   8.942 -0.3315  0.0835  0.2055
  410loPI   C3A 6553   6.735   3.847   8.541 -0.1305 -0.0334 -0.1214
  410loPI   C4A 6554   6.726   3.560   8.188  0.0600 -0.0204  0.1284
  410loPI   C5A 6555   6.656   3.659   7.860  0.1712  0.1761 -0.2060
  410loPI   C6A 6556   6.451   3.601   7.489  0.0832 -0.1232 -0.1356
  410loPI   C1B 6557   7.231   3.681   9.416  0.1100  0.1020  0.1511
  410loPI   C2B 6558   7.191   3.895   9.010 -0.0511 -0.4014 -0.2259
  410loPI   C3B 6559   7.217   4.134   8.663  0.3017 -0.0491 -0.0057
  410loPI   C4B 6560   7.007   4.345   8.365 -0.0299  0.2983 -0.1215
  411loPI    C1 6561  14.562   6.372  10.129  0.0151 -0.0198 -0.0284
  411loPI    C2 6562  14.961   6.357  10.110  0.0177  0.0789 -0.0592
  411loPI    C3 6563  14.782   6.641  10.327 -0.0344 -0.0650  0.0892
  411loPI   PO4 6564  14.507   6.374   9.828 -0.2264 -0.1943 -0.0161
  411loPI   GL1 6565  14.691   6.325   9.392  0.1092 -0.0580 -0.2038
  411loPI   GL2 6566  14.869   6.635   9.466  0.2759  0.0496 -0.3877
  411loPI   C1A 6567  14.440   6.600   9.212  0.0827 -0.0012  0.1142
  411loPI   C2A 6568  14.322   6.892   8.923 -0.0611  0.0309  0.0203
  411loPI   C3A 6569  14.413   7.149   8.558 -0.0530  0.0335 -0.1110
  411loPI   C4A 6570  14.493   7.452   8.317 -0.0381  0.3666  0.1141
  411loPI   C5A 6571  14.492   7.460   7.900 -0.0516  0.2380 -0.0009
  411loPI   C6A 6572  14.436   7.596   7.484  0.0805  0.0042  0.1454
  411loPI   C1B 6573  14.956   6.490   9.036  0.0312  0.0505  0.1783
  411loPI   C2B 6574  14.983   6.398   8.587  0.0928  0.0531  0.1195
  411loPI   C3B 6575  14.865   6.350   8.151  0.2883 -0.3308 -0.4857
  411loPI   C4B 6576  14.958   6.314   7.753  0.0601  0.1711  0.2418
  412loPI    C1 6577  10.825   7.895  10.373  0.3275  0.1366  0.0213
  412loPI    C2 6578  11.108   8.060  10.602  0.1469  0.0130  0.3404
  412loPI    C3 6579  10.746   7.985  10.755 -0.0564  0.1545 -0.0579
  412loPI   PO4 6580  10.874   8.111  10.110 -0.0639  0.0709  0.0366
  412loPI   GL1 6581  10.653   8.459   9.902 -0.0277  0.1711 -0.1371
  412loPI   GL2 6582  10.534   8.632  10.026  0.0226  0.0213  0.1377
  412loPI   C1A 6583  10.480   8.224   9.542  0.0035  0.2819 -0.1142
  412loPI   C2A 6584  10.474   7.948   9.176 -0.1949  0.1333 -0.1130
  412loPI   C3A 6585  10.588   7.653   8.895 -0.1088 -0.4992 -0.0429
  412loPI   C4A 6586  10.671   7.538   8.489 -0.3531  0.0973  0.1017
  412loPI   C5A 6587  10.829   7.756   8.215 -0.1637 -0.3151 -0.0719
  412loPI   C6A 6588  11.181   7.813   8.011  0.1125 -0.0518 -0.4446
  412loPI   C1B 6589  10.151   8.519   9.797 -0.0825 -0.0045  0.1942
  412loPI   C2B 6590   9.761   8.573   9.638 -0.0799  0.1253  0.2752
  412loPI   C3B 6591   9.518   8.935   9.365  0.3858 -0.0459 -0.3944
  412loPI   C4B 6592   9.751   8.962   8.881  0.0591 -0.0610  0.2891
  413loPI    C1 6593   8.393   0.815   9.947 -0.0380 -0.3128  0.0883
  413loPI    C2 6594   8.783   0.831  10.033 -0.0620  0.1924  0.1336
  413loPI    C3 6595   8.512   0.832  10.328 -0.1053  0.1223  0.0944
  413loPI   PO4 6596   8.362   0.684   9.807  0.0338 -0.0755  0.1060
  413loPI   GL1 6597   8.536   0.711   9.424 -0.3105  0.0611  0.1462
  413loPI   GL2 6598   8.309   0.972   9.368 -0.0154  0.1259  0.1267
  413loPI   C1A 6599   8.538   0.666   8.947 -0.1978 -0.1608  0.1252
  413loPI   C2A 6600   8.577   0.843   8.562 -0.0380  0.0000  0.0707
  413loPI   C3A 6601   8.847   0.955   8.245 -0.0791  0.1239  0.0054
  413loPI   C4A 6602   9.028   0.835   7.994  0.0798  0.1590  0.3553
  413loPI   C5A 6603   9.170   0.885   7.519 -0.3780  0.0202 -0.0858
  413loPI   C6A 6604   9.314   1.212   7.199  0.0014  0.0472 -0.1510
  413loPI   C1B 6605   8.306   1.127   8.880 -0.1022  0.1777  0.1988
  413loPI   C2B 6606   8.535   1.296   8.578 -0.4295 -0.0605 -0.0192
  413loPI   C3B 6607   9.002   1.335   8.479 -0.3126  0.0165 -0.0381
  413loPI   C4B 6608   9.106   1.381   8.093 -0.0628  0.0470 -0.1978
  414loPI    C1 6609  12.233  10.859  10.240  0.0511 -0.0717  0.0286
  414loPI    C2 6610  12.336  10.817  10.624 -0.1192  0.0310  0.0865
  414loPI    C3 6611  12.062  11.089  10.519  0.2535  0.3204 -0.1625
  414loPI   PO4 6612  12.466  10.758  10.047  0.0837 -0.0238 -0.0639
  414loPI   GL1 6613  12.418  10.758   9.580 -0.3072  0.2747 -0.2836
  414loPI   GL2 6614  12.172  10.562   9.433 -0.3553 -0.1220 -0.1529
  414loPI   C1A 6615  12.454  10.843   9.158 -0.0054 -0.1783 -0.0105
  414loPI   C2A 6616  12.546  10.950   8.747 -0.0614 -0.1607 -0.1976
  414loPI   C3A 6617  12.552  11.140   8.286 -0.1377  0.1559  0.1262
  414loPI   C4A 6618  12.665  11.119   7.783  0.3500  0.1526  0.1839
  414loPI   C5A 6619  12.882  10.831   7.481  0.0641 -0.1631  0.1656
  414loPI   C6A 6620  12.955  10.780   7.028  0.1406 -0.1780 -0.0200
  414loPI   C1B 6621  12.042  10.567   9.045  0.1843 -0.0361 -0.1146
  414loPI   C2B 6622  12.243  10.556   8.621  0.1626  0.1561 -0.1405
  414loPI   C3B 6623  12.619  10.581   8.372  0.0347  0.1138 -0.0017
  414loPI   C4B 6624  12.825  10.616   7.977 -0.0345  0.0938  0.0628
  415loPI    C1 6625   1.823   3.531  10.497  0.0472 -0.0824  0.0693
  415loPI    C2 6626   1.569   3.821  10.602  0.1011 -0.0295  0.0540
  415loPI    C3 6627   1.716   3.574  10.880  0.3510  0.1971  0.1272
  415loPI   PO4 6628   1.958   3.598  10.341 -0.3315  0.2746  0.1136
  415loPI   GL1 6629   2.073   3.995  10.059 -0.1623 -0.1682  0.0343
  415loPI   GL2 6630   1.764   4.024  10.128  0.1327 -0.2582  0.1436
  415loPI   C1A 6631   2.093   4.194   9.651  0.2916  0.0029 -0.0014
  415loPI   C2A 6632   1.842   4.125   9.272  0.2213  0.0936 -0.1468
  415loPI   C3A 6633   1.951   3.975   8.855  0.1486  0.1352 -0.1503
  415loPI   C4A 6634   2.148   4.089   8.491  0.1102 -0.4654  0.2851
  415loPI   C5A 6635   1.912   3.963   7.943 -0.1376  0.2402  0.2469
  415loPI   C6A 6636   2.099   4.124   7.516  0.3383  0.0158  0.2353
  415loPI   C1B 6637   1.616   4.109   9.819  0.2651 -0.1014  0.2874
  415loPI   C2B 6638   1.419   4.303   9.432  0.0640 -0.0121 -0.5656
  415loPI   C3B 6639   1.406   4.242   9.035  0.0224 -0.1687 -0.1090
  415loPI   C4B 6640   1.633   4.388   8.675  0.2227  0.2384 -0.3785
  416loPI    C1 6641   8.524  11.815  10.224 -0.0880  0.1449 -0.1624
  416loPI    C2 6642   8.431  11.585  10.538 -0.0245 -0.0555 -0.2882
  416loPI    C3 6643   8.346  11.976  10.544  0.3849  0.0356  0.1650
  416loPI   PO4 6644   8.435  11.630   9.963  0.1504  0.0574  0.0099
  416loPI   GL1 6645   8.507  11.586   9.576 -0.0901  0.0654  0.0398
  416loPI   GL2 6646   8.667  11.475   9.325 -0.2954 -0.1038  0.3625
  416loPI   C1A 6647   8.193  11.798   9.291 -0.5146 -0.2202 -0.0166
  416loPI   C2A 6648   8.052  11.872   8.800 -0.0975  0.2416  0.0280
  416loPI   C3A 6649   8.031  11.875   8.354 -0.3383 -0.0730  0.1457
  416loPI   C4A 6650   8.072  11.857   7.838 -0.0632  0.1015  0.2320
  416loPI   C5A 6651   8.172  11.820   7.394 -0.1029 -0.2924  0.0960
  416loPI   C6A 6652   7.898  11.864   7.077  0.0298  0.1574  0.1034
  416loPI   C1B 6653   8.525  11.604   8.980 -0.2794 -0.1010 -0.0731
  416loPI   C2B 6654   8.452  11.578   8.642 -0.3323 -0.2070  0.1080
  416loPI   C3B 6655   8.497  11.594   8.136  0.3754  0.0928  0.1249
  416loPI   C4B 6656   8.522  11.642   7.703  0.2865 -0.0338  0.1148
  417loPI    C1 6657   7.857  14.242  10.256 -0.0403  0.2636  0.0821
  417loPI    C2 6658   7.724  14.090  10.602  0.0167  0.1456  0.0528
  417loPI    C3 6659   8.089  14.252  10.582  0.1405 -0.1377 -0.0278
  417loPI   PO4 6660   7.824  14.039  10.117  0.1254 -0.0445 -0.2607
  417loPI   GL1 6661   8.120  13.798   9.826  0.0131 -0.1525  0.3294
  417loPI   GL2 6662   8.034  13.480   9.782 -0.2417  0.1840 -0.0566
  417loPI   C1A 6663   7.946  13.884   9.444  0.0341 -0.0177  0.0230
  417loPI   C2A 6664   8.032  13.886   8.997 -0.1614 -0.2116  0.0869
  417loPI   C3A 6665   8.094  13.805   8.637 -0.0841 -0.2495  0.2058
  417loPI   C4A 6666   7.973  13.818   8.206 -0.2579 -0.5050 -0.2278
  417loPI   C5A 6667   7.859  13.847   7.781 -0.1178 -0.0252 -0.1584
  417loPI   C6A 6668   7.577  13.670   7.676  0.0184  0.0169  0.2448
  417loPI   C1B 6669   7.816  13.369   9.505 -0.0928 -0.0705 -0.0442
  417loPI   C2B 6670   7.698  13.506   9.156 -0.1363 -0.3167 -0.1195
  417loPI   C3B 6671   7.553  13.579   8.654  0.0409 -0.1942 -0.1734
  417loPI   C4B 6672   7.521  13.487   8.208 -0.0921 -0.0286  0.1195
  418loPI    C1 6673   0.137   6.881  10.341 -0.0237  0.2112  0.0336
  418loPI    C2 6674   0.113   7.280  10.327 -0.0567  0.2152  0.1898
  418loPI    C3 6675   0.154   7.094  10.679 -0.1149  0.0765  0.1243
  418loPI   PO4 6676  -0.120   6.884  10.177 -0.2480  0.1560 -0.0388
  418loPI   GL1 6677  -0.332   7.064   9.833  0.3568  0.0048 -0.0202
  418loPI   GL2 6678  -0.471   7.007   9.593 -0.0149  0.0243 -0.1133
  418loPI   C1A 6679  -0.047   7.294   9.503  0.0198 -0.1364 -0.1321
  418loPI   C2A 6680  -0.013   7.364   9.016  0.0041  0.0296 -0.4409
  418loPI   C3A 6681  -0.086   7.285   8.529 -0.0344 -0.1772  0.0102
  418loPI   C4A 6682  -0.194   6.979   8.263 -0.1307 -0.0143  0.2652
  418loPI   C5A 6683   0.000   6.761   7.971 -0.0908  0.1048  0.2961
  418loPI   C6A 6684   0.299   6.619   7.653 -0.0473  0.0212 -0.2970
  418loPI   C1B 6685  -0.519   7.099   9.176 -0.0930 -0.2286  0.0644
  418loPI   C2B 6686  -0.517   7.052   8.696 -0.0565  0.2185  0.0056
  418loPI   C3B 6687  -0.687   6.709   8.384 -0.1050  0.2149  0.1534
  418loPI   C4B 6688  -1.113   6.654   8.297  0.1015  0.3153  0.2821
  419loPI    C1 6689  16.697  17.205  10.088 -0.2199 -0.0102 -0.0499
  419loPI    C2 6690  16.799  17.189  10.475  0.1414 -0.4338 -0.1541
  419loPI    C3 6691  16.417  17.142  10.367 -0.0228  0.0733  0.1707
  419loPI   PO4 6692  16.948  17.234   9.973 -0.0009 -0.3236  0.0143
  419loPI   GL1 6693  17.255  17.486   9.654 -0.0178  0.0381  0.0349
  419loPI   GL2 6694  17.100  17.807   9.711  0.0437 -0.0312 -0.1772
  419loPI   C1A 6695  17.569  17.534   9.229 -0.2258  0.3012 -0.1097
  419loPI   C2A 6696  17.465  17.694   8.827  0.2233 -0.0952 -0.3239
  419loPI   C3A 6697  17.301  17.609   8.288  0.0936 -0.0291 -0.1918
  419loPI   C4A 6698  17.214  17.761   7.861 -0.1339 -0.0713 -0.1184
  419loPI   C5A 6699  17.036  17.674   7.454  0.4517  0.0918 -0.0135
  419loPI   C6A 6700  16.842  17.649   7.059 -0.2587  0.0970 -0.2029
  419loPI   C1B 6701  17.267  17.874   9.364 -0.0054  0.0774  0.0929
  419loPI   C2B 6702  17.181  18.098   8.913 -0.4713 -0.0041  0.1015
  419loPI   C3B 6703  17.270  18.078   8.459  0.0469 -0.1531 -0.2846
  419loPI   C4B 6704  17.374  18.212   8.067 -0.0150  0.0093  0.0548
  420loPI    C1 6705  17.228  11.306  10.685  0.0372 -0.1663  0.1629
  420loPI    C2 6706  16.913  11.418  10.905  0.0577 -0.0153  0.1159
  420loPI    C3 6707  17.238  11.650  10.889  0.1469 -0.1401  0.1137
  420loPI   PO4 6708  17.183  11.307  10.478  0.2923 -0.2559 -0.1726
  420loPI   GL1 6709  17.343  11.574  10.062  0.1156  0.1773  0.1572
  420loPI   GL2 6710  17.575  11.445   9.964 -0.0529 -0.0712 -0.0733
  420loPI   C1A 6711  16.945  11.486   9.806  0.0475  0.1641  0.1366
  420loPI   C2A 6712  17.081  11.430   9.378  0.1498 -0.0946  0.0437
  420loPI   C3A 6713  17.098  11.557   8.958 -0.0999  0.1560  0.1422
  420loPI   C4A 6714  17.186  11.680   8.441 -0.2422 -0.1041  0.3266
  420loPI   C5A 6715  17.340  11.604   8.076 -0.0638  0.2053 -0.0128
  420loPI   C6A 6716  17.101  11.546   7.735 -0.1617 -0.1033  0.3080
  420loPI   C1B 6717  17.506  11.213   9.656 -0.2116 -0.0589 -0.1216
  420loPI   C2B 6718  17.592  11.339   9.193 -0.0503 -0.3316 -0.0107
  420loPI   C3B 6719  17.623  11.416   8.813 -0.4330  0.1835 -0.0076
  420loPI   C4B 6720  17.664  11.417   8.347 -0.1149 -0.2135  0.2032
  421loPI    C1 6721   3.358   7.955  10.203  0.2164  0.0000  0.1065
  421loPI    C2 6722   2.990   8.080  10.294  0.1021 -0.1644 -0.1206
  421loPI    C3 6723   3.305   8.225  10.493 -0.0912 -0.0884  0.1357
  421loPI   PO4 6724   3.334   7.891   9.854 -0.0810 -0.1749 -0.2979
  421loPI   GL1 6725   3.626   7.818   9.526  0.1212  0.0738 -0.1449
  421loPI   GL2 6726   3.861   7.649   9.402  0.2106  0.1043  0.2412
  421loPI   C1A 6727   3.744   7.978   9.079  0.0197  0.1934 -0.0192
  421loPI   C2A 6728   4.089   8.054   8.779 -0.0014  0.0073 -0.0359
  421loPI   C3A 6729   4.232   8.112   8.304 -0.1079 -0.0281  0.0480
  421loPI   C4A 6730   4.028   8.115   7.925 -0.0904 -0.0057  0.1338
  421loPI   C5A 6731   4.005   7.947   7.583 -0.2658  0.0909 -0.0121
  421loPI   C6A 6732   4.230   8.008   7.178 -0.0066  0.0373 -0.0513
  421loPI   C1B 6733   3.552   7.472   9.118 -0.2573 -0.2103 -0.0004
  421loPI   C2B 6734   3.522   7.328   8.633  0.1402 -0.0381 -0.1165
  421loPI   C3B 6735   3.410   7.448   8.145 -0.1896 -0.0665  0.2360
  421loPI   C4B 6736   3.608   7.603   7.719  0.1967 -0.1692  0.0533
  422loPI    C1 6737  18.228   3.554  10.241 -0.1987 -0.0041 -0.0858
  422loPI    C2 6738  18.291   3.236  10.474 -0.0238  0.1680  0.1062
  422loPI    C3 6739  17.947   3.438  10.501 -0.1641 -0.0428 -0.0658
  422loPI   PO4 6740  18.147   3.522   9.995  0.3231 -0.1214  0.0891
  422loPI   GL1 6741  18.030   3.223   9.712 -0.0393  0.0994 -0.0258
  422loPI   GL2 6742  18.296   3.365   9.575 -0.1410 -0.0642 -0.2409
  422loPI   C1A 6743  17.770   3.260   9.367 -0.1136  0.0130 -0.0376
  422loPI   C2A 6744  17.605   2.977   8.992 -0.0783 -0.0070  0.2007
  422loPI   C3A 6745  17.344   2.989   8.644 -0.2451 -0.2871  0.0674
  422loPI   C4A 6746  17.124   2.817   8.384 -0.0593 -0.1155 -0.1669
  422loPI   C5A 6747  16.745   2.730   8.261 -0.0624  0.3526  0.1122
  422loPI   C6A 6748  16.431   2.471   8.019  0.1082 -0.0091  0.0106
  422loPI   C1B 6749  18.098   3.592   9.186  0.0406  0.1446  0.2426
  422loPI   C2B 6750  17.844   3.465   8.843  0.3115 -0.0013 -0.1186
  422loPI   C3B 6751  17.820   3.157   8.560  0.1306  0.2917 -0.3475
  422loPI   C4B 6752  17.502   3.010   8.145  0.0243 -0.0791  0.1674
  423loPI    C1 6753  17.898   7.028  10.454  0.1572 -0.1492 -0.0412
  423loPI    C2 6754  17.699   7.212  10.748  0.0749 -0.0913 -0.1326
  423loPI    C3 6755  17.977   6.939  10.836 -0.0802 -0.2102 -0.0045
  423loPI   PO4 6756  18.016   7.198  10.275  0.1241 -0.0820  0.0154
  423loPI   GL1 6757  17.965   7.378   9.912 -0.2164  0.0278  0.3177
  423loPI   GL2 6758  17.632   7.482  10.070  0.0734 -0.1865  0.0429
  423loPI   C1A 6759  17.759   7.603   9.557  0.2244  0.0340  0.0791
  423loPI   C2A 6760  17.882   7.826   9.179 -0.0927 -0.0389  0.0255
  423loPI   C3A 6761  17.867   8.001   8.787  0.2352 -0.1280  0.0776
  423loPI   C4A 6762  17.833   7.890   8.335 -0.0041  0.1489  0.2876
  423loPI   C5A 6763  17.755   8.000   7.882 -0.1721  0.2563 -0.0348
  423loPI   C6A 6764  17.415   7.918   7.637 -0.0446  0.1468  0.2037
  423loPI   C1B 6765  17.416   7.221   9.805 -0.3708  0.2390  0.3213
  423loPI   C2B 6766  17.266   7.048   9.394  0.3850 -0.0276  0.2341
  423loPI   C3B 6767  17.216   6.750   9.010  0.2535  0.0120  0.1645
  423loPI   C4B 6768  17.469   6.448   8.704  0.1821  0.1887  0.0289
  424loPI    C1 6769   4.292   7.828  10.072  0.1987  0.2455 -0.0895
  424loPI    C2 6770   4.562   8.041  10.277 -0.0502  0.4567  0.0258
  424loPI    C3 6771   4.175   8.139  10.294 -0.1853 -0.0666  0.1593
  424loPI   PO4 6772   4.343   7.894   9.792  0.1643  0.3195 -0.1396
  424loPI   GL1 6773   4.220   8.054   9.428 -0.0456  0.0590 -0.0142
  424loPI   GL2 6774   3.949   8.226   9.378 -0.2546 -0.2148 -0.0912
  424loPI   C1A 6775   4.426   7.793   9.142  0.1699  0.0226 -0.2186
  424loPI   C2A 6776   4.467   7.718   8.653 -0.0966  0.0096 -0.0352
  424loPI   C3A 6777   4.453   7.515   8.261 -0.1201  0.0842  0.0980
  424loPI   C4A 6778   4.615   7.551   7.832 -0.0926  0.1809 -0.1306
  424loPI   C5A 6779   4.528   7.566   7.316  0.1029 -0.1646 -0.2011
  424loPI   C6A 6780   4.523   7.456   6.876 -0.4565  0.0903 -0.1770
  424loPI   C1B 6781   4.090   8.445   9.089  0.1896 -0.0830  0.2014
  424loPI   C2B 6782   4.036   8.551   8.602 -0.0988  0.2227  0.0159
  424loPI   C3B 6783   4.115   8.751   8.116  0.3103  0.0341 -0.0296
  424loPI   C4B 6784   4.532   8.768   7.895  0.2169  0.1946 -0.2071
  425loPI    C1 6785   7.667   2.748  10.083 -0.0069 -0.0394 -0.1133
  425loPI    C2 6786   7.409   2.948   9.853 -0.0885 -0.1196 -0.0919
  425loPI    C3 6787   7.285   2.784  10.196  0.0118 -0.0795 -0.0362
  425loPI   PO4 6788   7.854   2.871  10.076  0.0210 -0.0581  0.0126
  425loPI   GL1 6789   8.201   2.888   9.732  0.3277 -0.0286 -0.0715
  425loPI   GL2 6790   8.483   2.732   9.669  0.1085  0.0885 -0.2308
  425loPI   C1A 6791   8.032   3.266   9.479  0.0488 -0.1353  0.3929
  425loPI   C2A 6792   8.010   3.309   9.015 -0.0966  0.3939  0.2077
  425loPI   C3A 6793   8.069   3.319   8.620  0.0980 -0.1619 -0.0425
  425loPI   C4A 6794   8.009   3.509   8.344 -0.1490 -0.2034  0.0904
  425loPI   C5A 6795   7.588   3.574   8.087 -0.3763  0.2304  0.1052
  425loPI   C6A 6796   7.549   3.836   7.760 -0.2803  0.1312  0.1271
  425loPI   C1B 6797   8.382   3.019   9.192 -0.2284  0.1541 -0.0709
  425loPI   C2B 6798   8.434   2.986   8.700 -0.1867 -0.2080 -0.1219
  425loPI   C3B 6799   8.324   3.022   8.298 -0.1991  0.2503  0.2252
  425loPI   C4B 6800   8.250   2.986   7.860 -0.5638  0.2106 -0.0250
  426loPI    C1 6801   3.284  12.271  10.261 -0.1808 -0.1536 -0.0831
  426loPI    C2 6802   2.982  12.105  10.463 -0.1240 -0.0147  0.1195
  426loPI    C3 6803   3.095  12.479  10.546  0.0781 -0.0520  0.0175
  426loPI   PO4 6804   3.203  12.293   9.984  0.1072  0.0856 -0.1172
  426loPI   GL1 6805   3.299  12.164   9.594 -0.2217  0.0744 -0.0834
  426loPI   GL2 6806   3.465  11.892   9.707  0.1478  0.2084  0.0382
  426loPI   C1A 6807   3.153  11.964   9.296 -0.1458 -0.1090  0.0506
  426loPI   C2A 6808   3.057  11.985   9.047  0.3253 -0.1588  0.0799
  426loPI   C3A 6809   3.013  11.739   8.667  0.5094 -0.1004  0.2589
  426loPI   C4A 6810   3.063  11.557   8.185  0.2440 -0.1719 -0.0961
  426loPI   C5A 6811   3.428  11.374   7.953  0.0060  0.0297 -0.1115
  426loPI   C6A 6812   3.817  10.982   7.946  0.0500 -0.1886 -0.1421
  426loPI   C1B 6813   3.521  11.573   9.447  0.0162  0.0856 -0.0359
  426loPI   C2B 6814   3.389  11.550   8.967  0.2026  0.2715  0.2088
  426loPI   C3B 6815   3.470  11.648   8.536  0.0175  0.1210 -0.0124
  426loPI   C4B 6816   3.575  11.801   8.125 -0.4159 -0.0193  0.1263
  427loPI    C1 6817  14.735  11.363  10.171 -0.2156 -0.2746 -0.2146
  427loPI    C2 6818  14.990  11.068  10.083  0.0803 -0.1068  0.0587
  427loPI    C3 6819  14.829  11.091  10.448  0.0142  0.0369  0.0214
  427loPI   PO4 6820  14.595  11.335   9.858 -0.2734  0.0515  0.0116
  427loPI   GL1 6821  14.613  11.562   9.408 -0.1447 -0.2314  0.2327
  427loPI   GL2 6822  14.344  11.750   9.300  0.0174  0.1279  0.1088
  427loPI   C1A 6823  14.791  11.383   9.029  0.3005  0.3481  0.1054
  427loPI   C2A 6824  14.917  11.363   8.638  0.0738 -0.4641  0.0216
  427loPI   C3A 6825  14.936  11.612   8.290 -0.2646 -0.0307  0.2320
  427loPI   C4A 6826  14.959  11.742   7.899  0.1178  0.1505 -0.1734
  427loPI   C5A 6827  15.023  12.085   7.606  0.2665  0.2206 -0.0828
  427loPI   C6A 6828  15.263  12.405   7.609 -0.4992 -0.0569  0.3034
  427loPI   C1B 6829  14.380  11.724   8.970  0.0377  0.2858 -0.0869
  427loPI   C2B 6830  14.467  11.643   8.559 -0.1803  0.1653  0.1480
  427loPI   C3B 6831  14.525  11.894   8.182 -0.1659 -0.2298 -0.1668
  427loPI   C4B 6832  14.590  12.093   7.806 -0.0136  0.6318  0.1667
  428loPI    C1 6833  17.714  18.556   9.952  0.0284 -0.0908  0.0282
  428loPI    C2 6834  17.636  18.558  10.344 -0.0904 -0.2451  0.0061
  428loPI    C3 6835  17.782  18.886  10.168 -0.1637 -0.1319  0.1538
  428loPI   PO4 6836  17.869  18.256   9.941 -0.2377 -0.0820  0.0554
  428loPI   GL1 6837  17.963  17.980   9.540 -0.0168  0.0346  0.0340
  428loPI   GL2 6838  18.275  17.991   9.443  0.1870 -0.0767  0.3621
  428loPI   C1A 6839  17.726  18.016   9.207 -0.3787 -0.2097  0.0177
  428loPI   C2A 6840  17.727  18.190   8.726  0.3203 -0.2489 -0.0493
  428loPI   C3A 6841  17.744  18.553   8.395  0.0467 -0.2840 -0.1491
  428loPI   C4A 6842  17.534  18.652   7.961 -0.0890  0.0622 -0.0708
  428loPI   C5A 6843  17.129  18.749   7.786  0.1354 -0.1477  0.0084
  428loPI   C6A 6844  16.779  18.945   7.491  0.2755  0.3667 -0.0075
  428loPI   C1B 6845  18.163  18.023   9.046  0.1508 -0.1937  0.0207
  428loPI   C2B 6846  18.110  17.920   8.582  0.1418 -0.0654 -0.2335
  428loPI   C3B 6847  17.800  17.608   8.302 -0.1069 -0.3265 -0.4226
  428loPI   C4B 6848  17.659  17.528   7.916  0.2216 -0.0202  0.1357
  429loPI    C1 6849   2.066   7.637  10.333  0.1144  0.0739  0.0232
  429loPI    C2 6850   1.845   7.567  10.658  0.2033 -0.1366  0.0398
  429loPI    C3 6851   2.222   7.435  10.641  0.2790  0.0874 -0.0500
  429loPI   PO4 6852   1.943   7.569  10.092  0.0044 -0.2930  0.0550
  429loPI   GL1 6853   2.096   7.445   9.735  0.0646  0.1669 -0.1708
  429loPI   GL2 6854   2.136   7.151   9.546 -0.1031  0.2831 -0.6611
  429loPI   C1A 6855   1.960   7.560   9.313 -0.1824  0.0024 -0.0312
  429loPI   C2A 6856   2.165   7.567   8.887  0.0144  0.1548 -0.2630
  429loPI   C3A 6857   2.087   7.447   8.476  0.0904  0.0522 -0.3297
  429loPI   C4A 6858   1.878   7.361   8.096  0.2068  0.0502 -0.4721
  429loPI   C5A 6859   1.551   7.371   7.870 -0.0827  0.1071  0.0601
  429loPI   C6A 6860   1.187   7.277   7.956  0.2871 -0.1272 -0.1200
  429loPI   C1B 6861   1.937   7.058   9.248 -0.1267  0.2705 -0.1115
  429loPI   C2B 6862   1.967   6.970   8.921  0.1599  0.0488 -0.1245
  429loPI   C3B 6863   1.812   7.014   8.505 -0.2484 -0.1615 -0.1987
  429loPI   C4B 6864   1.475   7.148   8.334  0.2663 -0.0894 -0.1922
  430loPI    C1 6865   7.713   1.392   9.964  0.0169 -0.1940  0.2583
  430loPI    C2 6866   7.461   1.408  10.274 -0.2017  0.2845  0.0663
  430loPI    C3 6867   7.486   1.075  10.054 -0.2144  0.0222  0.4519
  430loPI   PO4 6868   7.734   1.668   9.907 -0.1168  0.0672 -0.0635
  430loPI   GL1 6869   7.729   1.881   9.515 -0.2679 -0.1117 -0.2174
  430loPI   GL2 6870   8.011   1.848   9.484  0.1200  0.0248  0.0344
  430loPI   C1A 6871   7.588   2.283   9.254 -0.0504 -0.0593 -0.2843
  430loPI   C2A 6872   7.430   2.469   8.959 -0.1543  0.0758  0.1649
  430loPI   C3A 6873   7.356   2.325   8.510  0.0098 -0.0007 -0.1916
  430loPI   C4A 6874   7.344   2.266   8.156 -0.2927 -0.2312  0.0049
  430loPI   C5A 6875   7.167   2.338   7.827 -0.0906  0.3101 -0.0123
  430loPI   C6A 6876   7.112   2.538   7.339  0.1187  0.3679  0.3755
  430loPI   C1B 6877   7.968   1.887   9.065  0.0404 -0.1671  0.2574
  430loPI   C2B 6878   7.838   2.170   8.706 -0.1533 -0.0159  0.1314
  430loPI   C3B 6879   7.881   2.284   8.247  0.2785  0.0741 -0.0352
  430loPI   C4B 6880   7.724   2.638   8.046  0.0761  0.2422  0.4273
  431loPI    C1 6881   7.615  17.836   9.984  0.0334  0.1293  0.1105
  431loPI    C2 6882   7.895  17.672  10.219 -0.1174  0.0496  0.2370
  431loPI    C3 6883   7.543  17.783  10.374 -0.2211 -0.0084  0.0476
  431loPI   PO4 6884   7.714  17.968   9.762  0.0929 -0.0282 -0.2080
  431loPI   GL1 6885   7.932  17.835   9.405  0.2605  0.2739  0.0506
  431loPI   GL2 6886   7.690  17.661   9.207 -0.2001 -0.1433 -0.2721
  431loPI   C1A 6887   8.202  17.934   9.079  0.0900  0.1616  0.2618
  431loPI   C2A 6888   8.265  17.804   8.670 -0.1940  0.1132  0.2520
  431loPI   C3A 6889   8.511  17.605   8.315 -0.0173  0.0836  0.0674
  431loPI   C4A 6890   8.641  17.407   7.911  0.2679 -0.0687 -0.0992
  431loPI   C5A 6891   8.618  17.480   7.469  0.1017  0.1130  0.1702
  431loPI   C6A 6892   8.720  17.469   7.076  0.3120  0.0150 -0.0855
  431loPI   C1B 6893   7.710  17.766   8.708  0.1246 -0.0585 -0.0191
  431loPI   C2B 6894   7.673  17.866   8.200 -0.0701  0.0265  0.0057
  431loPI   C3B 6895   7.737  18.049   7.806  0.1945 -0.0598  0.3940
  431loPI   C4B 6896   7.636  18.297   7.446  0.0925  0.1797 -0.2318
  432loPI    C1 6897   7.913   4.653  10.758  0.0433 -0.0973  0.1708
  432loPI    C2 6898   8.166   4.503  11.030  0.0492 -0.1060  0.1605
  432loPI    C3 6899   7.982   4.852  11.099  0.1812 -0.0236  0.1007
  432loPI   PO4 6900   8.088   4.570  10.496 -0.2550 -0.2102 -0.3454
  432loPI   GL1 6901   8.164   4.585  10.014  0.1398  0.0262  0.0549
  432loPI   GL2 6902   8.017   4.802   9.838  0.0503  0.2463 -0.3094
  432loPI   C1A 6903   8.324   4.498   9.585  0.3687  0.0549 -0.3522
  432loPI   C2A 6904   8.384   4.407   9.178 -0.0227 -0.0687  0.2568
  432loPI   C3A 6905   8.105   4.438   8.876  0.0073 -0.2399 -0.0592
  432loPI   C4A 6906   8.214   4.687   8.467 -0.1042  0.0739 -0.2536
  432loPI   C5A 6907   8.546   4.697   8.157 -0.0231  0.0442 -0.2977
  432loPI   C6A 6908   8.742   4.836   7.852  0.1664  0.2930 -0.1894
  432loPI   C1B 6909   7.990   4.768   9.347  0.2424  0.2438  0.1090
  432loPI   C2B 6910   8.081   4.933   8.883 -0.0891  0.0274 -0.2508
  432loPI   C3B 6911   8.065   5.169   8.473 -0.2448 -0.1222 -0.4396
  432loPI   C4B 6912   8.198   5.228   8.002 -0.1731  0.4672 -0.0997
  433loPI    C1 6913  17.149   7.016  10.083  0.0232 -0.6038  0.0276
  433loPI    C2 6914  17.076   7.018  10.477 -0.1065  0.3685  0.0226
  433loPI    C3 6915  17.441   7.109  10.341 -0.0059 -0.1669 -0.0901
  433loPI   PO4 6916  17.077   6.722   9.952  0.1578  0.0941  0.0225
  433loPI   GL1 6917  17.316   6.638   9.705 -0.0335 -0.1006  0.0773
  433loPI   GL2 6918  17.091   6.424   9.514  0.1394 -0.2263 -0.0269
  433loPI   C1A 6919  17.574   6.661   9.311  0.3811 -0.0856  0.3081
  433loPI   C2A 6920  17.835   6.734   8.945  0.1730 -0.3829 -0.2538
  433loPI   C3A 6921  17.668   6.963   8.653 -0.3530 -0.1940 -0.1104
  433loPI   C4A 6922  17.715   7.223   8.353  0.3014  0.3390 -0.2076
  433loPI   C5A 6923  17.666   7.478   8.023 -0.0045 -0.1577 -0.0270
  433loPI   C6A 6924  17.782   7.484   7.675 -0.3624  0.1582 -0.0095
  433loPI   C1B 6925  16.931   6.342   9.131 -0.2107 -0.1418 -0.0597
  433loPI   C2B 6926  16.995   6.321   8.719 -0.0532 -0.1590  0.0074
  433loPI   C3B 6927  16.920   6.153   8.296  0.1015 -0.0815 -0.0035
  433loPI   C4B 6928  16.861   6.380   7.942 -0.0321 -0.1827 -0.4116
  434loPI    C1 6929   2.345   2.559  10.479 -0.0499 -0.0698  0.0208
  434loPI    C2 6930   2.251   2.713  10.837  0.3287  0.0362  0.0794
  434loPI    C3 6931   2.540   2.438  10.807  0.0370 -0.2587 -0.0992
  434loPI   PO4 6932   2.447   2.774  10.232 -0.3594  0.0314 -0.2022
  434loPI   GL1 6933   2.755   2.707   9.847  0.2514  0.3547 -0.1568
  434loPI   GL2 6934   2.831   2.919   9.619 -0.0709  0.3469  0.1338
  434loPI   C1A 6935   2.568   2.501   9.461  0.1212 -0.1792  0.0145
  434loPI   C2A 6936   2.562   2.458   9.012 -0.0861  0.2081 -0.1513
  434loPI   C3A 6937   2.559   2.611   8.544 -0.0537 -0.2234  0.1836
  434loPI   C4A 6938   2.599   2.499   8.075  0.2530  0.2046 -0.1745
  434loPI   C5A 6939   2.622   2.322   7.667 -0.2875  0.2242 -0.1196
  434loPI   C6A 6940   2.620   2.391   7.203 -0.0740  0.1631 -0.1730
  434loPI   C1B 6941   2.779   2.974   9.268  0.2159  0.0343  0.0563
  434loPI   C2B 6942   2.910   2.883   8.782 -0.0631  0.0022  0.0471
  434loPI   C3B 6943   2.882   2.957   8.366 -0.2118  0.3211 -0.0068
  434loPI   C4B 6944   2.626   2.991   8.053  0.0981 -0.0458 -0.2694
  435loPI    C1 6945  15.542  14.719  10.305  0.1971 -0.3453  0.1507
  435loPI    C2 6946  15.915  14.670  10.168  0.2271  0.0925  0.0621
  435loPI    C3 6947  15.854  14.769  10.551  0.1903 -0.1485  0.1204
  435loPI   PO4 6948  15.464  14.910  10.136 -0.1830 -0.3381 -0.1206
  435loPI   GL1 6949  15.588  14.841   9.736  0.0842  0.1368 -0.2267
  435loPI   GL2 6950  15.943  14.965   9.602  0.1057 -0.0037 -0.0262
  435loPI   C1A 6951  15.568  15.048   9.287 -0.0894  0.1707  0.1266
  435loPI   C2A 6952  15.603  14.940   8.845 -0.0492 -0.0409 -0.2201
  435loPI   C3A 6953  15.704  15.044   8.473 -0.1211  0.0572 -0.1453
  435loPI   C4A 6954  15.483  14.679   8.193  0.0984  0.1877 -0.3019
  435loPI   C5A 6955  15.178  14.639   7.955  0.2267 -0.0232  0.1676
  435loPI   C6A 6956  14.783  14.619   7.714 -0.1173 -0.0952  0.2213
  435loPI   C1B 6957  15.897  14.702   9.203  0.0896  0.1074 -0.0826
  435loPI   C2B 6958  15.948  14.440   8.848  0.0897 -0.2987  0.3247
  435loPI   C3B 6959  15.982  14.404   8.389 -0.3752  0.3075  0.0076
  435loPI   C4B 6960  15.834  14.367   8.023 -0.1820  0.1730  0.0804
  436loPI    C1 6961  11.845   6.065  10.437  0.1882  0.1060 -0.1083
  436loPI    C2 6962  11.778   5.675  10.495  0.1222  0.1257 -0.0507
  436loPI    C3 6963  12.145   5.803  10.399  0.0766  0.0155 -0.3816
  436loPI   PO4 6964  11.614   6.086  10.237  0.0349  0.4318  0.1454
  436loPI   GL1 6965  11.466   6.173   9.944  0.0652  0.1150  0.0779
  436loPI   GL2 6966  11.737   6.303   9.794 -0.0970  0.0461 -0.2454
  436loPI   C1A 6967  11.256   5.968   9.562 -0.0307 -0.2262 -0.2167
  436loPI   C2A 6968  11.336   6.008   9.136 -0.0182 -0.0332 -0.0266
  436loPI   C3A 6969  11.340   6.006   8.712 -0.1377 -0.0591  0.0176
  436loPI   C4A 6970  11.197   5.848   8.330 -0.4199  0.0343 -0.0179
  436loPI   C5A 6971  11.169   6.091   7.970 -0.2007  0.0494  0.0073
  436loPI   C6A 6972  11.371   6.538   8.039  0.1954 -0.1038 -0.2567
  436loPI   C1B 6973  11.585   6.432   9.443 -0.0378  0.4145 -0.2041
  436loPI   C2B 6974  11.486   6.491   9.017 -0.0433  0.0374  0.0195
  436loPI   C3B 6975  11.658   6.448   8.608 -0.2152  0.1272  0.1793
  436loPI   C4B 6976  11.619   6.188   8.284  0.1527  0.0862  0.2504
  437loPI    C1 6977  13.439  13.333  10.242 -0.1998  0.1056  0.0771
  437loPI    C2 6978  13.245  13.596  10.473 -0.5209 -0.0772  0.0219
  437loPI    C3 6979  13.155  13.206  10.494 -0.1136 -0.1748  0.0364
  437loPI   PO4 6980  13.562  13.518  10.009  0.2609  0.0940  0.2542
  437loPI   GL1 6981  13.570  13.689   9.588 -0.1113  0.1344 -0.1772
  437loPI   GL2 6982  13.555  13.961   9.678 -0.0547 -0.1417  0.2187
  437loPI   C1A 6983  13.693  13.690   9.182  0.2573 -0.0245 -0.1534
  437loPI   C2A 6984  13.649  13.455   8.796 -0.3187 -0.1872 -0.2897
  437loPI   C3A 6985  13.596  13.371   8.389  0.0312 -0.3271  0.0693
  437loPI   C4A 6986  13.497  13.613   8.054 -0.0830 -0.2385  0.1547
  437loPI   C5A 6987  13.482  13.941   7.735 -0.3678 -0.4376  0.1291
  437loPI   C6A 6988  13.678  14.021   7.310 -0.1517 -0.1755 -0.2074
  437loPI   C1B 6989  13.470  14.146   9.211 -0.1516 -0.0550  0.0752
  437loPI   C2B 6990  13.418  14.139   8.740  0.3040  0.0471 -0.1080
  437loPI   C3B 6991  13.723  13.924   8.578  0.0811  0.2234  0.1300
  437loPI   C4B 6992  13.934  13.992   8.160  0.0244  0.1245  0.1465
  438loPI    C1 6993   9.702   2.096  10.015 -0.0500  0.0443  0.0170
  438loPI    C2 6994   9.516   2.191  10.356 -0.1474  0.1049 -0.0526
  438loPI    C3 6995   9.853   1.976  10.365 -0.1220  0.1499  0.0849
  438loPI   PO4 6996   9.360   2.010   9.903  0.2408  0.0791 -0.0912
  438loPI   GL1 6997   9.149   1.767   9.603 -0.1067  0.2761 -0.1501
  438loPI   GL2 6998   9.458   1.670   9.586  0.1611 -0.0436  0.0041
  438loPI   C1A 6999   8.901   1.627   9.370 -0.1845 -0.0885  0.1770
  438loPI   C2A 7000   8.830   1.630   8.930  0.0793  0.1810  0.1223
  438loPI   C3A 7001   8.727   1.742   8.466  0.1828 -0.0777  0.3273
  438loPI   C4A 7002   8.840   1.771   8.055 -0.0178  0.0410  0.0186
  438loPI   C5A 7003   9.091   1.628   7.645  0.0819  0.0072  0.2496
  438loPI   C6A 7004   9.364   1.313   7.668  0.1898  0.1786 -0.1545
  438loPI   C1B 7005   9.364   1.647   9.175  0.2943  0.1727 -0.3825
  438loPI   C2B 7006   9.197   1.760   8.714  0.0182 -0.2416  0.0002
  438loPI   C3B 7007   9.195   1.829   8.331 -0.0872  0.2985 -0.2683
  438loPI   C4B 7008   9.326   1.993   7.960  0.2184  0.0215 -0.2557
  439loPI    C1 7009   8.991  11.926  10.209  0.0102 -0.4714  0.0793
  439loPI    C2 7010   9.229  11.997  10.522 -0.0922  0.0506  0.0469
  439loPI    C3 7011   8.836  12.066  10.550 -0.1217 -0.0306 -0.1545
  439loPI   PO4 7012   9.066  12.000   9.973 -0.2149 -0.2386  0.1209
  439loPI   GL1 7013   9.358  12.108   9.681  0.0830  0.0505 -0.2895
  439loPI   GL2 7014   9.660  12.324   9.683  0.0805 -0.4954  0.0731
  439loPI   C1A 7015   9.400  12.012   9.244 -0.0385 -0.4010 -0.1320
  439loPI   C2A 7016   9.392  12.129   8.835 -0.0713 -0.0418 -0.0807
  439loPI   C3A 7017   9.387  12.095   8.425  0.1380  0.1143  0.2668
  439loPI   C4A 7018   9.388  12.060   8.075  0.1298 -0.0764  0.0633
  439loPI   C5A 7019   9.286  12.232   7.702  0.2300  0.0202 -0.0231
  439loPI   C6A 7020   9.415  12.501   7.558 -0.3767  0.1920  0.3305
  439loPI   C1B 7021   9.447  12.533   9.324  0.1925  0.1626  0.3124
  439loPI   C2B 7022   9.415  12.658   8.892 -0.3047  0.2078  0.0764
  439loPI   C3B 7023   9.427  12.663   8.429 -0.0500  0.1341  0.0708
  439loPI   C4B 7024   9.359  12.574   8.046 -0.6425 -0.1290 -0.0967
  440loPI    C1 7025   4.659   7.532  10.281 -0.0560  0.1263  0.1073
  440loPI    C2 7026   4.566   7.177  10.442 -0.1979  0.1701  0.1238
  440loPI    C3 7027   4.874   7.388  10.586  0.0186 -0.0398 -0.0219
  440loPI   PO4 7028   4.623   7.453   9.982 -0.0811 -0.1385 -0.1030
  440loPI   GL1 7029   4.891   7.366   9.736 -0.0526 -0.0574 -0.0718
  440loPI   GL2 7030   4.974   7.534   9.460 -0.3202 -0.0649  0.0949
  440loPI   C1A 7031   4.658   7.136   9.383 -0.0503  0.1970  0.0006
  440loPI   C2A 7032   4.503   7.276   8.867  0.1849  0.0216  0.3885
  440loPI   C3A 7033   4.612   7.084   8.496 -0.1045  0.0625 -0.0029
  440loPI   C4A 7034   4.724   7.117   8.085  0.2549  0.0544  0.1039
  440loPI   C5A 7035   4.968   7.179   7.737  0.1653 -0.2079  0.0226
  440loPI   C6A 7036   5.012   7.641   7.501  0.2160  0.0893 -0.1543
  440loPI   C1B 7037   4.959   7.563   9.049 -0.0089  0.0189 -0.0936
  440loPI   C2B 7038   4.910   7.526   8.641 -0.0087 -0.0345 -0.1431
  440loPI   C3B 7039   4.928   7.554   8.258 -0.2393 -0.2419 -0.0091
  440loPI   C4B 7040   5.292   7.583   7.933  0.2337 -0.0987 -0.0987
  441loPI    C1 7041  18.207   0.826  10.301  0.1122  0.2607 -0.0334
  441loPI    C2 7042  18.128   0.810  10.693  0.0269 -0.1241 -0.0619
  441loPI    C3 7043  18.107   0.478  10.471  0.2170  0.0627 -0.3673
  441loPI   PO4 7044  18.085   0.996  10.207 -0.0823  0.0351  0.1415
  441loPI   GL1 7045  17.805   1.009   9.871 -0.2593  0.0468 -0.1575
  441loPI   GL2 7046  17.535   1.051   9.899 -0.1203 -0.0228 -0.0298
  441loPI   C1A 7047  17.771   0.706   9.523 -0.0523 -0.0008 -0.0087
  441loPI   C2A 7048  17.539   0.847   9.160  0.1031 -0.1536 -0.0200
  441loPI   C3A 7049  17.557   1.149   8.787  0.0615 -0.1465  0.2956
  441loPI   C4A 7050  17.465   1.252   8.404  0.0168 -0.2603 -0.1363
  441loPI   C5A 7051  17.155   1.137   8.166 -0.1019  0.1576  0.2226
  441loPI   C6A 7052  17.114   0.811   7.933  0.3827  0.1864 -0.3826
  441loPI   C1B 7053  17.236   0.974   9.546  0.0864  0.2759 -0.1069
  441loPI   C2B 7054  16.827   1.040   9.417  0.1023 -0.1921 -0.0986
  441loPI   C3B 7055  16.487   1.092   9.398 -0.2350 -0.0536 -0.1285
  441loPI   C4B 7056  16.240   1.369   9.372 -0.0224  0.1998 -0.0688
  442loPI    C1 7057   1.505  12.882  10.315 -0.1310 -0.0110 -0.0049
  442loPI    C2 7058   1.528  12.800  10.706  0.1797  0.0113 -0.0153
  442loPI    C3 7059   1.406  13.161  10.584 -0.0762 -0.0489  0.0550
  442loPI   PO4 7060   1.658  12.639  10.253  0.0812 -0.0215 -0.0181
  442loPI   GL1 7061   1.562  12.595   9.742  0.0968  0.2075 -0.3105
  442loPI   GL2 7062   1.514  12.385   9.640  0.0918 -0.1528 -0.1541
  442loPI   C1A 7063   1.617  12.663   9.242  0.0755 -0.1711  0.1324
  442loPI   C2A 7064   1.533  12.618   8.805  0.3067 -0.1428 -0.3458
  442loPI   C3A 7065   1.452  12.335   8.478  0.2026 -0.1850 -0.1152
  442loPI   C4A 7066   1.740  12.249   8.234 -0.1496 -0.1017  0.1948
  442loPI   C5A 7067   1.865  11.986   7.899 -0.1487  0.1578  0.0289
  442loPI   C6A 7068   1.799  11.832   7.440  0.0839  0.1580  0.0018
  442loPI   C1B 7069   1.482  12.110   9.299 -0.2952  0.0002  0.0609
  442loPI   C2B 7070   1.422  12.167   8.958 -0.1196  0.1114  0.1729
  442loPI   C3B 7071   1.227  11.970   8.707 -0.0762  0.1456 -0.0939
  442loPI   C4B 7072   1.280  11.559   8.522  0.0947  0.3465  0.3224
  443loPI    C1 7073   7.849   9.884  10.034 -0.2836  0.2148 -0.0985
  443loPI    C2 7074   7.737   9.566  10.249 -0.0030  0.0305 -0.2190
  443loPI    C3 7075   7.929   9.870  10.426  0.2372 -0.1253 -0.2075
  443loPI   PO4 7076   8.022   9.750   9.800 -0.0429  0.1572 -0.0174
  443loPI   GL1 7077   7.956   9.561   9.462  0.3795 -0.3105 -0.1032
  443loPI   GL2 7078   8.073   9.305   9.462 -0.0910  0.1066  0.1261
  443loPI   C1A 7079   7.620   9.307   9.144  0.1342 -0.0343  0.0364
  443loPI   C2A 7080   7.579   9.098   8.818  0.0429  0.4382 -0.2388
  443loPI   C3A 7081   7.711   9.088   8.362 -0.0946  0.1543 -0.0984
  443loPI   C4A 7082   8.044   8.854   8.046 -0.1434  0.1723 -0.1201
  443loPI   C5A 7083   8.352   8.653   7.710 -0.0220  0.2416 -0.0590
  443loPI   C6A 7084   8.356   8.615   7.293  0.1412  0.0571  0.2271
  443loPI   C1B 7085   8.132   9.265   9.080  0.0713 -0.2393  0.2472
  443loPI   C2B 7086   8.133   9.211   8.776  0.1702 -0.1079  0.1935
  443loPI   C3B 7087   8.312   9.228   8.344 -0.2534  0.0614  0.1426
  443loPI   C4B 7088   8.516   9.157   7.954  0.0592 -0.1922 -0.5619
  444loPI    C1 7089   2.975   8.959  10.197  0.0193  0.0486 -0.0481
  444loPI    C2 7090   2.779   8.721   9.942 -0.0916 -0.0003  0.0812
  444loPI    C3 7091   3.086   8.577  10.155  0.0390  0.0564 -0.0670
  444loPI   PO4 7092   3.113   9.146  10.053 -0.0890  0.2576  0.6061
  444loPI   GL1 7093   3.034   9.230   9.766 -0.0282 -0.2064 -0.0636
  444loPI   GL2 7094   3.356   9.196   9.494 -0.0406 -0.2414 -0.1155
  444loPI   C1A 7095   2.818   9.006   9.526 -0.1807 -0.2271  0.1621
  444loPI   C2A 7096   2.651   8.949   9.081  0.1314  0.0086  0.1931
  444loPI   C3A 7097   2.827   8.673   8.775 -0.0563  0.0584  0.0036
  444loPI   C4A 7098   2.833   8.412   8.450  0.2875 -0.0409 -0.0600
  444loPI   C5A 7099   2.751   8.173   7.971  0.1963  0.0492  0.0086
  444loPI   C6A 7100   2.636   7.874   7.903 -0.2249  0.1407  0.0077
  444loPI   C1B 7101   3.529   9.237   9.087 -0.1547 -0.2343  0.1904
  444loPI   C2B 7102   3.646   9.368   8.653 -0.0164 -0.0703  0.3524
  444loPI   C3B 7103   3.641   9.424   8.170  0.1397 -0.1943 -0.4210
  444loPI   C4B 7104   3.655   9.347   7.678  0.2314  0.2690  0.3078
  445loPI    C1 7105  16.505   0.779  10.189  0.0944  0.0596 -0.0742
  445loPI    C2 7106  16.751   1.042  10.363  0.0322  0.1142 -0.0681
  445loPI    C3 7107  16.602   0.737  10.574  0.0928  0.0823 -0.0713
  445loPI   PO4 7108  16.551   0.586   9.913 -0.2749  0.0243 -0.1249
  445loPI   GL1 7109  16.830   0.521   9.588  0.0630  0.0437 -0.2846
  445loPI   GL2 7110  16.888   0.264   9.611  0.2383  0.1695 -0.2472
  445loPI   C1A 7111  17.056   0.639   9.238  0.0352 -0.1458  0.0555
  445loPI   C2A 7112  17.223   0.544   8.896  0.0101 -0.0323  0.0433
  445loPI   C3A 7113  17.357   0.699   8.464 -0.1355  0.0329 -0.1689
  445loPI   C4A 7114  17.626   0.809   8.245 -0.0573 -0.2045 -0.4560
  445loPI   C5A 7115  17.970   1.067   8.257 -0.2043 -0.2989 -0.2991
  445loPI   C6A 7116  18.198   1.215   8.431  0.0981 -0.0955  0.1244
  445loPI   C1B 7117  16.719   0.112   9.232 -0.1178 -0.0562 -0.1903
  445loPI   C2B 7118  16.789   0.307   8.798 -0.1005 -0.5087  0.0955
  445loPI   C3B 7119  16.864   0.298   8.423  0.0180  0.2700  0.0457
  445loPI   C4B 7120  16.817   0.389   7.942  0.3230 -0.0450  0.0872
  446loPI    C1 7121   7.086   0.080   9.934  0.0588  0.1248  0.0371
  446loPI    C2 7122   7.070   0.319  10.254 -0.1553  0.0937  0.0513
  446loPI    C3 7123   7.135  -0.073  10.300 -0.7514 -0.0078  0.1092
  446loPI   PO4 7124   7.039   0.265   9.715  0.2426 -0.5595 -0.2180
  446loPI   GL1 7125   7.205   0.372   9.360  0.3584  0.0124  0.3787
  446loPI   GL2 7126   7.510   0.462   9.348  0.3953  0.1734  0.1791
  446loPI   C1A 7127   7.038   0.397   8.787 -0.1439  0.2393 -0.3088
  446loPI   C2A 7128   7.172   0.367   8.405  0.2125  0.0427  0.1883
  446loPI   C3A 7129   7.415   0.271   8.016  0.1919  0.1385 -0.0410
  446loPI   C4A 7130   7.676   0.135   7.720  0.2667  0.0192  0.1521
  446loPI   C5A 7131   7.918   0.021   7.477 -0.1408  0.3476  0.1021
  446loPI   C6A 7132   8.157  -0.431   7.484  0.1133  0.2676  0.0301
  446loPI   C1B 7133   7.556   0.474   8.919  0.1090 -0.0230  0.1081
  446loPI   C2B 7134   7.624   0.505   8.476 -0.0058 -0.2367  0.0827
  446loPI   C3B 7135   7.793   0.568   8.192 -0.1176 -0.0036 -0.1628
  446loPI   C4B 7136   7.958   0.854   7.900  0.0680 -0.1803  0.2621
  447loPI    C1 7137   9.186  18.162  10.454 -0.1271 -0.1090 -0.0649
  447loPI    C2 7138   9.193  17.763  10.486 -0.0062 -0.0960  0.0814
  447loPI    C3 7139   9.401  17.988  10.743  0.0560  0.0562 -0.0994
  447loPI   PO4 7140   9.216  18.193  10.203  0.0923  0.0525  0.0475
  447loPI   GL1 7141   9.194  18.179   9.716  0.3776 -0.2143 -0.5742
  447loPI   GL2 7142   9.291  18.481   9.742 -0.2077  0.4002  0.0698
  447loPI   C1A 7143   9.252  18.134   9.270  0.0423  0.1593 -0.0849
  447loPI   C2A 7144   9.247  18.021   8.786  0.1701  0.0657  0.0453
  447loPI   C3A 7145   9.556  18.080   8.466 -0.0165 -0.2284 -0.5519
  447loPI   C4A 7146   9.416  18.073   7.994 -0.2531  0.0011 -0.1080
  447loPI   C5A 7147   9.530  17.807   7.673 -0.0602  0.1279 -0.1483
  447loPI   C6A 7148   9.425  17.557   7.325 -0.1173  0.1093 -0.1244
  447loPI   C1B 7149   9.344  18.564   9.267  0.4494 -0.1038 -0.1333
  447loPI   C2B 7150   9.232  18.494   8.838 -0.1593 -0.0820  0.2776
  447loPI   C3B 7151   9.218  18.770   8.536 -0.2721 -0.1646 -0.0064
  447loPI   C4B 7152   9.012  18.705   8.060  0.0828  0.0300 -0.1075
  448loPI    C1 7153   7.903  11.508  10.216 -0.1580 -0.0205  0.1287
  448loPI    C2 7154   8.190  11.230  10.200 -0.1960 -0.0494 -0.0734
  448loPI    C3 7155   7.993  11.294  10.542  0.0295 -0.0500  0.0586
  448loPI   PO4 7156   7.854  11.505   9.971  0.1043  0.1605 -0.1787
  448loPI   GL1 7157   7.844  11.465   9.527  0.1036 -0.0780  0.0287
  448loPI   GL2 7158   7.595  11.390   9.540  0.0988 -0.0201  0.0740
  448loPI   C1A 7159   8.119  11.321   9.194  0.0581 -0.0086  0.2114
  448loPI   C2A 7160   8.062  11.335   8.813  0.0885  0.0856  0.0946
  448loPI   C3A 7161   7.988  11.367   8.412 -0.2100  0.1610 -0.1647
  448loPI   C4A 7162   7.969  11.236   7.986 -0.1928  0.2496  0.1617
  448loPI   C5A 7163   7.819  10.993   7.575  0.0472 -0.0300 -0.0466
  448loPI   C6A 7164   7.578  10.674   7.376 -0.0261 -0.0883  0.0513
  448loPI   C1B 7165   7.628  11.199   9.110  0.4447 -0.1452  0.3648
  448loPI   C2B 7166   7.536  11.059   8.698 -0.1990 -0.1528  0.1528
  448loPI   C3B 7167   7.428  11.003   8.248  0.0729  0.0791  0.0750
  448loPI   C4B 7168   7.370  10.825   7.797  0.3911 -0.1527  0.0075
  449loPI    C1 7169   3.795  12.134  10.078 -0.2772  0.0165 -0.0897
  449loPI    C2 7170   3.884  12.084  10.465 -0.2192 -0.2832 -0.1386
  449loPI    C3 7171   3.839  12.453  10.315 -0.0749 -0.1596  0.1149
  449loPI   PO4 7172   3.933  11.887   9.977 -0.2358  0.0765  0.0587
  449loPI   GL1 7173   4.131  11.760   9.614 -0.2257 -0.0414 -0.0031
  449loPI   GL2 7174   4.294  12.087   9.651  0.1630  0.0008  0.2940
  449loPI   C1A 7175   3.928  11.683   9.218  0.2431  0.0131  0.0622
  449loPI   C2A 7176   3.916  11.726   8.844 -0.0431  0.3701 -0.2806
  449loPI   C3A 7177   3.999  11.818   8.493 -0.0339  0.0510  0.0659
  449loPI   C4A 7178   4.042  12.010   8.125 -0.0230 -0.3151 -0.4455
  449loPI   C5A 7179   3.900  11.891   7.680  0.1957  0.1674 -0.0657
  449loPI   C6A 7180   4.114  11.792   7.285 -0.0904  0.2625 -0.1997
  449loPI   C1B 7181   4.320  12.394   9.393  0.1611 -0.0239 -0.0641
  449loPI   C2B 7182   4.344  12.680   9.026 -0.2949 -0.1832  0.0379
  449loPI   C3B 7183   4.556  12.983   8.783  0.3309 -0.1107 -0.0605
  449loPI   C4B 7184   4.844  13.219   8.530 -0.1893 -0.1328 -0.1448
  450loPI    C1 7185   7.903   7.057  10.364  0.1222  0.2127  0.0839
  450loPI    C2 7186   8.059   7.136  10.724  0.4907 -0.1124  0.0020
  450loPI    C3 7187   7.922   6.769  10.641  0.1727  0.0278 -0.1091
  450loPI   PO4 7188   7.775   7.270  10.339 -0.1312  0.4271 -0.0043
  450loPI   GL1 7189   7.574   7.598  10.073  0.3591  0.4186  0.1876
  450loPI   GL2 7190   7.412   7.876  10.088  0.0769 -0.1531  0.1226
  450loPI   C1A 7191   7.511   7.682   9.593 -0.2444 -0.3775  0.2679
  450loPI   C2A 7192   7.241   7.749   9.308 -0.1009 -0.1349  0.1553
  450loPI   C3A 7193   7.032   7.566   9.072 -0.0174 -0.1013  0.2588
  450loPI   C4A 7194   7.058   7.689   8.558  0.1735 -0.0403 -0.2757
  450loPI   C5A 7195   7.278   7.859   8.369 -0.4022 -0.3492  0.2434
  450loPI   C6A 7196   7.302   8.320   8.266 -0.0862 -0.1181 -0.2592
  450loPI   C1B 7197   7.267   8.120   9.799 -0.1397  0.1357  0.1399
  450loPI   C2B 7198   7.111   8.185   9.365 -0.1136  0.2546  0.0170
  450loPI   C3B 7199   6.871   8.090   9.078  0.2648 -0.0743 -0.0159
  450loPI   C4B 7200   6.737   8.083   8.563 -0.1765  0.1840  0.1289
  451loPI    C1 7201  10.685  10.890  10.394  0.0510  0.1092  0.1526
  451loPI    C2 7202  10.365  10.759  10.594 -0.0784 -0.0217 -0.1353
  451loPI    C3 7203  10.553  11.090  10.714  0.0203 -0.2517  0.3719
  451loPI   PO4 7204  10.671  10.831  10.198 -0.1561  0.1952 -0.1030
  451loPI   GL1 7205  10.531  10.710   9.732 -0.0483  0.1718  0.0151
  451loPI   GL2 7206  10.937  10.799   9.714  0.0469  0.0450 -0.0028
  451loPI   C1A 7207  10.722  11.053   9.421 -0.0200 -0.1708 -0.1539
  451loPI   C2A 7208  10.735  11.037   8.865 -0.2707  0.0394 -0.0990
  451loPI   C3A 7209  10.779  11.227   8.528  0.0921 -0.0267  0.1576
  451loPI   C4A 7210  10.746  11.205   8.175 -0.1992  0.1732  0.0552
  451loPI   C5A 7211  10.738  10.888   7.852 -0.1066  0.2694 -0.1929
  451loPI   C6A 7212  10.617  10.919   7.368  0.1860 -0.1952 -0.0643
  451loPI   C1B 7213  11.065  10.743   9.252 -0.1766 -0.0785 -0.0047
  451loPI   C2B 7214  11.116  10.781   8.698 -0.0108 -0.2427  0.1716
  451loPI   C3B 7215  11.228  10.967   8.195  0.0706 -0.3784 -0.3172
  451loPI   C4B 7216  11.499  10.864   7.776 -0.4375 -0.1239 -0.1123
  452loPI    C1 7217   7.811  16.747  10.138 -0.1066 -0.1321  0.0998
  452loPI    C2 7218   7.674  16.375  10.184  0.1904 -0.2679 -0.0798
  452loPI    C3 7219   8.047  16.466  10.296  0.1861 -0.0729 -0.2193
  452loPI   PO4 7220   7.619  16.812   9.935 -0.0001  0.2829 -0.0489
  452loPI   GL1 7221   7.377  16.511   9.663 -0.0346 -0.1106  0.0703
  452loPI   GL2 7222   7.138  16.280   9.655 -0.1839  0.1598 -0.0519
  452loPI   C1A 7223   7.480  16.597   9.212 -0.1664 -0.0526 -0.1906
  452loPI   C2A 7224   7.432  16.639   8.756 -0.1964 -0.1376  0.2321
  452loPI   C3A 7225   7.386  16.959   8.398 -0.0212  0.2444  0.1762
  452loPI   C4A 7226   7.635  17.199   8.149 -0.0350  0.0205 -0.0727
  452loPI   C5A 7227   7.636  17.485   7.897 -0.4153  0.0092  0.1707
  452loPI   C6A 7228   7.841  17.484   7.488  0.3386 -0.0110 -0.3237
  452loPI   C1B 7229   7.215  16.187   9.202  0.1012 -0.2047 -0.0978
  452loPI   C2B 7230   7.171  16.212   8.819  0.2325  0.1963  0.1186
  452loPI   C3B 7231   7.212  15.915   8.374 -0.1811 -0.0211  0.1561
  452loPI   C4B 7232   7.006  16.077   8.048 -0.1401 -0.1219 -0.2575
  453loPI    C1 7233  16.235  10.208   9.932  0.2048 -0.1308 -0.1616
  453loPI    C2 7234  16.101   9.843   9.838 -0.0203 -0.1230  0.1135
  453loPI    C3 7235  16.135   9.950  10.222  0.0248  0.1530  0.0347
  453loPI   PO4 7236  16.521  10.182   9.829  0.0062  0.0972  0.1773
  453loPI   GL1 7237  16.817   9.860   9.680  0.2555  0.1253 -0.0124
  453loPI   GL2 7238  17.020   9.950   9.693  0.1943 -0.2993  0.3379
  453loPI   C1A 7239  16.468   9.768   9.339 -0.2566 -0.0245 -0.0699
  453loPI   C2A 7240  16.446   9.764   8.939 -0.0553 -0.1421 -0.2188
  453loPI   C3A 7241  16.670   9.834   8.472 -0.0237  0.0819  0.1648
  453loPI   C4A 7242  17.046   9.871   8.384  0.3117  0.2400 -0.3062
  453loPI   C5A 7243  17.246   9.933   7.977  0.2610  0.2150 -0.2748
  453loPI   C6A 7244  17.464   9.981   7.544 -0.3213 -0.1684  0.2957
  453loPI   C1B 7245  17.162  10.022   9.335 -0.1297 -0.0550  0.1732
  453loPI   C2B 7246  17.353  10.072   8.976 -0.1681 -0.1377  0.2269
  453loPI   C3B 7247  17.409  10.202   8.652  0.1875  0.2158  0.1200
  453loPI   C4B 7248  17.520  10.259   8.260  0.1276 -0.2544  0.1067
  454loPI    C1 7249   9.010   9.597  10.453  0.1778 -0.1098  0.0738
  454loPI    C2 7250   8.842   9.884  10.675 -0.0061 -0.1666  0.0101
  454loPI    C3 7251   8.865   9.510  10.816 -0.0432 -0.1842 -0.0304
  454loPI   PO4 7252   8.996   9.660  10.237  0.2103 -0.2462  0.0813
  454loPI   GL1 7253   8.950   9.897   9.876 -0.1918  0.3165 -0.1005
  454loPI   GL2 7254   8.945  10.164   9.775 -0.2265  0.1218  0.1030
  454loPI   C1A 7255   8.945   9.792   9.447 -0.3074 -0.0537  0.0431
  454loPI   C2A 7256   8.772   9.734   8.994  0.0515 -0.0971 -0.2065
  454loPI   C3A 7257   8.598   9.578   8.612  0.2957 -0.1171 -0.1188
  454loPI   C4A 7258   8.689   9.616   8.178  0.0011 -0.0882  0.2487
  454loPI   C5A 7259   8.675   9.906   7.918 -0.1072 -0.1212  0.1931
  454loPI   C6A 7260   8.422   9.760   7.506 -0.1983 -0.0244  0.4293
  454loPI   C1B 7261   9.241  10.183   9.418  0.1331 -0.0444  0.0476
  454loPI   C2B 7262   9.328  10.480   9.010  0.0256  0.0688 -0.1508
  454loPI   C3B 7263   9.179  10.376   8.536  0.0259 -0.2542 -0.0207
  454loPI   C4B 7264   9.280  10.267   8.160  0.0842 -0.0018 -0.1860
  455loPI    C1 7265  11.992   8.115   9.855  0.1304  0.0220 -0.0304
  455loPI    C2 7266  11.899   7.812  10.099  0.0992  0.0582  0.0027
  455loPI    C3 7267  11.830   8.189  10.213  0.0374  0.0729 -0.0827
  455loPI   PO4 7268  11.978   7.979   9.577 -0.0940 -0.0552 -0.0611
  455loPI   GL1 7269  11.709   7.875   9.258  0.2717  0.0053 -0.0661
  455loPI   GL2 7270  11.435   8.095   9.205 -0.0555  0.0119  0.2069
  455loPI   C1A 7271  11.630   7.899   8.838  0.0478 -0.3482 -0.0399
  455loPI   C2A 7272  11.660   8.243   8.530 -0.4752 -0.2053 -0.0252
  455loPI   C3A 7273  11.746   8.438   8.100  0.1676  0.2676  0.1083
  455loPI   C4A 7274  11.827   8.614   7.761  0.4289 -0.3247  0.2212
  455loPI   C5A 7275  11.979   8.859   7.452 -0.0311 -0.3714  0.0667
  455loPI   C6A 7276  12.382   8.811   7.211 -0.1076 -0.1009  0.0045
  455loPI   C1B 7277  11.270   7.632   8.981 -0.1888 -0.5017  0.0277
  455loPI   C2B 7278  11.160   7.636   8.648  0.2471 -0.0579 -0.1955
  455loPI   C3B 7279  11.477   7.713   8.384 -0.0127  0.0239  0.1718
  455loPI   C4B 7280  11.889   7.827   8.056  0.0335 -0.0036 -0.0428
  456loPI    C1 7281  17.457   5.038  10.116  0.1746 -0.1358  0.0252
  456loPI    C2 7282  17.768   5.272  10.026 -0.1580  0.3163  0.0196
  456loPI    C3 7283  17.649   5.235  10.406  0.0871 -0.1035  0.0616
  456loPI   PO4 7284  17.269   5.062   9.929  0.2140 -0.0893 -0.0319
  456loPI   GL1 7285  17.348   5.138   9.499  0.0088 -0.0363 -0.1054
  456loPI   GL2 7286  17.637   5.333   9.559  0.0008 -0.2763 -0.0316
  456loPI   C1A 7287  17.393   5.294   9.067  0.0923 -0.2406  0.1255
  456loPI   C2A 7288  17.340   5.454   8.613 -0.0976 -0.1264  0.3219
  456loPI   C3A 7289  17.208   5.515   8.261 -0.3211  0.0197 -0.1624
  456loPI   C4A 7290  16.995   5.613   7.967  0.0788  0.4003 -0.1416
  456loPI   C5A 7291  17.208   5.965   7.861  0.0834 -0.3241 -0.1111
  456loPI   C6A 7292  17.396   6.364   7.925  0.0008  0.0177  0.0827
  456loPI   C1B 7293  17.744   5.659   9.235 -0.1833  0.2861  0.1862
  456loPI   C2B 7294  17.777   5.558   8.843  0.0038 -0.4148 -0.1829
  456loPI   C3B 7295  17.777   5.649   8.416  0.2110 -0.0101  0.0522
  456loPI   C4B 7296  17.670   5.767   8.014  0.0210  0.0956  0.2366
  457loPI    C1 7297  11.532   8.239   9.856 -0.1555  0.0396 -0.1657
  457loPI    C2 7298  11.180   8.431   9.857 -0.1197  0.1052 -0.0784
  457loPI    C3 7299  11.358   8.336  10.203  0.0006  0.1685 -0.1223
  457loPI   PO4 7300  11.627   8.331   9.602 -0.1404 -0.0441 -0.4543
  457loPI   GL1 7301  11.574   8.702   9.360  0.0322 -0.2028  0.0331
  457loPI   GL2 7302  11.230   8.678   9.378  0.1304 -0.1256  0.2722
  457loPI   C1A 7303  11.483   8.500   8.970 -0.0439  0.1071  0.0461
  457loPI   C2A 7304  11.268   8.581   8.620  0.1367  0.1921 -0.0470
  457loPI   C3A 7305  11.318   8.706   8.308 -0.1491  0.2021 -0.1747
  457loPI   C4A 7306  11.386   8.843   7.926  0.1003 -0.0205  0.4126
  457loPI   C5A 7307  11.436   8.825   7.464  0.0044  0.0620 -0.1701
  457loPI   C6A 7308  11.660   8.905   7.010 -0.0851 -0.1557 -0.1993
  457loPI   C1B 7309  10.913   8.751   9.032 -0.1560  0.1637 -0.1786
  457loPI   C2B 7310  10.794   8.711   8.619 -0.2095  0.1146  0.0355
  457loPI   C3B 7311  10.509   8.512   8.302  0.1163 -0.1210  0.1582
  457loPI   C4B 7312  10.482   8.400   7.989 -0.1918 -0.4366  0.1377
  458loPI    C1 7313   9.674   8.255  10.552  0.1850  0.0372  0.0859
  458loPI    C2 7314   9.451   8.445  10.825  0.2738  0.2198  0.0330
  458loPI    C3 7315   9.832   8.353  10.905  0.1761 -0.1132  0.1322
  458loPI   PO4 7316   9.543   8.106  10.344 -0.1448  0.2024 -0.2348
  458loPI   GL1 7317   9.728   8.116   9.911 -0.2880  0.0113  0.0700
  458loPI   GL2 7318   9.655   7.764   9.810  0.0189 -0.3463  0.1312
  458loPI   C1A 7319   9.690   8.115   9.466  0.1964  0.0826  0.0890
  458loPI   C2A 7320   9.654   8.101   9.025 -0.0406  0.0119 -0.0805
  458loPI   C3A 7321   9.917   8.280   8.697 -0.1623 -0.0514  0.0005
  458loPI   C4A 7322  10.046   8.307   8.215 -0.3640  0.1805  0.1357
  458loPI   C5A 7323  10.101   8.094   7.768  0.1471  0.2715  0.1763
  458loPI   C6A 7324   9.940   7.968   7.355 -0.3216  0.2297  0.1314
  458loPI   C1B 7325   9.625   7.559   9.435  0.1522 -0.0263  0.1105
  458loPI   C2B 7326   9.525   7.480   8.987  0.0054  0.1693  0.1385
  458loPI   C3B 7327   9.302   7.698   8.654 -0.3770 -0.0618  0.0413
  458loPI   C4B 7328   9.070   7.682   8.287  0.1058 -0.0745 -0.1065
  459loPI    C1 7329  18.385  11.522  10.016 -0.0185  0.0950 -0.0981
  459loPI    C2 7330  18.540  11.310  10.318 -0.2706 -0.0715 -0.0831
  459loPI    C3 7331  18.398  11.678  10.384 -0.0938 -0.0080 -0.0514
  459loPI   PO4 7332  18.557  11.571   9.840  0.1978 -0.0101 -0.1512
  459loPI   GL1 7333  18.511  11.643   9.385  0.3922 -0.2801  0.0830
  459loPI   GL2 7334  18.871  11.476   9.466  0.2679  0.3762  0.4222
  459loPI   C1A 7335  18.480  11.607   9.023 -0.1614  0.2864  0.1095
  459loPI   C2A 7336  18.620  11.666   8.651 -0.1022 -0.1207  0.3503
  459loPI   C3A 7337  18.678  11.557   8.197  0.1418  0.2444 -0.0156
  459loPI   C4A 7338  18.417  11.441   7.786 -0.3174 -0.0520 -0.2224
  459loPI   C5A 7339  18.204  11.062   7.667 -0.2427 -0.2468 -0.3553
  459loPI   C6A 7340  18.057  10.682   7.539 -0.0960 -0.0441 -0.2052
  459loPI   C1B 7341  19.084  11.569   9.010 -0.2476 -0.1262  0.2888
  459loPI   C2B 7342  19.101  11.584   8.510 -0.1740  0.2621  0.0320
  459loPI   C3B 7343  19.119  11.775   8.019  0.1893  0.0438  0.0542
  459loPI   C4B 7344  19.348  11.898   7.632 -0.1866 -0.0274  0.4292
  460loPI    C1 7345   4.699  10.484  10.297  0.2606 -0.0239 -0.0396
  460loPI    C2 7346   4.768  10.799  10.534  0.0943  0.0113 -0.0373
  460loPI    C3 7347   4.580  10.477  10.679  0.0540  0.0053 -0.1027
  460loPI   PO4 7348   4.832  10.544  10.118  0.1149 -0.0296 -0.1065
  460loPI   GL1 7349   4.683  10.580   9.641  0.1788 -0.0537  0.1491
  460loPI   GL2 7350   4.741  10.230   9.784 -0.0503 -0.1172  0.1635
  460loPI   C1A 7351   4.505  10.700   9.247 -0.0127  0.1371  0.0260
  460loPI   C2A 7352   4.447  10.822   8.912 -0.1075  0.1599  0.2003
  460loPI   C3A 7353   4.446  10.638   8.497  0.2061 -0.2952 -0.1981
  460loPI   C4A 7354   4.471  10.599   8.096 -0.0931 -0.2618  0.1163
  460loPI   C5A 7355   4.458  10.840   7.716 -0.0801 -0.2155 -0.0935
  460loPI   C6A 7356   4.511  10.824   7.275 -0.1813  0.2503  0.1435
  460loPI   C1B 7357   4.684  10.231   9.316 -0.0672 -0.1098  0.0199
  460loPI   C2B 7358   4.732  10.367   8.851  0.1932  0.2856 -0.1702
  460loPI   C3B 7359   4.481  10.110   8.521  0.1257  0.0410 -0.0037
  460loPI   C4B 7360   4.170  10.158   8.251 -0.1377 -0.3113  0.0149
  461loPI    C1 7361   9.451  14.965  10.237 -0.0030  0.0557  0.0595
  461loPI    C2 7362   9.818  14.817  10.183 -0.0221  0.0057  0.0656
  461loPI    C3 7363   9.742  15.053  10.497 -0.0374 -0.1242  0.1604
  461loPI   PO4 7364   9.271  14.761   9.995  0.3419 -0.0090  0.0884
  461loPI   GL1 7365   8.965  14.955   9.697 -0.0283 -0.0789 -0.0341
  461loPI   GL2 7366   8.647  14.846   9.635 -0.0195 -0.2065 -0.0982
  461loPI   C1A 7367   9.231  14.945   9.255  0.2339  0.1032  0.0922
  461loPI   C2A 7368   9.395  15.067   8.851 -0.0729  0.1545 -0.1391
  461loPI   C3A 7369   9.320  15.168   8.487  0.1456  0.0251 -0.1049
  461loPI   C4A 7370   9.359  15.186   7.992 -0.0282  0.2700 -0.3216
  461loPI   C5A 7371   9.044  14.926   7.661  0.0339  0.0362 -0.0221
  461loPI   C6A 7372   8.653  14.767   7.503 -0.3015  0.3369  0.1174
  461loPI   C1B 7373   8.770  14.802   9.158  0.2898 -0.3543 -0.2979
  461loPI   C2B 7374   8.930  14.891   8.681 -0.0895  0.0788  0.1644
  461loPI   C3B 7375   8.866  15.101   8.266  0.3341  0.1228 -0.1080
  461loPI   C4B 7376   8.723  15.217   7.915 -0.0756 -0.0573  0.1983
  462loPI    C1 7377  17.745  14.039  10.682  0.1388  0.1757 -0.0237
  462loPI    C2 7378  17.992  14.099  10.991 -0.2602  0.0511  0.3292
  462loPI    C3 7379  17.815  14.410  10.813 -0.0789  0.1186  0.2644
  462loPI   PO4 7380  17.891  13.923  10.535 -0.4718 -0.1044 -0.0776
  462loPI   GL1 7381  17.831  13.935  10.094  0.0986 -0.1473 -0.2145
  462loPI   GL2 7382  17.524  13.849  10.096 -0.1016  0.0101 -0.2474
  462loPI   C1A 7383  17.817  14.202   9.751 -0.1066 -0.2334 -0.1447
  462loPI   C2A 7384  17.990  14.136   9.309  0.1609  0.2475 -0.1065
  462loPI   C3A 7385  18.101  14.169   8.889  0.2054  0.0149 -0.1083
  462loPI   C4A 7386  18.137  14.312   8.519  0.2881  0.0074  0.0522
  462loPI   C5A 7387  18.344  14.555   8.185  0.1529 -0.0004  0.1247
  462loPI   C6A 7388  18.159  14.696   7.693  0.3722 -0.3581 -0.1156
  462loPI   C1B 7389  17.510  13.781   9.657  0.1980  0.3107  0.1113
  462loPI   C2B 7390  17.511  13.910   9.189 -0.1184 -0.1712 -0.0625
  462loPI   C3B 7391  17.621  13.857   8.767  0.1829 -0.3330  0.0062
  462loPI   C4B 7392  17.715  13.968   8.347 -0.2634 -0.2295 -0.1111
  463loPI    C1 7393  11.964  14.603  10.250  0.0055  0.0112  0.0718
  463loPI    C2 7394  12.074  14.983  10.307 -0.1871  0.0740  0.0335
  463loPI    C3 7395  11.778  14.826  10.526 -0.0622 -0.0753  0.0968
  463loPI   PO4 7396  11.861  14.619   9.970  0.0733  0.2541  0.0814
  463loPI   GL1 7397  11.892  14.681   9.506 -0.0156 -0.2247  0.0709
  463loPI   GL2 7398  11.642  14.888   9.456  0.1656  0.2479 -0.1735
  463loPI   C1A 7399  11.726  14.398   9.193 -0.1961 -0.0849 -0.0965
  463loPI   C2A 7400  11.650  14.166   8.759  0.1568 -0.0321  0.0794
  463loPI   C3A 7401  11.415  14.376   8.372  0.0105  0.1356  0.0088
  463loPI   C4A 7402  11.211  14.574   8.082 -0.1414 -0.0333 -0.0761
  463loPI   C5A 7403  10.834  14.334   7.805  0.1985 -0.0802 -0.1190
  463loPI   C6A 7404  10.345  14.182   7.909  0.3454  0.1405 -0.2269
  463loPI   C1B 7405  11.541  14.951   9.058 -0.1184  0.1196 -0.0907
  463loPI   C2B 7406  11.505  14.839   8.596  0.1305 -0.0473  0.2983
  463loPI   C3B 7407  11.632  14.823   8.209  0.1807 -0.1503  0.3688
  463loPI   C4B 7408  11.946  14.872   7.969  0.1273 -0.0456 -0.0627
  464loPI    C1 7409   9.921   5.872  10.903 -0.1942 -0.1134 -0.2173
  464loPI    C2 7410   9.559   5.892  11.073 -0.0524  0.0829  0.0709
  464loPI    C3 7411   9.860   6.111  11.219  0.2913 -0.3975  0.1041
  464loPI   PO4 7412   9.947   5.590  10.658  0.1225  0.1838 -0.1630
  464loPI   GL1 7413   9.657   5.321  10.368  0.1856 -0.1848  0.2847
  464loPI   GL2 7414   9.924   5.538  10.123  0.1005  0.1687  0.2905
  464loPI   C1A 7415   9.510   5.309   9.917 -0.1834  0.3834 -0.1668
  464loPI   C2A 7416   9.283   5.436   9.619  0.1211  0.0140  0.1727
  464loPI   C3A 7417   9.233   5.565   9.254 -0.0410  0.1199  0.0044
  464loPI   C4A 7418   9.328   5.546   8.868 -0.4088 -0.2786  0.2350
  464loPI   C5A 7419   9.330   5.447   8.516  0.0230  0.1431 -0.2050
  464loPI   C6A 7420   9.250   5.649   8.189  0.1578 -0.0372 -0.1555
  464loPI   C1B 7421   9.822   5.652   9.641  0.2211  0.2154  0.2744
  464loPI   C2B 7422   9.830   5.689   9.177  0.3941 -0.1071  0.0534
  464loPI   C3B 7423   9.767   5.755   8.615 -0.0902 -0.4131  0.0362
  464loPI   C4B 7424   9.682   5.958   8.222  0.1070  0.0924 -0.0588
  465loPI    C1 7425  14.692  13.988  10.233 -0.2114  0.1455  0.2443
  465loPI    C2 7426  14.786  14.170   9.890  0.0530 -0.1734  0.1429
  465loPI    C3 7427  14.738  14.385  10.223  0.0814  0.1088 -0.0315
  465loPI   PO4 7428  14.476  13.842  10.096  0.0006 -0.0042  0.1729
  465loPI   GL1 7429  14.446  13.841   9.670  0.1619 -0.1499 -0.0314
  465loPI   GL2 7430  14.698  13.811   9.556  0.0445 -0.2871 -0.2223
  465loPI   C1A 7431  14.170  13.585   9.282 -0.0182  0.0012  0.2841
  465loPI   C2A 7432  14.142  13.666   8.923  0.0366  0.1188  0.0009
  465loPI   C3A 7433  14.116  13.605   8.460  0.1328 -0.1946  0.2085
  465loPI   C4A 7434  14.261  13.550   8.102  0.3652  0.1503  0.2417
  465loPI   C5A 7435  13.975  13.443   7.757 -0.0884 -0.2524 -0.1285
  465loPI   C6A 7436  14.066  13.636   7.369  0.1340  0.0260  0.3819
  465loPI   C1B 7437  14.876  13.719   9.255 -0.1606 -0.1465 -0.1316
  465loPI   C2B 7438  14.920  13.691   8.808 -0.0677  0.1835 -0.0722
  465loPI   C3B 7439  14.931  14.011   8.494  0.2551 -0.0982 -0.1686
  465loPI   C4B 7440  14.877  14.362   8.239 -0.3788  0.0300 -0.0616
  466loPI    C1 7441   5.688  15.192  10.414  0.2401  0.0187  0.0314
  466loPI    C2 7442   5.414  15.480  10.457  0.2084 -0.0375  0.2132
  466loPI    C3 7443   5.793  15.549  10.562  0.2265 -0.0213  0.1381
  466loPI   PO4 7444   5.606  15.132  10.157  0.2172 -0.2995  0.0879
  466loPI   GL1 7445   5.438  14.825   9.774  0.1000  0.0686 -0.0041
  466loPI   GL2 7446   5.513  15.119   9.654 -0.1212  0.0401 -0.0962
  466loPI   C1A 7447   5.628  14.673   9.289  0.6494 -0.2673 -0.2626
  466loPI   C2A 7448   5.735  14.499   8.897  0.0221  0.1403 -0.0423
  466loPI   C3A 7449   5.551  14.620   8.417 -0.0672  0.0754 -0.0138
  466loPI   C4A 7450   5.455  14.863   8.151 -0.0536 -0.2277 -0.1145
  466loPI   C5A 7451   5.493  14.713   7.741  0.1305  0.0050 -0.1021
  466loPI   C6A 7452   5.714  14.869   7.396 -0.0881 -0.0854  0.0231
  466loPI   C1B 7453   5.367  15.293   9.167  0.0706  0.0680 -0.3731
  466loPI   C2B 7454   5.489  15.147   8.755  0.2122  0.1565 -0.1065
  466loPI   C3B 7455   5.282  15.292   8.368 -0.0430 -0.1461  0.0582
  466loPI   C4B 7456   4.994  15.671   8.300  0.0811  0.1601  0.2275
  467loPI    C1 7457   0.904   2.142  10.298 -0.0691 -0.0067 -0.1048
  467loPI    C2 7458   1.042   2.291  10.643  0.2186  0.0411 -0.2380
  467loPI    C3 7459   0.656   2.193  10.608  0.1631  0.1440  0.0596
  467loPI   PO4 7460   1.035   1.953  10.174 -0.1476 -0.0456 -0.1815
  467loPI   GL1 7461   1.063   1.847   9.781 -0.0766  0.0134 -0.1301
  467loPI   GL2 7462   0.792   1.695   9.709 -0.2798 -0.0758 -0.0359
  467loPI   C1A 7463   0.927   2.114   9.424  0.0124 -0.1112  0.1039
  467loPI   C2A 7464   0.657   2.451   9.263  0.0148 -0.3232 -0.2757
  467loPI   C3A 7465   0.378   2.796   9.184 -0.0593  0.0906 -0.0261
  467loPI   C4A 7466   0.244   2.974   8.805 -0.2332  0.1999  0.0514
  467loPI   C5A 7467   0.075   3.200   8.418 -0.0030 -0.0254 -0.1518
  467loPI   C6A 7468   0.342   3.148   8.009  0.2815 -0.0719  0.3526
  467loPI   C1B 7469   0.749   1.561   9.299  0.1251 -0.1904 -0.3049
  467loPI   C2B 7470   0.991   1.525   8.910  0.1694 -0.1349  0.2221
  467loPI   C3B 7471   1.082   1.534   8.544 -0.0347  0.1552 -0.1100
  467loPI   C4B 7472   1.036   1.261   8.206  0.1391  0.1165 -0.1952
  468loPI    C1 7473  11.899  13.399  10.178 -0.1075  0.2756  0.4033
  468loPI    C2 7474  11.856  13.047  10.364  0.1436  0.0766  0.0952
  468loPI    C3 7475  12.206  13.240  10.378  0.1485  0.0863 -0.1229
  468loPI   PO4 7476  11.910  13.372   9.914  0.2025  0.1352  0.5515
  468loPI   GL1 7477  11.784  13.285   9.574  0.2508 -0.2308 -0.1522
  468loPI   GL2 7478  11.714  12.989   9.389  0.0495  0.1830  0.1825
  468loPI   C1A 7479  11.724  13.639   9.180  0.0357  0.0909  0.1721
  468loPI   C2A 7480  11.788  13.698   8.801 -0.1417 -0.0309 -0.1306
  468loPI   C3A 7481  11.641  13.783   8.385  0.0170  0.4453  0.0530
  468loPI   C4A 7482  11.445  14.012   7.930  0.1429 -0.0263 -0.1376
  468loPI   C5A 7483  11.189  13.941   7.553 -0.2265  0.4820  0.0984
  468loPI   C6A 7484  11.008  13.614   7.428 -0.4141 -0.0164 -0.0529
  468loPI   C1B 7485  11.692  13.156   8.935  0.2740  0.1072  0.4373
  468loPI   C2B 7486  11.575  13.264   8.487 -0.1740  0.1296  0.0683
  468loPI   C3B 7487  11.697  13.260   8.082 -0.2483  0.1647 -0.2732
  468loPI   C4B 7488  11.915  13.162   7.643  0.1139  0.0694 -0.1905
  469loPI    C1 7489   1.791   9.270  10.854  0.1515 -0.1535  0.0239
  469loPI    C2 7490   2.083   9.150  10.610  0.1831 -0.0550  0.0129
  469loPI    C3 7491   2.171   9.359  10.939  0.1269 -0.0437  0.0207
  469loPI   PO4 7492   1.569   9.270  10.683  0.0693 -0.2281 -0.2255
  469loPI   GL1 7493   1.617   9.182  10.289 -0.1725  0.1930  0.1174
  469loPI   GL2 7494   1.382   9.337  10.181  0.1884 -0.1579  0.2790
  469loPI   C1A 7495   1.838   9.281   9.938  0.0048  0.2142 -0.4145
  469loPI   C2A 7496   1.844   9.302   9.412  0.0416 -0.2052 -0.0173
  469loPI   C3A 7497   1.829   9.458   8.920  0.3625 -0.1105  0.0446
  469loPI   C4A 7498   2.019   9.468   8.532  0.0831 -0.3946 -0.0786
  469loPI   C5A 7499   2.061   9.392   8.103 -0.0177 -0.3960  0.3019
  469loPI   C6A 7500   1.981   9.510   7.722  0.2588  0.3282  0.1476
  469loPI   C1B 7501   1.374   9.466   9.760 -0.0308 -0.0017  0.0507
  469loPI   C2B 7502   1.480   9.656   9.291  0.2680 -0.3371  0.0718
  469loPI   C3B 7503   1.502   9.874   8.883 -0.2047  0.0016  0.2418
  469loPI   C4B 7504   1.594   9.768   8.520  0.0468 -0.2287 -0.4065
  470loPI    C1 7505   4.969  10.054  10.179  0.0318 -0.2498 -0.1679
  470loPI    C2 7506   5.131   9.856  10.487  0.1460 -0.0207 -0.0775
  470loPI    C3 7507   4.754   9.989  10.510  0.2557  0.2692  0.0920
  470loPI   PO4 7508   5.104   9.925   9.961  0.0552 -0.0996 -0.0040
  470loPI   GL1 7509   5.086   9.974   9.528 -0.0689  0.3521 -0.2697
  470loPI   GL2 7510   5.288   9.770   9.554  0.1938 -0.1509  0.1323
  470loPI   C1A 7511   4.989   9.919   9.051  0.1931  0.1052  0.3885
  470loPI   C2A 7512   4.942   9.880   8.619  0.1773 -0.1054 -0.0981
  470loPI   C3A 7513   4.831   9.938   8.120 -0.1537 -0.0016  0.1232
  470loPI   C4A 7514   4.620  10.126   7.824  0.2900 -0.2209 -0.1057
  470loPI   C5A 7515   4.337  10.163   7.692 -0.1202 -0.2651  0.1001
  470loPI   C6A 7516   4.021  10.506   7.868 -0.1005  0.1174  0.3577
  470loPI   C1B 7517   5.008   9.456   9.209  0.0306  0.0185  0.5552
  470loPI   C2B 7518   5.013   9.384   8.758  0.1761  0.0094 -0.0954
  470loPI   C3B 7519   4.861   9.366   8.342 -0.0688  0.0774  0.3774
  470loPI   C4B 7520   4.714   9.254   8.029  0.1207 -0.1431 -0.0270
  471loPI    C1 7521  16.610  16.036   9.842  0.0151  0.0142  0.0125
  471loPI    C2 7522  16.491  16.134  10.211  0.0128  0.0041  0.0144
  471loPI    C3 7523  16.324  15.823  10.023 -0.1482  0.1482 -0.0847
  471loPI   PO4 7524  16.631  16.231   9.712 -0.0091 -0.1595  0.0732
  471loPI   GL1 7525  16.824  16.106   9.264  0.1639  0.2133  0.1825
  471loPI   GL2 7526  16.932  16.464   9.397  0.1096 -0.0912 -0.2386
  471loPI   C1A 7527  16.716  16.151   8.848  0.1192 -0.2596 -0.2663
  471loPI   C2A 7528  16.675  16.006   8.392 -0.1503  0.0202  0.2253
  471loPI   C3A 7529  16.777  16.029   7.996 -0.0561  0.0310  0.0876
  471loPI   C4A 7530  16.873  16.414   7.704  0.3056  0.1161  0.3399
  471loPI   C5A 7531  17.129  16.677   7.483  0.2104 -0.1246 -0.0261
  471loPI   C6A 7532  17.148  16.838   7.058 -0.0445 -0.0119 -0.1144
  471loPI   C1B 7533  16.529  16.499   9.134 -0.0469  0.0215  0.2064
  471loPI   C2B 7534  16.370  16.574   8.790 -0.1508 -0.2269 -0.1925
  471loPI   C3B 7535  16.247  16.770   8.450  0.0955  0.0423 -0.0772
  471loPI   C4B 7536  16.368  17.003   8.110  0.1080  0.3746  0.3611
  472loPI    C1 7537  13.373   8.113   9.819  0.1432  0.0164 -0.0195
  472loPI    C2 7538  13.475   8.491   9.903 -0.0907  0.0733  0.0169
  472loPI    C3 7539  13.609   8.191  10.132 -0.2986  0.1791  0.2817
  472loPI   PO4 7540  13.336   8.054   9.561 -0.3843 -0.1108  0.0850
  472loPI   GL1 7541  13.175   7.887   9.148  0.0277 -0.1752 -0.0660
  472loPI   GL2 7542  12.820   8.039   9.025 -0.2036  0.0140  0.2349
  472loPI   C1A 7543  13.240   7.915   8.662  0.0448  0.1859  0.0730
  472loPI   C2A 7544  13.068   7.828   8.209 -0.1719  0.2188 -0.3981
  472loPI   C3A 7545  12.742   7.744   8.107 -0.2539  0.0696  0.1039
  472loPI   C4A 7546  12.434   7.876   7.956 -0.3008 -0.1633 -0.1883
  472loPI   C5A 7547  12.368   7.785   7.556 -0.0359  0.2399 -0.0853
  472loPI   C6A 7548  12.430   7.597   7.164 -0.5241 -0.1441  0.1141
  472loPI   C1B 7549  12.788   7.993   8.569  0.0527 -0.1524 -0.1605
  472loPI   C2B 7550  12.667   8.271   8.156  0.3963 -0.0834 -0.2435
  472loPI   C3B 7551  12.696   8.520   7.718  0.2186 -0.2630 -0.3025
  472loPI   C4B 7552  12.912   8.936   7.760 -0.0692 -0.6299  0.2446
  473loPI    C1 7553  17.467   6.612  10.269 -0.5615  0.0173 -0.0119
  473loPI    C2 7554  17.322   6.300  10.066  0.1599 -0.2416 -0.1572
  473loPI    C3 7555  17.381   6.272  10.461  0.0083 -0.2065 -0.1318
  473loPI   PO4 7556  17.655   6.691  10.112  0.2717 -0.1504  0.0392
  473loPI   GL1 7557  17.855   6.898   9.900  0.2019 -0.2229 -0.2336
  473loPI   GL2 7558  17.954   6.513   9.760  0.3661 -0.0780  0.0030
  473loPI   C1A 7559  17.805   7.089   9.491 -0.1692  0.0008  0.0515
  473loPI   C2A 7560  17.728   7.193   9.179 -0.1096  0.0390 -0.2605
  473loPI   C3A 7561  17.854   7.409   8.889  0.0310 -0.0090 -0.0462
  473loPI   C4A 7562  17.415   7.668   8.622  0.2888 -0.1177 -0.2074
  473loPI   C5A 7563  17.112   7.696   8.284  0.0564  0.1264  0.1050
  473loPI   C6A 7564  16.895   7.950   8.040  0.4082 -0.3594  0.0074
  473loPI   C1B 7565  18.138   6.572   9.340 -0.2413  0.1202  0.2341
  473loPI   C2B 7566  18.313   6.389   8.858  0.0944 -0.2365  0.1698
  473loPI   C3B 7567  18.357   6.351   8.437 -0.0980  0.0978 -0.0658
  473loPI   C4B 7568  18.374   6.379   8.065  0.1079 -0.0981  0.2393
  474loPI    C1 7569   2.771  15.457  10.131  0.0796  0.0252  0.1385
  474loPI    C2 7570   2.454  15.350  10.350  0.0394  0.0111  0.0738
  474loPI    C3 7571   2.535  15.738  10.290 -0.0546  0.0140 -0.0374
  474loPI   PO4 7572   2.845  15.266   9.928  0.1740  0.2289  0.0807
  474loPI   GL1 7573   2.692  15.282   9.481  0.4345 -0.0360  0.0442
  474loPI   GL2 7574   2.715  15.631   9.387 -0.0976  0.0479 -0.1995
  474loPI   C1A 7575   2.739  15.006   9.076 -0.0642 -0.0349 -0.0192
  474loPI   C2A 7576   2.570  14.912   8.693  0.1158 -0.1024  0.3535
  474loPI   C3A 7577   2.601  14.789   8.281  0.4687 -0.0024  0.2083
  474loPI   C4A 7578   2.736  14.960   7.933  0.1634 -0.0135  0.0112
  474loPI   C5A 7579   2.799  14.611   7.560  0.1078  0.1907 -0.2702
  474loPI   C6A 7580   2.546  14.192   7.515  0.1322 -0.0327 -0.0486
  474loPI   C1B 7581   2.949  15.648   9.050 -0.1065 -0.0175 -0.1552
  474loPI   C2B 7582   2.813  15.411   8.747 -0.1120  0.0159  0.2958
  474loPI   C3B 7583   2.639  15.313   8.375 -0.1374 -0.0295  0.3873
  474loPI   C4B 7584   2.302  15.345   7.933  0.0715 -0.1023 -0.2306
  475loPI    C1 7585  17.169  18.243  10.282  0.1534  0.2933  0.1205
  475loPI    C2 7586  16.984  18.099  10.606 -0.0326 -0.0801 -0.1433
  475loPI    C3 7587  17.334  18.289  10.643 -0.0964 -0.0355  0.2821
  475loPI   PO4 7588  17.181  18.089  10.153 -0.3565 -0.2660  0.0957
  475loPI   GL1 7589  17.267  18.331   9.757 -0.0976 -0.2001 -0.2476
  475loPI   GL2 7590  16.994  18.527   9.738  0.1572  0.0598  0.0884
  475loPI   C1A 7591  17.417  18.356   9.348 -0.1140  0.0918  0.4386
  475loPI   C2A 7592  17.740  18.573   9.098 -0.0410 -0.1134  0.0250
  475loPI   C3A 7593  17.973  18.755   8.850  0.0258  0.0093  0.1662
  475loPI   C4A 7594  18.231  19.041   8.748 -0.2465 -0.3577 -0.0347
  475loPI   C5A 7595  18.362  19.458   8.608 -0.0111 -0.1711 -0.0300
  475loPI   C6A 7596  18.722  19.763   8.381  0.0315  0.0769 -0.0825
  475loPI   C1B 7597  16.907  18.401   9.366  0.4018 -0.0480  0.1314
  475loPI   C2B 7598  16.862  18.476   8.898  0.4154  0.0692  0.1979
  475loPI   C3B 7599  16.782  18.551   8.547  0.2031  0.0978 -0.0851
  475loPI   C4B 7600  16.693  18.626   8.082 -0.0730 -0.0932  0.0787
  476loPI    C1 7601  12.718  13.531  10.429 -0.2482  0.1470 -0.0689
  476loPI    C2 7602  12.805  13.806  10.706 -0.0793  0.1162 -0.0901
  476loPI    C3 7603  12.489  13.565  10.755 -0.0324  0.0902  0.0908
  476loPI   PO4 7604  12.797  13.673  10.209  0.0583  0.1120 -0.0569
  476loPI   GL1 7605  12.777  13.614   9.660  0.1279 -0.0858  0.0244
  476loPI   GL2 7606  12.578  13.991   9.447 -0.1066  0.2007 -0.2243
  476loPI   C1A 7607  12.711  13.496   9.173 -0.1370  0.1876 -0.1737
  476loPI   C2A 7608  12.645  13.306   8.752  0.1354 -0.2080 -0.2164
  476loPI   C3A 7609  12.504  13.301   8.345 -0.1858 -0.0918 -0.1653
  476loPI   C4A 7610  12.306  13.376   7.898  0.0582 -0.3813  0.1574
  476loPI   C5A 7611  12.243  13.648   7.589 -0.0930  0.1224  0.0289
  476loPI   C6A 7612  12.264  13.980   7.243 -0.0284 -0.2571  0.0144
  476loPI   C1B 7613  12.743  14.016   9.056 -0.1039 -0.0514 -0.3036
  476loPI   C2B 7614  12.685  13.888   8.722 -0.0756  0.0888  0.2434
  476loPI   C3B 7615  12.779  13.830   8.251  0.1113 -0.0848 -0.0336
  476loPI   C4B 7616  12.654  13.664   7.839  0.0286 -0.1654 -0.3046
  477loPI    C1 7617   2.952   0.008  10.442 -0.1240  0.1802  0.2246
  477loPI    C2 7618   2.841   0.313  10.677 -0.1534  0.4528 -0.1332
  477loPI    C3 7619   3.208   0.157  10.710 -0.2133  0.3757  0.2032
  477loPI   PO4 7620   2.800   0.063  10.181 -0.2443  0.1827  0.1547
  477loPI   GL1 7621   2.959   0.177   9.802 -0.0085 -0.2220  0.0468
  477loPI   GL2 7622   2.874  -0.136   9.682  0.2828  0.0567 -0.2616
  477loPI   C1A 7623   3.093   0.205   9.342 -0.0042 -0.0984 -0.1369
  477loPI   C2A 7624   3.077   0.170   8.994  0.0382  0.0520  0.1859
  477loPI   C3A 7625   3.221   0.245   8.596  0.1232 -0.1111  0.1248
  477loPI   C4A 7626   3.257   0.374   8.202  0.2883  0.2902 -0.0682
  477loPI   C5A 7627   2.907   0.674   7.927 -0.1438 -0.0249  0.0165
  477loPI   C6A 7628   2.892   1.093   7.894  0.0990  0.0532  0.1368
  477loPI   C1B 7629   2.933  -0.295   9.338 -0.1793 -0.1988 -0.1935
  477loPI   C2B 7630   3.005  -0.363   8.915 -0.2005 -0.0485  0.2061
  477loPI   C3B 7631   2.947  -0.215   8.442 -0.0881 -0.1031 -0.0102
  477loPI   C4B 7632   2.945  -0.088   7.979 -0.1385 -0.0524 -0.0626
  478loPI    C1 7633   5.873  18.534  10.410  0.1742  0.0526 -0.3227
  478loPI    C2 7634   6.182  18.786  10.439  0.1142  0.1049 -0.1285
  478loPI    C3 7635   5.808  18.927  10.447  0.0735 -0.0137  0.3000
  478loPI   PO4 7636   5.918  18.454  10.183 -0.0597 -0.1170 -0.0783
  478loPI   GL1 7637   5.777  18.291   9.890  0.1990  0.0600  0.0425
  478loPI   GL2 7638   5.784  18.523   9.662 -0.0300 -0.2109  0.0577
  478loPI   C1A 7639   5.518  18.175   9.510  0.0084 -0.0006  0.0156
  478loPI   C2A 7640   5.556  17.992   9.088  0.3329  0.0567  0.2375
  478loPI   C3A 7641   5.539  18.179   8.597  0.0756 -0.0861  0.2160
  478loPI   C4A 7642   5.698  18.284   8.276  0.3690 -0.0008 -0.0457
  478loPI   C5A 7643   5.662  18.118   7.890 -0.0517  0.0233 -0.4664
  478loPI   C6A 7644   5.504  17.803   7.617  0.2634 -0.2583  0.0970
  478loPI   C1B 7645   5.796  18.463   9.215  0.1382 -0.0075  0.1548
  478loPI   C2B 7646   5.931  18.487   8.727  0.1495  0.2286  0.0290
  478loPI   C3B 7647   6.061  18.678   8.315  0.0759  0.0481 -0.0410
  478loPI   C4B 7648   6.026  18.537   7.982  0.3157 -0.0226  0.2251
  479loPI    C1 7649  16.155   0.611   9.580 -0.1443 -0.1169  0.0486
  479loPI    C2 7650  16.448   0.613   9.308 -0.1368  0.0493  0.0573
  479loPI    C3 7651  16.387   0.288   9.533 -0.2105 -0.1284 -0.2141
  479loPI   PO4 7652  15.977   0.731   9.471  0.0278 -0.1505 -0.0535
  479loPI   GL1 7653  16.097   0.916   9.122  0.2196 -0.0364  0.1823
  479loPI   GL2 7654  16.030   0.646   8.923 -0.0941  0.1457 -0.0292
  479loPI   C1A 7655  16.006   1.356   8.906 -0.1017  0.1457  0.0655
  479loPI   C2A 7656  16.316   1.512   8.621 -0.0580 -0.1907  0.1289
  479loPI   C3A 7657  16.599   1.383   8.265  0.2318  0.2996  0.0869
  479loPI   C4A 7658  16.721   1.289   7.877 -0.1295 -0.4508 -0.1663
  479loPI   C5A 7659  17.060   1.165   7.587  0.1510  0.0265  0.0070
  479loPI   C6A 7660  17.457   0.887   7.466  0.2049 -0.0541 -0.1434
  479loPI   C1B 7661  16.365   0.517   8.689 -0.1021  0.1452 -0.4109
  479loPI   C2B 7662  16.458   0.597   8.312  0.0248  0.1487 -0.0346
  479loPI   C3B 7663  16.601   0.826   7.874 -0.0279  0.1385 -0.1641
  479loPI   C4B 7664  16.754   0.708   7.478  0.1260  0.0241 -0.1928
  480loPI    C1 7665  10.461  15.554  10.085 -0.1565  0.0175 -0.0563
  480loPI    C2 7666  10.677  15.457  10.408  0.0877  0.0939 -0.1937
  480loPI    C3 7667  10.628  15.191  10.114 -0.3615 -0.0719  0.0221
  480loPI   PO4 7668  10.512  15.744   9.926  0.2548 -0.0341  0.0733
  480loPI   GL1 7669  10.569  15.781   9.556 -0.2462 -0.0086  0.0203
  480loPI   GL2 7670  10.773  15.713   9.350  0.2587  0.0275 -0.0358
  480loPI   C1A 7671  10.318  15.980   9.306 -0.1312 -0.0527  0.1046
  480loPI   C2A 7672  10.228  16.067   8.896  0.2414  0.0047  0.3303
  480loPI   C3A 7673  10.393  15.977   8.558  0.0924 -0.1815  0.1306
  480loPI   C4A 7674  10.644  15.920   8.172  0.2281 -0.1329  0.1375
  480loPI   C5A 7675  10.728  16.038   7.677 -0.2800 -0.0045 -0.3221
  480loPI   C6A 7676  10.636  16.175   7.223 -0.1964  0.1109 -0.4107
  480loPI   C1B 7677  10.815  15.584   8.925  0.3213  0.0431 -0.1433
  480loPI   C2B 7678  10.850  15.453   8.418 -0.3272 -0.0716 -0.1249
  480loPI   C3B 7679  10.905  15.410   8.008 -0.1271 -0.1276  0.1093
  480loPI   C4B 7680  11.056  15.163   7.622 -0.0224  0.3546 -0.0860
  481loPI    C1 7681  15.767   2.705  10.034  0.1398  0.0860 -0.2068
  481loPI    C2 7682  15.589   2.487   9.750  0.0015 -0.1040  0.0213
  481loPI    C3 7683  15.384   2.598  10.074  0.1083  0.2593 -0.0307
  481loPI   PO4 7684  15.852   2.879   9.927  0.2479  0.0274 -0.0363
  481loPI   GL1 7685  15.973   3.231   9.617 -0.4729 -0.0025 -0.0063
  481loPI   GL2 7686  16.372   3.345   9.628  0.3967 -0.2041  0.0194
  481loPI   C1A 7687  15.918   3.162   9.101 -0.1527  0.0440 -0.0030
  481loPI   C2A 7688  15.901   3.018   8.670  0.2602  0.2049 -0.1119
  481loPI   C3A 7689  15.745   2.879   8.220 -0.0889 -0.4471  0.1054
  481loPI   C4A 7690  15.770   2.927   7.785  0.0804  0.0663 -0.1732
  481loPI   C5A 7691  16.007   2.690   7.474  0.2661  0.0187  0.0996
  481loPI   C6A 7692  16.391   2.568   7.488 -0.1242 -0.1897 -0.1497
  481loPI   C1B 7693  16.328   3.454   9.192  0.3535  0.0558 -0.0847
  481loPI   C2B 7694  16.286   3.379   8.722 -0.2354 -0.2167  0.0490
  481loPI   C3B 7695  16.166   3.681   8.463 -0.0151  0.1867  0.1658
  481loPI   C4B 7696  15.785   3.803   8.137 -0.2832  0.3232 -0.1220
  482loPI    C1 7697   2.212   1.023  10.522 -0.0237  0.1658 -0.0938
  482loPI    C2 7698   1.932   0.861  10.758  0.2673  0.1095  0.2220
  482loPI    C3 7699   1.935   1.256  10.694 -0.0096  0.0850  0.0401
  482loPI   PO4 7700   2.171   0.821  10.239  0.0961  0.0552 -0.1456
  482loPI   GL1 7701   1.961   1.007   9.840  0.1729 -0.1924  0.2208
  482loPI   GL2 7702   2.311   1.078   9.808 -0.0534  0.0889 -0.0978
  482loPI   C1A 7703   1.848   0.825   9.479 -0.0784  0.3057 -0.1471
  482loPI   C2A 7704   1.688   0.904   9.130 -0.4416 -0.0492 -0.2009
  482loPI   C3A 7705   1.708   0.863   8.685 -0.1069  0.1436 -0.2451
  482loPI   C4A 7706   1.801   0.700   8.282 -0.0525  0.1130  0.1788
  482loPI   C5A 7707   1.990   0.532   7.919  0.0126  0.0963  0.2074
  482loPI   C6A 7708   2.116   0.431   7.552  0.0763 -0.1726  0.1503
  482loPI   C1B 7709   2.241   1.051   9.378  0.3104 -0.1283  0.1633
  482loPI   C2B 7710   2.088   1.155   8.997 -0.4273 -0.0827 -0.0665
  482loPI   C3B 7711   1.997   1.337   8.593  0.1441 -0.4158 -0.2095
  482loPI   C4B 7712   2.215   1.524   8.178  0.0309  0.3440 -0.3481
  483loPI    C1 7713   0.792   0.967  10.356  0.0683  0.0212 -0.3311
  483loPI    C2 7714   1.087   0.842  10.595 -0.1687 -0.0808 -0.0869
  483loPI    C3 7715   1.064   1.227  10.491 -0.0185 -0.0502 -0.0099
  483loPI   PO4 7716   0.862   0.780  10.157  0.3507  0.0322  0.1432
  483loPI   GL1 7717   1.034   0.784   9.678  0.0645 -0.0437 -0.2308
  483loPI   GL2 7718   0.825   0.491   9.575 -0.1151 -0.1521 -0.5646
  483loPI   C1A 7719   1.143   1.102   9.294  0.2212  0.0903 -0.1594
  483loPI   C2A 7720   1.248   1.079   8.872  0.2297 -0.1416 -0.2242
  483loPI   C3A 7721   1.511   1.211   8.406 -0.0380 -0.4573  0.1365
  483loPI   C4A 7722   1.756   1.205   8.101 -0.2117  0.2426  0.4396
  483loPI   C5A 7723   1.919   1.455   7.789 -0.0611 -0.1914  0.1765
  483loPI   C6A 7724   1.957   1.837   7.685  0.2261  0.2172 -0.1507
  483loPI   C1B 7725   0.855   0.629   9.216 -0.2435 -0.3469  0.2248
  483loPI   C2B 7726   0.719   0.684   8.725 -0.2966 -0.3127 -0.0002
  483loPI   C3B 7727   0.877   0.900   8.481 -0.3032 -0.1668  0.2775
  483loPI   C4B 7728   0.872   0.770   8.024  0.3386 -0.2728  0.3002
  484loPI    C1 7729   7.905   0.971   9.822 -0.0117 -0.0810  0.0077
  484loPI    C2 7730   7.891   0.599   9.969  0.1921 -0.0864  0.0157
  484loPI    C3 7731   7.948   0.910  10.215  0.0795 -0.0546  0.0020
  484loPI   PO4 7732   7.738   0.937   9.615 -0.0202  0.0299  0.1247
  484loPI   GL1 7733   7.760   0.877   9.214 -0.0436  0.0266  0.0460
  484loPI   GL2 7734   7.489   0.956   9.071 -0.1399  0.0015 -0.0614
  484loPI   C1A 7735   8.017   0.578   8.983  0.1080 -0.1967 -0.1002
  484loPI   C2A 7736   8.124   0.557   8.691 -0.0996  0.0858 -0.1801
  484loPI   C3A 7737   8.314   0.598   8.219 -0.0994  0.1688  0.2223
  484loPI   C4A 7738   8.415   0.656   7.806 -0.2639 -0.0618  0.0033
  484loPI   C5A 7739   8.750   0.721   7.611  0.1228  0.0886 -0.0572
  484loPI   C6A 7740   8.880   0.707   7.177  0.0972 -0.1633 -0.1689
  484loPI   C1B 7741   7.755   0.958   8.677 -0.1229 -0.0757 -0.1397
  484loPI   C2B 7742   8.052   1.003   8.390  0.1487  0.1357 -0.1326
  484loPI   C3B 7743   8.297   1.240   8.176 -0.0477 -0.3844  0.1078
  484loPI   C4B 7744   8.698   1.286   7.875  0.1047  0.2054 -0.4912
  485loPI    C1 7745  13.775   4.250  10.121  0.0091 -0.0412 -0.0179
  485loPI    C2 7746  13.931   4.503  10.389  0.1261  0.1542 -0.2666
  485loPI    C3 7747  13.595   4.304  10.474  0.2264  0.1229  0.0707
  485loPI   PO4 7748  13.912   4.425   9.880 -0.1191 -0.0995  0.1394
  485loPI   GL1 7749  13.775   4.333   9.393 -0.0457  0.1011 -0.1558
  485loPI   GL2 7750  13.796   4.080   9.213  0.0133  0.0919 -0.3141
  485loPI   C1A 7751  14.064   4.624   9.104 -0.2386 -0.1555  0.1862
  485loPI   C2A 7752  14.191   4.617   8.627  0.3847  0.1980  0.2893
  485loPI   C3A 7753  14.360   4.870   8.407  0.1855  0.3349  0.1255
  485loPI   C4A 7754  14.776   4.901   8.216 -0.1147 -0.1481  0.1634
  485loPI   C5A 7755  14.930   4.961   7.795  0.3359  0.0494  0.2449
  485loPI   C6A 7756  15.080   4.762   7.469  0.1288  0.3402  0.1852
  485loPI   C1B 7757  13.643   3.743   9.034 -0.0630  0.1500  0.2272
  485loPI   C2B 7758  13.726   3.498   8.661 -0.1068  0.0297 -0.1917
  485loPI   C3B 7759  13.679   3.556   8.174  0.1032  0.2208 -0.2629
  485loPI   C4B 7760  13.773   3.976   7.821 -0.0856  0.2051 -0.0057
  486loPI    C1 7761   8.570   5.812  10.842 -0.0353  0.2648  0.0934
  486loPI    C2 7762   8.233   6.003  10.942 -0.0395  0.2492  0.1093
  486loPI    C3 7763   8.280   5.618  11.037  0.0088  0.2680  0.1624
  486loPI   PO4 7764   8.612   5.923  10.564 -0.0780  0.0377  0.2851
  486loPI   GL1 7765   8.490   5.977  10.123  0.0494 -0.0079  0.2953
  486loPI   GL2 7766   8.666   5.684   9.997  0.1635 -0.1299 -0.2415
  486loPI   C1A 7767   8.485   6.203   9.721  0.1730  0.1090 -0.4038
  486loPI   C2A 7768   8.639   6.344   9.351 -0.1746 -0.2654 -0.0646
  486loPI   C3A 7769   8.577   6.281   8.936 -0.0177  0.1813  0.1679
  486loPI   C4A 7770   8.778   6.406   8.525 -0.0246 -0.1896  0.2878
  486loPI   C5A 7771   8.778   6.311   8.115  0.0648 -0.0357  0.2265
  486loPI   C6A 7772   8.737   6.567   7.719 -0.0858  0.3306  0.1450
  486loPI   C1B 7773   8.816   5.768   9.581  0.0113  0.2433  0.1069
  486loPI   C2B 7774   8.971   6.017   9.207 -0.0258  0.1564  0.2465
  486loPI   C3B 7775   9.040   6.014   8.798  0.2642  0.2079  0.0842
  486loPI   C4B 7776   9.100   6.065   8.403 -0.0851  0.0902  0.0212
  487loPI    C1 7777  16.252  17.620  10.275  0.1195  0.2590 -0.1054
  487loPI    C2 7778  16.593  17.637  10.484  0.1000 -0.1864 -0.0284
  487loPI    C3 7779  16.247  17.741  10.657  0.1158 -0.3283  0.0911
  487loPI   PO4 7780  16.217  17.464  10.053 -0.0694 -0.0638  0.0163
  487loPI   GL1 7781  16.487  17.357   9.683  0.1307  0.1872  0.2608
  487loPI   GL2 7782  16.727  17.408   9.578 -0.2075  0.3426 -0.0765
  487loPI   C1A 7783  16.455  17.400   9.185  0.0701 -0.0388 -0.1504
  487loPI   C2A 7784  16.578  17.597   8.784 -0.2049 -0.0107  0.0073
  487loPI   C3A 7785  16.680  17.529   8.397  0.1273  0.0323  0.1217
  487loPI   C4A 7786  16.938  17.367   8.133 -0.2160  0.1005  0.3130
  487loPI   C5A 7787  16.710  17.198   7.774  0.1209 -0.2767 -0.3144
  487loPI   C6A 7788  16.919  17.211   7.335  0.0378 -0.0004 -0.2010
  487loPI   C1B 7789  16.991  17.488   9.142  0.0364 -0.3764  0.0810
  487loPI   C2B 7790  17.020  17.389   8.678  0.2355 -0.1841 -0.1814
  487loPI   C3B 7791  17.213  17.034   8.334 -0.2060  0.4257  0.3064
  487loPI   C4B 7792  17.570  17.086   8.185  0.1915 -0.2458 -0.1090
  488loPI    C1 7793   7.469   3.180  10.421 -0.0331 -0.0084  0.2774
  488loPI    C2 7794   7.231   3.485  10.521 -0.1255 -0.0615  0.2201
  488loPI    C3 7795   7.484   3.333  10.791  0.2532  0.3645  0.1186
  488loPI   PO4 7796   7.556   3.249  10.217 -0.0330  0.2228  0.0924
  488loPI   GL1 7797   7.456   3.478   9.824 -0.2389 -0.1611 -0.1777
  488loPI   GL2 7798   7.246   3.737  10.038  0.0157  0.0868 -0.0618
  488loPI   C1A 7799   7.522   3.208   9.339  0.3213 -0.0423  0.3109
  488loPI   C2A 7800   7.532   3.050   8.889 -0.0146 -0.6206 -0.3180
  488loPI   C3A 7801   7.357   2.820   8.578 -0.1514 -0.0225  0.1766
  488loPI   C4A 7802   7.282   2.893   8.172 -0.3407 -0.0426  0.1609
  488loPI   C5A 7803   7.255   2.902   7.669  0.0375  0.0123 -0.1497
  488loPI   C6A 7804   7.374   2.955   7.258 -0.1177  0.0846 -0.2438
  488loPI   C1B 7805   7.473   3.979   9.797  0.2096 -0.1277  0.0316
  488loPI   C2B 7806   7.339   4.205   9.378  0.1814 -0.1182 -0.0455
  488loPI   C3B 7807   7.086   4.393   9.074  0.3638 -0.1976  0.0496
  488loPI   C4B 7808   7.071   4.656   8.810  0.0990  0.1868  0.1031
  489loPI    C1 7809  15.587   1.955   9.933  0.0330 -0.0071 -0.1846
  489loPI    C2 7810  15.488   2.179  10.249 -0.3024 -0.1029 -0.2175
  489loPI    C3 7811  15.851   2.215  10.084 -0.1746  0.0497  0.0884
  489loPI   PO4 7812  15.336   1.934   9.809 -0.3612  0.2950  0.1733
  489loPI   GL1 7813  15.361   1.696   9.456 -0.0909 -0.3109  0.2050
  489loPI   GL2 7814  14.999   1.624   9.494  0.1478  0.0086  0.3806
  489loPI   C1A 7815  15.760   1.722   9.125  0.0143  0.2638 -0.1104
  489loPI   C2A 7816  15.779   1.706   8.665 -0.2636  0.0222  0.0487
  489loPI   C3A 7817  15.971   1.390   8.317 -0.0759  0.1057 -0.1690
  489loPI   C4A 7818  16.157   1.058   8.253  0.0801 -0.1760  0.0883
  489loPI   C5A 7819  15.918   0.662   8.348 -0.0114 -0.0868 -0.3064
  489loPI   C6A 7820  15.989   0.291   8.552 -0.1722 -0.2491 -0.1575
  489loPI   C1B 7821  14.878   1.546   9.106  0.3139 -0.2262  0.1354
  489loPI   C2B 7822  14.841   1.580   8.604 -0.0679  0.0245  0.2027
  489loPI   C3B 7823  14.988   1.725   8.160  0.3373  0.1431  0.1864
  489loPI   C4B 7824  15.244   1.616   7.713  0.0229  0.1090 -0.1028
  490loPI    C1 7825   5.342   0.140   9.887  0.0526  0.2111  0.0754
  490loPI    C2 7826   5.288  -0.256   9.873 -0.1036  0.2396 -0.2197
  490loPI    C3 7827   5.463  -0.089  10.191  0.0797 -0.0790 -0.1487
  490loPI   PO4 7828   5.418   0.187   9.689  0.1478 -0.2754 -0.1749
  490loPI   GL1 7829   5.351   0.138   9.358  0.5753  0.2296 -0.0932
  490loPI   GL2 7830   5.223  -0.158   9.383 -0.2874 -0.0949  0.2325
  490loPI   C1A 7831   5.443  -0.009   8.899 -0.1554 -0.0588 -0.0789
  490loPI   C2A 7832   5.585   0.020   8.426  0.2028 -0.1070 -0.3499
  490loPI   C3A 7833   5.809   0.350   8.125  0.3641  0.1719  0.0116
  490loPI   C4A 7834   5.801   0.368   7.777 -0.2018 -0.0440  0.0803
  490loPI   C5A 7835   5.833   0.717   7.437 -0.0582 -0.0704 -0.4695
  490loPI   C6A 7836   5.651   1.096   7.112 -0.0037  0.0126 -0.4520
  490loPI   C1B 7837   5.136  -0.505   8.997  0.1336  0.3318  0.1068
  490loPI   C2B 7838   5.060  -0.430   8.619  0.3532  0.1008  0.1307
  490loPI   C3B 7839   5.158  -0.217   8.211 -0.0244 -0.3515 -0.0740
  490loPI   C4B 7840   5.508  -0.110   7.938 -0.1491 -0.0488  0.1409
  491loPI    C1 7841   5.601   3.795   9.870  0.1213  0.0580  0.3251
  491loPI    C2 7842   5.431   4.074  10.101 -0.0780  0.2216 -0.0107
  491loPI    C3 7843   5.313   3.692  10.128 -0.0886  0.2362  0.1651
  491loPI   PO4 7844   5.899   3.915   9.958  0.3091  0.2921  0.3538
  491loPI   GL1 7845   6.370   3.975   9.782  0.0546  0.2448 -0.4154
  491loPI   GL2 7846   6.199   4.301   9.737  0.1100  0.1977  0.0816
  491loPI   C1A 7847   6.301   4.012   9.315 -0.2081  0.3880 -0.1780
  491loPI   C2A 7848   6.091   4.001   8.935 -0.0465 -0.0785  0.0284
  491loPI   C3A 7849   6.202   3.964   8.539  0.0237  0.1554  0.1720
  491loPI   C4A 7850   6.335   3.867   8.158  0.2037 -0.1986  0.5766
  491loPI   C5A 7851   6.660   4.110   8.022  0.0060  0.0063  0.0943
  491loPI   C6A 7852   7.065   3.976   7.948 -0.1336 -0.0614  0.2032
  491loPI   C1B 7853   5.992   4.446   9.384  0.0947 -0.3258  0.3056
  491loPI   C2B 7854   5.932   4.500   8.884  0.0066  0.0777 -0.0412
  491loPI   C3B 7855   5.911   4.621   8.528  0.0514  0.0488 -0.0102
  491loPI   C4B 7856   5.691   4.635   8.076 -0.0811  0.0045  0.1929
  492loPI    C1 7857   8.600   1.933  10.274  0.0526  0.2804  0.2091
  492loPI    C2 7858   8.457   1.662  10.532  0.0472 -0.0912 -0.1722
  492loPI    C3 7859   8.279   2.018  10.496  0.1356  0.0247  0.4328
  492loPI   PO4 7860   8.695   1.814   9.981  0.0535 -0.1203  0.1964
  492loPI   GL1 7861   8.531   1.439   9.709 -0.0949  0.0707 -0.0693
  492loPI   GL2 7862   8.736   1.245   9.743  0.0158  0.1160 -0.1405
  492loPI   C1A 7863   8.450   1.446   9.246  0.0167 -0.1035  0.2435
  492loPI   C2A 7864   8.319   1.706   8.765  0.2231 -0.1364 -0.1098
  492loPI   C3A 7865   8.151   1.822   8.375  0.0537 -0.2175  0.0150
  492loPI   C4A 7866   8.336   1.696   8.046  0.0135  0.0931 -0.0557
  492loPI   C5A 7867   8.487   1.674   7.647 -0.1987 -0.1627 -0.1522
  492loPI   C6A 7868   8.810   1.762   7.300  0.3953 -0.0055  0.1526
  492loPI   C1B 7869   8.808   1.110   9.421  0.0551 -0.2674 -0.0216
  492loPI   C2B 7870   8.873   1.144   9.018  0.1023  0.1982 -0.0282
  492loPI   C3B 7871   9.011   0.898   8.841 -0.0644 -0.2531 -0.0269
  492loPI   C4B 7872   9.321   0.840   8.648  0.0671 -0.1324  0.1636
  493loPI    C1 7873  11.495  14.986   9.924 -0.1090  0.0559  0.1484
  493loPI    C2 7874  11.310  14.829  10.241 -0.2990  0.0444  0.0333
  493loPI    C3 7875  11.372  14.606   9.915 -0.5870  0.2084 -0.1381
  493loPI   PO4 7876  11.444  15.275   9.802  0.0828  0.1907  0.1646
  493loPI   GL1 7877  11.679  15.612   9.593  0.0610  0.1302 -0.1107
  493loPI   GL2 7878  12.007  15.621   9.572  0.1528 -0.0708 -0.1959
  493loPI   C1A 7879  11.642  15.707   9.158 -0.0405  0.0414 -0.0214
  493loPI   C2A 7880  11.642  15.718   8.806  0.1867 -0.1860 -0.3209
  493loPI   C3A 7881  11.739  15.811   8.424 -0.2941 -0.0562 -0.0388
  493loPI   C4A 7882  11.629  15.734   8.056 -0.1629  0.3991 -0.0144
  493loPI   C5A 7883  11.385  15.571   7.674 -0.1613 -0.1859 -0.2170
  493loPI   C6A 7884  11.022  15.611   7.381 -0.1861  0.0092  0.0225
  493loPI   C1B 7885  12.134  15.858   9.194  0.3694  0.1310 -0.2078
  493loPI   C2B 7886  12.237  15.696   8.812 -0.0415 -0.0671  0.2836
  493loPI   C3B 7887  12.347  15.845   8.420  0.0787 -0.2825  0.2335
  493loPI   C4B 7888  12.517  16.310   8.367 -0.2194  0.1184 -0.1867
  494loPI    C1 7889  13.768   0.576  10.349  0.1418 -0.1513 -0.2882
  494loPI    C2 7890  13.647   0.785  10.030  0.1116  0.2540 -0.0182
  494loPI    C3 7891  13.594   0.932  10.398  0.1981 -0.1818  0.1753
  494loPI   PO4 7892  14.026   0.499  10.248 -0.0187  0.0889 -0.0920
  494loPI   GL1 7893  14.018   0.408   9.807 -0.2140 -0.0385  0.0229
  494loPI   GL2 7894  14.021   0.693   9.768 -0.0778 -0.1702  0.2813
  494loPI   C1A 7895  13.958   0.269   9.440 -0.0218  0.0504 -0.2306
  494loPI   C2A 7896  13.809   0.273   8.959  0.0892 -0.1460  0.1972
  494loPI   C3A 7897  13.488   0.246   8.591 -0.2866  0.1761  0.2228
  494loPI   C4A 7898  13.433   0.297   8.134  0.0750 -0.2367 -0.1829
  494loPI   C5A 7899  13.560   0.594   7.821 -0.0959  0.1706 -0.2156
  494loPI   C6A 7900  13.808   0.632   7.406  0.2419  0.2595  0.2758
  494loPI   C1B 7901  14.120   0.794   9.425  0.2830  0.0580 -0.0648
  494loPI   C2B 7902  14.269   0.980   9.129 -0.1258  0.0752 -0.0422
  494loPI   C3B 7903  14.485   0.931   8.826  0.1650 -0.3351  0.1990
  494loPI   C4B 7904  14.773   0.901   8.393 -0.1682 -0.0992  0.3637
  495loPI    C1 7905   2.414  13.993  10.171 -0.0636  0.0386  0.1398
  495loPI    C2 7906   2.097  13.913  10.401 -0.0454  0.1886  0.2187
  495loPI    C3 7907   2.340  14.216  10.495  0.0916  0.1077  0.1287
  495loPI   PO4 7908   2.474  13.960   9.899  0.1082  0.1752 -0.3075
  495loPI   GL1 7909   2.285  13.844   9.475 -0.0175  0.2614 -0.0891
  495loPI   GL2 7910   2.566  13.617   9.376  0.1380  0.2794 -0.0371
  495loPI   C1A 7911   2.391  14.002   9.008 -0.1362 -0.1787  0.2324
  495loPI   C2A 7912   2.674  13.964   8.688  0.2856 -0.1834  0.4108
  495loPI   C3A 7913   3.042  14.053   8.421  0.4235  0.0101 -0.0454
  495loPI   C4A 7914   3.294  14.023   8.074 -0.0422 -0.3858  0.1074
  495loPI   C5A 7915   3.290  13.913   7.632 -0.1825 -0.1944 -0.0148
  495loPI   C6A 7916   3.486  14.254   7.303  0.1356 -0.1859  0.3502
  495loPI   C1B 7917   2.275  13.414   9.159 -0.0330  0.1680  0.0958
  495loPI   C2B 7918   2.351  13.088   8.813 -0.2901  0.1776  0.1038
  495loPI   C3B 7919   2.433  12.922   8.425 -0.3690  0.0270  0.0252
  495loPI   C4B 7920   2.582  13.223   8.087  0.0179 -0.1251 -0.2168
  496loPI    C1 7921   8.804   5.202  10.186 -0.0267  0.1117 -0.2404
  496loPI    C2 7922   9.103   5.457  10.110  0.1389 -0.0278 -0.0664
  496loPI    C3 7923   8.879   5.503  10.439  0.1740 -0.1099 -0.0306
  496loPI   PO4 7924   8.696   5.184   9.952  0.1543  0.0226  0.2716
  496loPI   GL1 7925   8.623   5.309   9.552 -0.1208 -0.0512 -0.2182
  496loPI   GL2 7926   8.422   4.986   9.659 -0.0129  0.1350  0.2195
  496loPI   C1A 7927   8.727   5.393   9.175 -0.0556 -0.0072  0.2488
  496loPI   C2A 7928   8.841   5.588   8.918 -0.2485 -0.3324 -0.1974
  496loPI   C3A 7929   8.812   5.569   8.487  0.0400 -0.1267  0.0780
  496loPI   C4A 7930   8.700   5.586   8.035  0.4420  0.1480 -0.1390
  496loPI   C5A 7931   8.405   5.614   7.707 -0.3065 -0.1839 -0.0228
  496loPI   C6A 7932   8.460   5.688   7.299 -0.0029 -0.2392 -0.0582
  496loPI   C1B 7933   8.531   4.938   9.251  0.0054 -0.2611 -0.0293
  496loPI   C2B 7934   8.570   4.714   8.827 -0.2551  0.2421  0.1407
  496loPI   C3B 7935   8.945   4.727   8.507 -0.1358 -0.0506  0.1432
  496loPI   C4B 7936   9.424   4.922   8.461  0.1830 -0.1812 -0.4080
  497loPI    C1 7937  15.993  15.193  10.028 -0.0621 -0.2890  0.2480
  497loPI    C2 7938  15.755  15.301  10.331 -0.1094 -0.2739  0.2054
  497loPI    C3 7939  16.123  15.163  10.406  0.0328  0.1165  0.2522
  497loPI   PO4 7940  16.038  15.462   9.814 -0.1169  0.0097 -0.2116
  497loPI   GL1 7941  15.890  15.612   9.481  0.0146  0.0344 -0.0695
  497loPI   GL2 7942  16.300  15.796   9.520  0.4733  0.0056 -0.0068
  497loPI   C1A 7943  15.808  15.444   9.119  0.0301 -0.3453 -0.1545
  497loPI   C2A 7944  15.908  15.550   8.705  0.1318  0.1154  0.1627
  497loPI   C3A 7945  16.142  15.744   8.334  0.0515 -0.0343  0.2955
  497loPI   C4A 7946  16.349  15.753   8.072 -0.2337 -0.1340 -0.0860
  497loPI   C5A 7947  16.662  15.474   7.958 -0.1300 -0.1483  0.1783
  497loPI   C6A 7948  17.109  15.364   7.729 -0.1052  0.0784 -0.0562
  497loPI   C1B 7949  16.305  15.737   9.167 -0.3190 -0.2247  0.0961
  497loPI   C2B 7950  16.413  15.579   8.803 -0.0619  0.0923 -0.0111
  497loPI   C3B 7951  16.625  15.548   8.531  0.1391  0.1769  0.1393
  497loPI   C4B 7952  17.056  15.377   8.430 -0.4510 -0.1317  0.0523
  498loPI    C1 7953   9.731  18.379  10.114  0.0950  0.0394 -0.0005
  498loPI    C2 7954   9.898  18.449  10.471 -0.1449  0.2224  0.0785
  498loPI    C3 7955   9.698  18.108  10.406 -0.0400  0.1573  0.0949
  498loPI   PO4 7956   9.916  18.475   9.876 -0.1021  0.0440 -0.3704
  498loPI   GL1 7957   9.879  18.506   9.498  0.1876  0.0606  0.3048
  498loPI   GL2 7958   9.692  18.245   9.448  0.2760 -0.1193 -0.2442
  498loPI   C1A 7959  10.058  18.648   9.078  0.0879  0.2589  0.2103
  498loPI   C2A 7960  10.073  18.740   8.698 -0.2590  0.1441 -0.0145
  498loPI   C3A 7961  10.023  18.730   8.301 -0.0869  0.0339 -0.2401
  498loPI   C4A 7962   9.887  18.767   7.812 -0.2555 -0.0851  0.2577
  498loPI   C5A 7963  10.081  18.996   7.613 -0.0817 -0.0352 -0.0806
  498loPI   C6A 7964  10.313  18.996   7.175  0.1483  0.2828  0.2489
  498loPI   C1B 7965   9.662  18.319   9.004 -0.1946  0.0532  0.1079
  498loPI   C2B 7966   9.674  18.524   8.602  0.0929  0.2129  0.2248
  498loPI   C3B 7967   9.587  18.568   8.177  0.0108  0.1698  0.2567
  498loPI   C4B 7968   9.389  18.645   7.721  0.1649 -0.1702 -0.1717
  499loPI    C1 7969   7.588  18.459   9.942  0.1010 -0.3391 -0.1062
  499loPI    C2 7970   7.626  18.532  10.333 -0.0698 -0.0549 -0.1391
  499loPI    C3 7971   7.841  18.241  10.162  0.2047 -0.0060  0.1127
  499loPI   PO4 7972   7.379  18.374   9.857  0.1721 -0.0854 -0.0389
  499loPI   GL1 7973   7.316  18.063   9.421  0.1438 -0.2057  0.0591
  499loPI   GL2 7974   7.620  18.257   9.380 -0.0951 -0.3529 -0.1666
  499loPI   C1A 7975   7.326  17.982   8.956 -0.1734  0.3296 -0.0514
  499loPI   C2A 7976   7.253  17.950   8.514 -0.0271  0.2113 -0.0318
  499loPI   C3A 7977   7.162  17.842   8.156 -0.1547  0.0057 -0.0187
  499loPI   C4A 7978   7.188  17.562   7.806  0.1715  0.1032 -0.1060
  499loPI   C5A 7979   7.328  17.344   7.462  0.0745  0.0948  0.0277
  499loPI   C6A 7980   7.667  17.118   7.176  0.0059 -0.2065 -0.1082
  499loPI   C1B 7981   7.894  18.345   9.034  0.0887  0.1421  0.1340
  499loPI   C2B 7982   7.894  18.301   8.709 -0.0766  0.1397 -0.0342
  499loPI   C3B 7983   8.091  18.180   8.392  0.2148  0.1447  0.1568
  499loPI   C4B 7984   8.183  18.425   7.973 -0.0329 -0.5750 -0.0962
  500loPI    C1 7985  14.812   9.012   9.931 -0.0447 -0.1792  0.1732
  500loPI    C2 7986  14.816   9.410   9.964  0.0032 -0.1635 -0.0135
  500loPI    C3 7987  15.015   9.185  10.228  0.1671 -0.0535 -0.0416
  500loPI   PO4 7988  14.861   8.975   9.656 -0.2023  0.0925  0.2324
  500loPI   GL1 7989  14.982   9.020   9.313 -0.0335  0.0927 -0.2981
  500loPI   GL2 7990  15.267   9.019   9.175 -0.0221  0.4767 -0.2490
  500loPI   C1A 7991  14.825   8.872   9.017 -0.4445 -0.4375  0.0260
  500loPI   C2A 7992  14.879   8.747   8.518  0.0492  0.0292 -0.0365
  500loPI   C3A 7993  14.676   8.757   8.161  0.1169 -0.0793 -0.2380
  500loPI   C4A 7994  14.592   8.863   7.715  0.0500  0.1023  0.0369
  500loPI   C5A 7995  14.803   8.695   7.294  0.0807 -0.0227 -0.0232
  500loPI   C6A 7996  14.934   8.567   6.880 -0.0268 -0.1321  0.0197
  500loPI   C1B 7997  15.121   9.140   8.760  0.1340  0.1992 -0.0592
  500loPI   C2B 7998  14.960   9.223   8.365  0.1952  0.1317 -0.3839
  500loPI   C3B 7999  14.780   9.299   8.028  0.0035  0.0762 -0.0726
  500loPI   C4B 8000  14.301   9.317   7.901  0.1592  0.3339 -0.4518
  501loPI    C1 8001   6.948  10.598  10.261 -0.2685 -0.3380 -0.1519
  501loPI    C2 8002   7.251  10.804  10.101  0.0164 -0.3876  0.3042
  501loPI    C3 8003   6.877  10.868   9.975  0.1615  0.0086  0.0552
  501loPI   PO4 8004   7.011  10.396  10.269 -0.5248  0.2008 -0.1838
  501loPI   GL1 8005   7.161  10.085   9.954 -0.0455 -0.3181 -0.2176
  501loPI   GL2 8006   7.082  10.352   9.798  0.0966 -0.0660  0.0660
  501loPI   C1A 8007   7.182   9.924   9.500  0.1279  0.0649 -0.0408
  501loPI   C2A 8008   6.966   9.895   9.148  0.1315  0.3205 -0.0775
  501loPI   C3A 8009   6.877   9.880   8.806 -0.2090 -0.1730 -0.0852
  501loPI   C4A 8010   6.730   9.720   8.425 -0.3717 -0.0407 -0.1651
  501loPI   C5A 8011   6.667   9.864   8.003 -0.2675 -0.0190  0.4229
  501loPI   C6A 8012   6.542   9.721   7.633 -0.1767 -0.1049 -0.0708
  501loPI   C1B 8013   6.859  10.810   9.474 -0.1803 -0.1449 -0.1105
  501loPI   C2B 8014   6.971  10.756   9.065  0.1551  0.0848 -0.1900
  501loPI   C3B 8015   6.961  10.839   8.625  0.0982 -0.1128  0.3125
  501loPI   C4B 8016   6.876  10.847   8.170  0.1339  0.0370 -0.0050
  502loPI    C1 8017   3.920   3.795  10.292  0.0732  0.0079 -0.0578
  502loPI    C2 8018   4.295   3.770  10.430 -0.0138 -0.1559  0.1543
  502loPI    C3 8019   3.987   3.751  10.684 -0.1684 -0.0934 -0.0264
  502loPI   PO4 8020   4.030   3.748  10.031  0.1356 -0.1635  0.1515
  502loPI   GL1 8021   4.113   3.539   9.662 -0.0039 -0.3838  0.0123
  502loPI   GL2 8022   4.076   3.192   9.714  0.0967  0.2240  0.2346
  502loPI   C1A 8023   4.058   3.719   9.241  0.0620  0.0430  0.0393
  502loPI   C2A 8024   4.118   3.690   8.804 -0.0011 -0.2662  0.0912
  502loPI   C3A 8025   4.342   3.792   8.445  0.3406  0.1117 -0.0488
  502loPI   C4A 8026   4.304   3.569   8.084 -0.0835 -0.1924  0.1243
  502loPI   C5A 8027   4.325   3.327   7.651 -0.2914  0.0384 -0.0393
  502loPI   C6A 8028   4.279   3.330   7.168  0.0953  0.0205 -0.0700
  502loPI   C1B 8029   4.186   3.162   9.325 -0.3829 -0.2443 -0.0154
  502loPI   C2B 8030   4.347   3.251   8.995  0.0999 -0.0533  0.2553
  502loPI   C3B 8031   4.258   3.284   8.579 -0.2980 -0.0446 -0.2380
  502loPI   C4B 8032   4.443   3.024   8.186  0.3711  0.2420 -0.2504
  503loPI    C1 8033  16.753   0.114  10.107  0.0881 -0.3151  0.0528
  503loPI    C2 8034  16.499   0.300  10.353  0.1236  0.1931 -0.2805
  503loPI    C3 8035  16.893   0.361  10.389  0.1664 -0.1489 -0.1294
  503loPI   PO4 8036  16.594   0.032   9.898  0.0231  0.0508  0.1609
  503loPI   GL1 8037  16.521  -0.228   9.653 -0.0528 -0.2771 -0.0246
  503loPI   GL2 8038  16.164  -0.348   9.692 -0.0637  0.0275 -0.1300
  503loPI   C1A 8039  16.434  -0.295   9.289 -0.2779 -0.1666 -0.1117
  503loPI   C2A 8040  16.187  -0.469   8.909 -0.0962  0.1240 -0.2189
  503loPI   C3A 8041  16.371  -0.408   8.564 -0.3425 -0.1612 -0.0629
  503loPI   C4A 8042  16.443  -0.515   8.209 -0.0231  0.0652  0.0335
  503loPI   C5A 8043  16.154  -0.624   7.812 -0.1377  0.1253 -0.0815
  503loPI   C6A 8044  15.912  -1.131   7.702  0.3649  0.3812 -0.1486
  503loPI   C1B 8045  15.782  -0.475   9.337  0.0246  0.0998  0.2320
  503loPI   C2B 8046  15.682  -0.816   9.061  0.1053 -0.4418  0.1477
  503loPI   C3B 8047  15.661  -0.788   8.708 -0.1585  0.1765  0.2729
  503loPI   C4B 8048  15.726  -1.064   8.344 -0.2440  0.0351  0.1291
  504loPI    C1 8049  10.244  17.295  10.107 -0.3423  0.1897 -0.0298
  504loPI    C2 8050   9.973  17.033  10.241 -0.2281  0.0598 -0.0512
  504loPI    C3 8051  10.085  17.340  10.472 -0.0806 -0.1256  0.1280
  504loPI   PO4 8052  10.453  17.117   9.947 -0.0913 -0.2280  0.3021
  504loPI   GL1 8053  10.503  17.047   9.564 -0.3345  0.0807  0.0229
  504loPI   GL2 8054  10.751  16.830   9.451  0.0122  0.1293  0.0944
  504loPI   C1A 8055  10.649  17.291   9.152 -0.2087 -0.0601 -0.0150
  504loPI   C2A 8056  10.713  17.466   8.714  0.0880 -0.1683  0.1426
  504loPI   C3A 8057  10.721  17.399   8.281  0.1612 -0.2215 -0.1605
  504loPI   C4A 8058  11.011  17.465   7.866  0.3643  0.2326  0.1279
  504loPI   C5A 8059  11.145  17.691   7.522  0.1923  0.2302  0.1888
  504loPI   C6A 8060  10.940  17.627   7.073 -0.3125  0.1165 -0.0949
  504loPI   C1B 8061  10.740  16.861   8.993  0.0913 -0.3126  0.0752
  504loPI   C2B 8062  10.768  16.866   8.506  0.0774  0.0890  0.1182
  504loPI   C3B 8063  10.789  16.896   8.087 -0.0087  0.0389 -0.0941
  504loPI   C4B 8064  10.554  16.942   7.755  0.2329  0.1926  0.1740
  505loPI    C1 8065  10.641   1.583  10.178 -0.0427  0.1262 -0.1386
  505loPI    C2 8066  10.478   1.427  10.508 -0.1723  0.1869 -0.1735
  505loPI    C3 8067  10.308   1.743  10.331 -0.0377  0.2270 -0.2322
  505loPI   PO4 8068  10.731   1.375  10.082 -0.3681  0.0216 -0.1602
  505loPI   GL1 8069  10.747   1.193   9.622  0.1917  0.2593 -0.1483
  505loPI   GL2 8070  10.409   1.113   9.694  0.0332  0.2832  0.0631
  505loPI   C1A 8071  10.839   1.064   9.231  0.0669  0.0053  0.0892
  505loPI   C2A 8072  11.006   1.041   8.879  0.0636  0.0554  0.2115
  505loPI   C3A 8073  10.846   1.107   8.451 -0.0748  0.1305  0.3961
  505loPI   C4A 8074  10.785   1.107   8.072 -0.1156  0.3078 -0.1089
  505loPI   C5A 8075  10.590   0.943   7.733 -0.4099  0.2882  0.0084
  505loPI   C6A 8076  10.804   0.722   7.478  0.1116  0.0148  0.1082
  505loPI   C1B 8077  10.306   1.376   9.298 -0.4056 -0.0322 -0.0005
  505loPI   C2B 8078  10.398   1.363   8.929 -0.0802  0.2307  0.0313
  505loPI   C3B 8079  10.526   1.498   8.539  0.0891 -0.0457  0.0395
  505loPI   C4B 8080  10.544   1.535   8.130 -0.0922 -0.2406 -0.2890
  506loPI    C1 8081  15.715  12.139   9.983 -0.2391  0.3037 -0.0067
  506loPI    C2 8082  15.656  12.076  10.373  0.0063  0.0292 -0.0109
  506loPI    C3 8083  15.522  11.810  10.105 -0.0570  0.1575 -0.1075
  506loPI   PO4 8084  15.885  12.326   9.946  0.3060  0.2953  0.1970
  506loPI   GL1 8085  16.269  12.372   9.742 -0.0811 -0.0768  0.0207
  506loPI   GL2 8086  16.394  12.224   9.512  0.0789  0.4890  0.1559
  506loPI   C1A 8087  16.309  12.739   9.432 -0.1559 -0.0167 -0.4098
  506loPI   C2A 8088  16.346  12.847   8.970  0.1638  0.3220  0.0023
  506loPI   C3A 8089  16.407  12.898   8.613 -0.1093  0.0813 -0.4450
  506loPI   C4A 8090  16.456  13.066   8.228 -0.1787  0.0497 -0.5074
  506loPI   C5A 8091  16.297  13.175   7.795  0.1199  0.0165 -0.1846
  506loPI   C6A 8092  16.554  13.304   7.376 -0.1623  0.2795 -0.2950
  506loPI   C1B 8093  16.498  12.173   9.076 -0.0996 -0.0900 -0.1562
  506loPI   C2B 8094  16.439  12.342   8.667  0.2663  0.0038 -0.1419
  506loPI   C3B 8095  16.613  12.554   8.238 -0.1359 -0.2294 -0.2702
  506loPI   C4B 8096  16.892  12.509   7.931  0.1743 -0.0976  0.1459
  507loPI    C1 8097  11.435   5.181  10.123 -0.1239  0.1146  0.0044
  507loPI    C2 8098  11.438   5.581  10.142  0.2016  0.1122  0.0577
  507loPI    C3 8099  11.396   5.365  10.476 -0.0446  0.1005  0.0208
  507loPI   PO4 8100  11.644   5.022  10.046 -0.1387  0.1233  0.2403
  507loPI   GL1 8101  11.631   4.899   9.574 -0.2421  0.2298 -0.1297
  507loPI   GL2 8102  11.745   5.242   9.563 -0.0642 -0.0218 -0.1499
  507loPI   C1A 8103  11.820   4.999   9.120  0.2776  0.0335 -0.0134
  507loPI   C2A 8104  11.738   5.176   8.687  0.1346  0.1477  0.0480
  507loPI   C3A 8105  11.765   5.239   8.240 -0.2204  0.1339 -0.1364
  507loPI   C4A 8106  11.807   5.061   7.844 -0.0548  0.2457 -0.0478
  507loPI   C5A 8107  12.114   5.021   7.605  0.1315 -0.2896  0.0437
  507loPI   C6A 8108  12.344   5.140   7.308 -0.1811  0.0559  0.2167
  507loPI   C1B 8109  11.484   5.488   9.282  0.0579 -0.1399  0.4115
  507loPI   C2B 8110  11.345   5.524   8.867  0.0029  0.2675 -0.2484
  507loPI   C3B 8111  11.178   5.228   8.550 -0.1472  0.1529  0.3002
  507loPI   C4B 8112  11.208   5.090   8.161 -0.0209  0.1090  0.0383
  508loPI    C1 8113   8.990   7.129  10.939  0.0511 -0.2435 -0.1536
  508loPI    C2 8114   8.935   6.763  11.090 -0.1110 -0.0714  0.2167
  508loPI    C3 8115   9.301   6.881  10.981 -0.0378 -0.2985  0.2114
  508loPI   PO4 8116   8.626   7.164  10.722 -0.0343 -0.0590  0.2093
  508loPI   GL1 8117   8.475   7.070  10.347 -0.1210 -0.2070 -0.1634
  508loPI   GL2 8118   8.622   7.321  10.200 -0.0540 -0.0140 -0.3343
  508loPI   C1A 8119   8.432   6.905   9.919  0.0784 -0.0814  0.3365
  508loPI   C2A 8120   8.333   6.643   9.604 -0.2940  0.1291  0.0923
  508loPI   C3A 8121   8.305   6.675   9.195 -0.0473 -0.2935  0.0902
  508loPI   C4A 8122   8.407   6.718   8.785 -0.0247 -0.1153 -0.2519
  508loPI   C5A 8123   8.337   6.713   8.421  0.3006 -0.0276 -0.2266
  508loPI   C6A 8124   8.328   6.620   8.072 -0.1134 -0.0318  0.3973
  508loPI   C1B 8125   8.618   7.333   9.721  0.1606  0.1589 -0.1061
  508loPI   C2B 8126   8.539   7.220   9.216 -0.1145 -0.0695 -0.1329
  508loPI   C3B 8127   8.464   7.299   8.850 -0.4718  0.0270  0.2508
  508loPI   C4B 8128   8.277   7.228   8.484 -0.1762  0.1322  0.3352
  509loPI    C1 8129  14.050  13.664  10.191 -0.0677 -0.0296 -0.0490
  509loPI    C2 8130  14.281  13.342  10.138  0.0573  0.0721 -0.1257
  509loPI    C3 8131  13.924  13.304  10.314  0.2100 -0.0577  0.1626
  509loPI   PO4 8132  13.992  13.756   9.915 -0.0852  0.0735  0.0537
  509loPI   GL1 8133  13.983  13.994   9.436  0.1207  0.0840 -0.0107
  509loPI   GL2 8134  14.194  14.217   9.455  0.3504  0.2463 -0.2415
  509loPI   C1A 8135  13.992  14.108   8.989  0.1252 -0.1993  0.2399
  509loPI   C2A 8136  13.981  14.306   8.586 -0.2374  0.2876  0.0677
  509loPI   C3A 8137  13.926  14.601   8.284  0.0662  0.0115  0.2043
  509loPI   C4A 8138  14.091  14.782   8.143  0.1115  0.1413  0.1010
  509loPI   C5A 8139  14.202  15.213   8.047 -0.1242  0.1290 -0.0557
  509loPI   C6A 8140  14.346  15.626   8.179  0.0255 -0.1393 -0.0014
  509loPI   C1B 8141  14.467  14.016   9.162 -0.0715 -0.4175 -0.3594
  509loPI   C2B 8142  14.488  14.039   8.778 -0.3570  0.1975 -0.2518
  509loPI   C3B 8143  14.392  14.006   8.460 -0.3929  0.0782  0.1685
  509loPI   C4B 8144  14.366  14.342   8.257 -0.2328 -0.1633  0.1631
  510loPI    C1 8145   5.753  14.360  10.198  0.1076  0.0185  0.1558
  510loPI    C2 8146   5.530  14.685  10.263  0.0672  0.0565 -0.1569
  510loPI    C3 8147   5.620  14.441  10.566 -0.0412  0.2690  0.0498
  510loPI   PO4 8148   5.617  14.165   9.946  0.0648 -0.0218 -0.1948
  510loPI   GL1 8149   5.363  14.274   9.605  0.1162  0.2667 -0.2178
  510loPI   GL2 8150   5.259  13.911   9.532 -0.0067 -0.0276 -0.0927
  510loPI   C1A 8151   5.385  14.238   9.199 -0.0200  0.2581  0.1608
  510loPI   C2A 8152   5.285  14.279   8.777  0.1950 -0.0019 -0.2344
  510loPI   C3A 8153   5.125  14.379   8.328 -0.1497 -0.1039  0.6076
  510loPI   C4A 8154   5.060  14.550   7.928  0.3217  0.0390 -0.1715
  510loPI   C5A 8155   4.636  14.933   7.797  0.0235 -0.0434 -0.1702
  510loPI   C6A 8156   4.293  14.996   8.021  0.1691 -0.0722 -0.2330
  510loPI   C1B 8157   5.043  13.870   9.152 -0.3321 -0.1906  0.1141
  510loPI   C2B 8158   5.080  13.767   8.727  0.0376 -0.0193 -0.1339
  510loPI   C3B 8159   5.061  13.508   8.219 -0.0197  0.1740  0.1185
  510loPI   C4B 8160   5.149  13.777   7.879 -0.5300 -0.2456 -0.1632
  511loPI    C1 8161  13.853  14.238   9.960  0.0586 -0.0380  0.1932
  511loPI    C2 8162  13.673  14.413  10.271 -0.1980 -0.0891  0.0761
  511loPI    C3 8163  13.605  14.027  10.192  0.0452 -0.1367  0.0897
  511loPI   PO4 8164  13.831  14.474   9.726  0.0631  0.3140  0.0088
  511loPI   GL1 8165  13.869  14.499   9.212  0.0154  0.0626 -0.0019
  511loPI   GL2 8166  13.868  14.825   9.287  0.1162  0.0966  0.3894
  511loPI   C1A 8167  13.636  14.632   8.852 -0.1126  0.0910 -0.1974
  511loPI   C2A 8168  13.396  14.546   8.419 -0.0519 -0.2070  0.4335
  511loPI   C3A 8169  13.521  14.449   7.979  0.0316 -0.0045 -0.1070
  511loPI   C4A 8170  13.925  14.379   7.838  0.0624 -0.1615 -0.0811
  511loPI   C5A 8171  14.294  14.523   7.780 -0.3364  0.1151 -0.2238
  511loPI   C6A 8172  14.602  14.755   8.125 -0.0044 -0.1029 -0.0727
  511loPI   C1B 8173  14.194  15.087   9.166 -0.2699 -0.2845 -0.0273
  511loPI   C2B 8174  14.538  15.121   8.898  0.1281 -0.1836  0.1961
  511loPI   C3B 8175  14.714  15.154   8.507 -0.1698  0.3104  0.0717
  511loPI   C4B 8176  14.679  15.271   8.046  0.1349  0.1042 -0.0188
  512loPI    C1 8177   7.448  15.488  10.105  0.0474 -0.1097 -0.1833
  512loPI    C2 8178   7.437  15.344  10.478  0.3117  0.1962 -0.0520
  512loPI    C3 8179   7.121  15.539  10.329  0.1092 -0.1473 -0.0838
  512loPI   PO4 8180   7.639  15.555  10.077  0.1143  0.0010  0.0830
  512loPI   GL1 8181   7.779  15.507   9.691 -0.0391 -0.0387 -0.1927
  512loPI   GL2 8182   7.667  15.203   9.764 -0.1626 -0.0592  0.1801
  512loPI   C1A 8183   7.618  15.550   9.339  0.1220 -0.0465 -0.2024
  512loPI   C2A 8184   7.496  15.688   8.969 -0.1493  0.2115  0.0991
  512loPI   C3A 8185   7.599  15.640   8.580 -0.1926 -0.1972  0.1006
  512loPI   C4A 8186   7.606  15.631   8.127  0.3328 -0.3138  0.2912
  512loPI   C5A 8187   7.557  15.712   7.702  0.0387  0.0023  0.4163
  512loPI   C6A 8188   7.352  15.701   7.308 -0.1229 -0.0766  0.1324
  512loPI   C1B 8189   7.858  15.085   9.350 -0.0339 -0.2550 -0.1858
  512loPI   C2B 8190   7.777  15.263   8.881 -0.0184  0.1397  0.1236
  512loPI   C3B 8191   7.604  15.165   8.439 -0.0149  0.1442  0.3700
  512loPI   C4B 8192   7.492  15.134   7.979  0.1763 -0.0081  0.2937
  513loPI    C1 8193   4.979   0.016  10.287 -0.0573  0.2375 -0.0426
  513loPI    C2 8194   4.683   0.064  10.551  0.1294  0.3313  0.1529
  513loPI    C3 8195   5.062   0.121  10.664  0.2412 -0.0167 -0.0335
  513loPI   PO4 8196   4.887   0.079  10.049  0.0477  0.1928 -0.1350
  513loPI   GL1 8197   4.707  -0.058   9.640 -0.0865  0.0883  0.0164
  513loPI   GL2 8198   4.797   0.240   9.520  0.0406  0.0735 -0.1382
  513loPI   C1A 8199   4.367   0.020   9.327 -0.3225  0.0212  0.0496
  513loPI   C2A 8200   4.315   0.159   8.924 -0.0329 -0.1105  0.1455
  513loPI   C3A 8201   4.084   0.095   8.497  0.0043 -0.2614 -0.0991
  513loPI   C4A 8202   3.994   0.076   8.139 -0.1599  0.1062  0.0084
  513loPI   C5A 8203   4.270   0.315   7.894 -0.0196  0.1681  0.3403
  513loPI   C6A 8204   4.400   0.240   7.437 -0.2395  0.0887  0.0147
  513loPI   C1B 8205   4.833   0.194   9.089 -0.2188 -0.2558 -0.0382
  513loPI   C2B 8206   4.954   0.185   8.643 -0.0828 -0.2217  0.0456
  513loPI   C3B 8207   5.028   0.268   8.273  0.1625 -0.0856  0.0004
  513loPI   C4B 8208   5.342   0.351   8.059 -0.1351  0.1886  0.3560
  514loPI    C1 8209   8.272  16.853   9.971 -0.0819 -0.0358  0.0955
  514loPI    C2 8210   8.097  17.193  10.087 -0.1328 -0.0920  0.1848
  514loPI    C3 8211   8.483  17.127  10.172 -0.1072 -0.0314  0.1161
  514loPI   PO4 8212   8.174  16.857   9.732  0.0207 -0.1241  0.1664
  514loPI   GL1 8213   7.897  16.882   9.378  0.1668  0.0180  0.2342
  514loPI   GL2 8214   8.015  16.558   9.272  0.0997 -0.1586 -0.1179
  514loPI   C1A 8215   7.698  17.179   9.131  0.0847  0.1340  0.2107
  514loPI   C2A 8216   7.734  17.221   8.650 -0.1634  0.0809 -0.2794
  514loPI   C3A 8217   7.967  17.444   8.434  0.2667  0.1506  0.0872
  514loPI   C4A 8218   8.092  17.391   8.082  0.0681  0.1166  0.1285
  514loPI   C5A 8219   7.903  17.063   7.647 -0.1027  0.1852 -0.0593
  514loPI   C6A 8220   7.826  16.566   7.517  0.2159  0.0693  0.1116
  514loPI   C1B 8221   7.945  16.729   8.840  0.0016  0.1617  0.1493
  514loPI   C2B 8222   7.893  16.734   8.378  0.0450  0.1875  0.0079
  514loPI   C3B 8223   7.670  16.690   8.022 -0.0939 -0.1596  0.0969
  514loPI   C4B 8224   7.399  16.356   7.821 -0.1883 -0.1491 -0.3222
  515loPI    C1 8225   4.205  10.550  10.322  0.0746 -0.0006 -0.0020
  515loPI    C2 8226   4.061  10.537  10.695 -0.0162  0.0944 -0.0333
  515loPI    C3 8227   4.186  10.884  10.541 -0.0237  0.0641 -0.1081
  515loPI   PO4 8228   4.109  10.529  10.129  0.0138 -0.1977  0.0216
  515loPI   GL1 8229   3.936  10.833   9.893 -0.0200  0.0048 -0.1895
  515loPI   GL2 8230   4.169  10.752   9.706  0.0968 -0.0842  0.0384
  515loPI   C1A 8231   3.689  11.001   9.632 -0.0194  0.1405 -0.1901
  515loPI   C2A 8232   3.702  11.195   9.198 -0.2630 -0.1936 -0.0040
  515loPI   C3A 8233   3.736  11.217   8.717  0.1122 -0.3020 -0.1349
  515loPI   C4A 8234   3.832  11.392   8.370 -0.1719 -0.2428  0.1580
  515loPI   C5A 8235   4.016  11.524   8.023 -0.3085 -0.0222 -0.2305
  515loPI   C6A 8236   4.333  11.535   7.678 -0.3314  0.1435  0.1683
  515loPI   C1B 8237   4.073  10.841   9.338  0.2168 -0.3021  0.1580
  515loPI   C2B 8238   3.941  10.856   8.939  0.2144  0.0151  0.0735
  515loPI   C3B 8239   3.997  10.876   8.472  0.2748  0.0648 -0.3913
  515loPI   C4B 8240   4.301  11.062   8.118  0.0668 -0.2749 -0.0681
  516loPI    C1 8241  17.291  10.850  10.437  0.0097 -0.0089  0.2739
  516loPI    C2 8242  17.300  10.600  10.749  0.0944 -0.4183 -0.0482
  516loPI    C3 8243  17.628  10.653  10.526  0.0498 -0.0875 -0.0393
  516loPI   PO4 8244  17.127  10.738  10.275 -0.0152  0.2928 -0.0884
  516loPI   GL1 8245  17.386  10.546  10.020 -0.0697  0.2791  0.0963
  516loPI   GL2 8246  17.063  10.370   9.891  0.1072 -0.0492  0.1052
  516loPI   C1A 8247  17.598  10.644   9.687  0.2006 -0.2014 -0.1316
  516loPI   C2A 8248  17.704  10.783   9.270  0.1398 -0.1553 -0.1541
  516loPI   C3A 8249  17.668  10.898   8.893  0.0261 -0.0814  0.0727
  516loPI   C4A 8250  17.757  10.976   8.388  0.0245  0.2564  0.3928
  516loPI   C5A 8251  17.769  10.971   7.940  0.2440  0.1354 -0.0222
  516loPI   C6A 8252  17.533  10.740   7.706  0.2571  0.0161 -0.2094
  516loPI   C1B 8253  17.101  10.457   9.598 -0.2134  0.2568  0.1814
  516loPI   C2B 8254  17.274  10.483   9.286  0.1834 -0.1679 -0.1559
  516loPI   C3B 8255  17.338  10.577   8.949 -0.0334 -0.1239  0.0237
  516loPI   C4B 8256  17.347  10.675   8.463  0.1976 -0.2111 -0.0919
  517loPI    C1 8257   1.131  12.569  10.364 -0.0501 -0.0206 -0.0899
  517loPI    C2 8258   1.033  12.205  10.497 -0.0405  0.0714  0.1734
  517loPI    C3 8259   1.413  12.329  10.513 -0.0343  0.0726  0.0314
  517loPI   PO4 8260   0.972  12.612  10.260  0.0885  0.1098  0.0541
  517loPI   GL1 8261   0.967  12.618   9.825 -0.3346  0.2294  0.1559
  517loPI   GL2 8262   0.865  12.333   9.662 -0.0433 -0.1336 -0.0755
  517loPI   C1A 8263   1.138  12.841   9.542  0.0694 -0.0421 -0.1930
  517loPI   C2A 8264   1.184  12.867   9.116  0.0009  0.0303 -0.1464
  517loPI   C3A 8265   1.284  13.126   8.843  0.0744  0.0662  0.1545
  517loPI   C4A 8266   1.338  13.301   8.374  0.0715 -0.4369 -0.0137
  517loPI   C5A 8267   1.521  13.263   7.983 -0.2578  0.5056  0.0240
  517loPI   C6A 8268   1.521  13.297   7.564 -0.2608  0.0740 -0.0448
  517loPI   C1B 8269   1.119  12.418   9.293  0.0030 -0.0180  0.2340
  517loPI   C2B 8270   1.079  12.444   8.869 -0.0423  0.2104  0.2742
  517loPI   C3B 8271   1.155  12.778   8.535  0.1007  0.0118 -0.3274
  517loPI   C4B 8272   1.059  12.945   8.150  0.4051  0.1245 -0.0049
  518loPI    C1 8273  14.939  10.091   9.980 -0.2426 -0.0505  0.2115
  518loPI    C2 8274  15.221  10.164  10.254  0.0701 -0.0043 -0.1156
  518loPI    C3 8275  14.991  10.462  10.119 -0.0827 -0.0267  0.0904
  518loPI   PO4 8276  15.022   9.895   9.858  0.1740  0.1017  0.1433
  518loPI   GL1 8277  14.875   9.717   9.400  0.1323  0.0729  0.1908
  518loPI   GL2 8278  15.077   9.518   9.507  0.0490 -0.2147 -0.1396
  518loPI   C1A 8279  14.862   9.782   8.933  0.1611 -0.0040 -0.1987
  518loPI   C2A 8280  14.986   9.841   8.554  0.0355  0.1049 -0.0703
  518loPI   C3A 8281  15.292   9.582   8.353  0.0027 -0.0597 -0.0059
  518loPI   C4A 8282  15.322   9.338   8.008 -0.1314  0.1136 -0.2489
  518loPI   C5A 8283  15.466   9.671   7.746  0.2800 -0.0933  0.2760
  518loPI   C6A 8284  15.389   9.878   7.364  0.1252  0.1914  0.3022
  518loPI   C1B 8285  15.248   9.501   9.137 -0.4031 -0.0522  0.2255
  518loPI   C2B 8286  15.576   9.439   8.897  0.0945  0.2106  0.0355
  518loPI   C3B 8287  15.754   9.340   8.538  0.4202 -0.0845  0.0413
  518loPI   C4B 8288  16.088   9.098   8.256  0.0841 -0.3533 -0.2101
  519loPI    C1 8289   8.454   8.675  10.536 -0.0245 -0.1554 -0.0601
  519loPI    C2 8290   8.562   8.319  10.390  0.0099 -0.2777  0.2561
  519loPI    C3 8291   8.370   8.342  10.741  0.0192  0.0165  0.2442
  519loPI   PO4 8292   8.350   8.753  10.282 -0.2307  0.0066 -0.1346
  519loPI   GL1 8293   8.477   8.610   9.897  0.3963  0.0290  0.2225
  519loPI   GL2 8294   8.761   8.417   9.964  0.0964  0.1713  0.2265
  519loPI   C1A 8295   8.481   8.734   9.478 -0.1366  0.0107 -0.4448
  519loPI   C2A 8296   8.420   8.741   9.061 -0.1496  0.3611 -0.1933
  519loPI   C3A 8297   8.548   8.841   8.654 -0.0893  0.1451  0.1222
  519loPI   C4A 8298   8.530   8.644   8.236 -0.0463  0.0219  0.1930
  519loPI   C5A 8299   8.827   8.577   7.865 -0.0673  0.0789  0.2051
  519loPI   C6A 8300   9.085   8.243   7.726 -0.1496 -0.0522 -0.0039
  519loPI   C1B 8301   8.735   8.283   9.527 -0.0962  0.2534  0.0720
  519loPI   C2B 8302   8.833   8.401   9.093  0.1037  0.1130  0.2903
  519loPI   C3B 8303   8.888   8.511   8.588 -0.0633 -0.2055  0.0724
  519loPI   C4B 8304   9.149   8.647   8.253  0.4314 -0.2154  0.0332
  520loPI    C1 8305   6.184  15.274  10.333  0.0298  0.1744 -0.1481
  520loPI    C2 8306   6.565  15.394  10.321  0.0473  0.1367 -0.0023
  520loPI    C3 8307   6.294  15.610  10.520  0.0019  0.1375 -0.0647
  520loPI   PO4 8308   6.184  15.224  10.111 -0.1741  0.0065 -0.1316
  520loPI   GL1 8309   6.149  15.308   9.717 -0.1583 -0.1097 -0.2468
  520loPI   GL2 8310   6.404  15.454   9.558 -0.2619  0.2910 -0.3048
  520loPI   C1A 8311   5.957  15.186   9.384  0.0937 -0.0424  0.0553
  520loPI   C2A 8312   5.892  15.018   9.008 -0.2974  0.1702 -0.2716
  520loPI   C3A 8313   5.963  14.883   8.622  0.0602 -0.2457 -0.0112
  520loPI   C4A 8314   5.850  15.100   8.194  0.1728 -0.1204 -0.1819
  520loPI   C5A 8315   5.687  15.342   7.885  0.1276  0.2257  0.3352
  520loPI   C6A 8316   5.364  15.187   7.727  0.1200 -0.0258 -0.1264
  520loPI   C1B 8317   6.288  15.392   9.081  0.0180 -0.0285  0.0053
  520loPI   C2B 8318   6.183  15.315   8.575  0.2017 -0.0779 -0.0642
  520loPI   C3B 8319   6.161  15.491   8.226  0.1534 -0.0032  0.1992
  520loPI   C4B 8320   6.097  15.681   7.850  0.0850  0.0570 -0.2585
  521loPI    C1 8321   5.143   1.786  10.256  0.1579 -0.0767  0.1045
  521loPI    C2 8322   5.363   1.486  10.403  0.0242 -0.1593  0.1375
  521loPI    C3 8323   4.964   1.464  10.411  0.0128  0.0535  0.2103
  521loPI   PO4 8324   5.291   1.833   9.946  0.1877  0.1387  0.2906
  521loPI   GL1 8325   5.185   1.835   9.576 -0.0422 -0.0581  0.0971
  521loPI   GL2 8326   5.226   1.608   9.453  0.0484  0.0911  0.0670
  521loPI   C1A 8327   4.887   1.944   9.229  0.1629 -0.1955 -0.2484
  521loPI   C2A 8328   4.844   1.955   8.815  0.0683 -0.2696 -0.2022
  521loPI   C3A 8329   4.817   1.975   8.326  0.3943 -0.3203  0.1832
  521loPI   C4A 8330   4.809   1.530   8.219 -0.0244  0.1152  0.3239
  521loPI   C5A 8331   4.719   1.289   7.845 -0.0418  0.1731 -0.1018
  521loPI   C6A 8332   4.806   1.052   7.480 -0.0548  0.1125  0.0378
  521loPI   C1B 8333   5.517   1.663   9.070 -0.0839 -0.0374  0.1139
  521loPI   C2B 8334   5.710   1.630   8.685  0.2906  0.0078  0.0614
  521loPI   C3B 8335   5.616   1.518   8.264  0.0706  0.1173 -0.0693
  521loPI   C4B 8336   5.691   1.296   7.831 -0.2395  0.0354 -0.4639
  522loPI    C1 8337   9.698   9.237  10.444 -0.1960 -0.0936 -0.2584
  522loPI    C2 8338   9.527   9.597  10.411 -0.0858 -0.0037  0.0996
  522loPI    C3 8339   9.397   9.338  10.687  0.2203 -0.0104  0.2417
  522loPI   PO4 8340   9.732   9.131  10.170 -0.0980 -0.1492 -0.2634
  522loPI   GL1 8341   9.937   9.003   9.747  0.0789 -0.0453 -0.0716
  522loPI   GL2 8342   9.913   9.338   9.633  0.1685  0.1388 -0.0872
  522loPI   C1A 8343  10.115   8.994   9.358  0.1476 -0.1010  0.4544
  522loPI   C2A 8344  10.239   8.839   8.949 -0.1634  0.2816  0.2054
  522loPI   C3A 8345  10.176   8.753   8.633 -0.0141  0.0527  0.0057
  522loPI   C4A 8346   9.775   8.689   8.469 -0.0218  0.1665  0.3762
  522loPI   C5A 8347   9.550   8.447   8.110  0.1760  0.1109 -0.0470
  522loPI   C6A 8348   9.609   8.160   7.704  0.0143 -0.1878  0.0673
  522loPI   C1B 8349   9.686   9.355   9.212 -0.1569 -0.1272 -0.0709
  522loPI   C2B 8350   9.633   9.567   8.847  0.2139  0.1781  0.0038
  522loPI   C3B 8351   9.657   9.482   8.467  0.0200 -0.2173 -0.2117
  522loPI   C4B 8352   9.691   9.452   7.947 -0.1078  0.1927  0.3747
  523loPI    C1 8353   7.395  11.399  10.195 -0.2220 -0.0046  0.2022
  523loPI    C2 8354   7.557  11.096  10.401  0.0047  0.0855  0.1580
  523loPI    C3 8355   7.471  11.440  10.586  0.1468  0.1432  0.1182
  523loPI   PO4 8356   7.219  11.306   9.993 -0.2097 -0.4835  0.2838
  523loPI   GL1 8357   7.215  11.103   9.671 -0.0597  0.0429 -0.0914
  523loPI   GL2 8358   7.401  10.821   9.607  0.1829  0.3073  0.0677
  523loPI   C1A 8359   7.031  11.224   9.257 -0.0693 -0.0135  0.0014
  523loPI   C2A 8360   6.773  11.268   8.865  0.1373 -0.0434 -0.0131
  523loPI   C3A 8361   6.575  11.222   8.536  0.2516 -0.1017 -0.0068
  523loPI   C4A 8362   6.384  11.274   8.178  0.5075  0.1462  0.1007
  523loPI   C5A 8363   6.141  11.492   7.898  0.0535 -0.2408  0.1844
  523loPI   C6A 8364   5.951  11.595   7.396 -0.0854 -0.3224  0.0218
  523loPI   C1B 8365   7.460  10.764   9.173 -0.0382 -0.1568 -0.1303
  523loPI   C2B 8366   7.562  10.597   8.734 -0.0751 -0.0858 -0.2235
  523loPI   C3B 8367   7.528  10.443   8.487  0.1684 -0.2411 -0.1026
  523loPI   C4B 8368   7.317  10.425   8.082  0.1272 -0.3439  0.1857
  524loPI    C1 8369  10.038   0.148  10.271 -0.1802  0.0206 -0.4202
  524loPI    C2 8370  10.003   0.452  10.529  0.1784 -0.2538 -0.0329
  524loPI    C3 8371   9.719   0.170  10.513  0.0837 -0.1586 -0.0455
  524loPI   PO4 8372  10.175   0.247  10.074  0.0473 -0.0075 -0.2098
  524loPI   GL1 8373  10.376   0.357   9.806 -0.0183  0.2848  0.1546
  524loPI   GL2 8374  10.288   0.012   9.553  0.1431 -0.1295  0.0003
  524loPI   C1A 8375  10.214   0.634   9.461 -0.1183 -0.4106  0.1066
  524loPI   C2A 8376  10.411   0.805   9.192 -0.1850 -0.1458  0.1653
  524loPI   C3A 8377  10.511   0.838   8.779 -0.0052 -0.0503  0.1200
  524loPI   C4A 8378  10.258   1.014   8.488 -0.0421  0.0971  0.0944
  524loPI   C5A 8379  10.223   1.073   8.071 -0.1072  0.2052 -0.0920
  524loPI   C6A 8380   9.873   1.058   7.844 -0.3075 -0.1105  0.1715
  524loPI   C1B 8381  10.473   0.139   9.141 -0.3545  0.0164  0.0426
  524loPI   C2B 8382  10.599   0.299   8.776 -0.1322  0.0197 -0.1853
  524loPI   C3B 8383  10.518   0.153   8.364 -0.2290  0.0361  0.0426
  524loPI   C4B 8384  10.392   0.026   7.961  0.3543 -0.2359 -0.1443
  525loPI    C1 8385  15.874  13.859  10.734 -0.1209  0.1439 -0.3167
  525loPI    C2 8386  15.485  13.930  10.793 -0.0534 -0.0299  0.4426
  525loPI    C3 8387  15.759  14.177  10.947  0.1444 -0.0249  0.0920
  525loPI   PO4 8388  15.917  13.763  10.419  0.1015  0.3132  0.2407
  525loPI   GL1 8389  15.986  13.834   9.989 -0.0051 -0.3597 -0.1148
  525loPI   GL2 8390  15.704  14.092   9.955  0.1415  0.0161 -0.3687
  525loPI   C1A 8391  16.042  13.565   9.685  0.0584  0.0921 -0.1780
  525loPI   C2A 8392  16.242  13.742   9.262  0.1431  0.1463 -0.3477
  525loPI   C3A 8393  16.130  13.873   8.902  0.1041 -0.0790  0.4709
  525loPI   C4A 8394  16.287  14.030   8.594 -0.1863  0.0073 -0.0235
  525loPI   C5A 8395  16.350  14.142   8.134 -0.1624 -0.0865 -0.0223
  525loPI   C6A 8396  16.539  14.234   7.723 -0.1549 -0.3553  0.0295
  525loPI   C1B 8397  15.860  14.033   9.517 -0.1007 -0.0503  0.1318
  525loPI   C2B 8398  15.745  14.084   9.171 -0.0784  0.2572  0.1882
  525loPI   C3B 8399  15.696  14.020   8.715 -0.5517  0.1680  0.3243
  525loPI   C4B 8400  15.441  13.706   8.534 -0.0843 -0.2232  0.0197
  526loPI    C1 8401  12.863  17.010  10.171 -0.1521  0.1082  0.3023
  526loPI    C2 8402  12.916  17.342  10.388 -0.1487  0.2012  0.1612
  526loPI    C3 8403  13.059  16.991  10.519 -0.0296  0.2798  0.2439
  526loPI   PO4 8404  12.951  17.053   9.798 -0.2454 -0.0566 -0.2621
  526loPI   GL1 8405  12.882  16.727   9.494 -0.0295  0.0648  0.2484
  526loPI   GL2 8406  13.059  16.434   9.364  0.2901  0.1430  0.0309
  526loPI   C1A 8407  13.070  16.893   9.153 -0.0317 -0.3196 -0.0672
  526loPI   C2A 8408  12.984  16.942   8.683 -0.0522 -0.1310  0.1517
  526loPI   C3A 8409  12.889  16.743   8.212 -0.2794 -0.1931  0.0456
  526loPI   C4A 8410  12.833  16.465   7.911  0.0494  0.1280 -0.2788
  526loPI   C5A 8411  12.863  16.128   7.635  0.1481 -0.0076  0.0946
  526loPI   C6A 8412  13.119  15.974   7.290 -0.0684  0.4911 -0.2954
  526loPI   C1B 8413  12.984  16.455   8.898  0.0302 -0.2909 -0.0627
  526loPI   C2B 8414  13.080  16.249   8.436  0.3633 -0.0062 -0.2120
  526loPI   C3B 8415  12.882  15.944   8.175  0.4095 -0.0740 -0.1186
  526loPI   C4B 8416  12.515  15.841   7.896 -0.4923  0.0954 -0.1082
  527loPI    C1 8417   4.370   9.220  10.562 -0.0634 -0.1686 -0.3352
  527loPI    C2 8418   4.052   9.295  10.791  0.1244 -0.3285 -0.0141
  527loPI    C3 8419   4.342   9.568  10.756 -0.0436 -0.1819 -0.3084
  527loPI   PO4 8420   4.167   9.046  10.371  0.0186 -0.3146 -0.1032
  527loPI   GL1 8421   4.106   9.100   9.911  0.2672 -0.3712 -0.3521
  527loPI   GL2 8422   4.343   8.884   9.904 -0.3152  0.0699 -0.1652
  527loPI   C1A 8423   4.484   9.333   9.621 -0.1889  0.1698  0.1142
  527loPI   C2A 8424   4.531   9.356   9.129 -0.0351 -0.0549  0.2917
  527loPI   C3A 8425   4.455   9.353   8.690  0.2420 -0.3495 -0.0756
  527loPI   C4A 8426   4.392   9.488   8.285  0.2978  0.0725 -0.2274
  527loPI   C5A 8427   4.256   9.739   7.971 -0.0841 -0.2534 -0.1279
  527loPI   C6A 8428   3.858   9.878   7.809  0.0093  0.1415  0.0866
  527loPI   C1B 8429   4.355   8.537   9.508 -0.1047  0.0969  0.0648
  527loPI   C2B 8430   4.603   8.464   9.131  0.2629 -0.3234 -0.0499
  527loPI   C3B 8431   4.518   8.397   8.708 -0.2782  0.0147 -0.1496
  527loPI   C4B 8432   4.712   8.448   8.298 -0.0285  0.3587 -0.3130
  528loPI    C1 8433  16.214   3.001  10.276 -0.0918 -0.1645 -0.1181
  528loPI    C2 8434  16.078   3.327  10.086  0.1115  0.0366  0.0758
  528loPI    C3 8435  16.170   3.345  10.475  0.0414 -0.2776  0.1101
  528loPI   PO4 8436  16.365   2.924  10.006 -0.1414  0.2744  0.1385
  528loPI   GL1 8437  16.316   2.782   9.593  0.5051  0.0355 -0.1958
  528loPI   GL2 8438  16.151   2.593   9.707 -0.3029  0.2497 -0.2022
  528loPI   C1A 8439  16.463   2.854   9.091  0.1107 -0.0759  0.3449
  528loPI   C2A 8440  16.377   2.843   8.598 -0.2564 -0.0094 -0.2737
  528loPI   C3A 8441  16.191   2.988   8.248  0.0042 -0.0741 -0.1740
  528loPI   C4A 8442  16.122   3.285   8.054  0.2245 -0.1363 -0.0820
  528loPI   C5A 8443  16.006   3.533   7.812  0.0517 -0.1181  0.0015
  528loPI   C6A 8444  15.854   3.743   7.383  0.0550  0.1074 -0.3644
  528loPI   C1B 8445  16.053   2.430   9.297  0.0423 -0.3214  0.1301
  528loPI   C2B 8446  16.074   2.588   8.883 -0.0833 -0.2995 -0.1511
  528loPI   C3B 8447  16.037   2.508   8.392 -0.0693 -0.2136 -0.0878
  528loPI   C4B 8448  15.939   2.470   7.889  0.0988  0.1200 -0.0124
  529loPI    C1 8449  17.801   1.550  10.295  0.0398 -0.0884  0.1056
  529loPI    C2 8450  18.130   1.777  10.288 -0.0345  0.0207  0.1167
  529loPI    C3 8451  17.769   1.949  10.289 -0.0933 -0.1003 -0.0148
  529loPI   PO4 8452  17.779   1.462  10.120 -0.0457  0.1065  0.0832
  529loPI   GL1 8453  17.731   1.504   9.663 -0.4636  0.0773 -0.0417
  529loPI   GL2 8454  17.500   1.441   9.587 -0.1732  0.1276  0.1776
  529loPI   C1A 8455  17.843   1.190   9.412 -0.1879 -0.1746 -0.2436
  529loPI   C2A 8456  18.015   1.196   9.059  0.2999 -0.0603 -0.0527
  529loPI   C3A 8457  18.342   1.202   8.918 -0.1639  0.1772 -0.1847
  529loPI   C4A 8458  18.670   1.433   8.803 -0.1353  0.1253  0.0322
  529loPI   C5A 8459  18.901   1.460   8.418  0.3260  0.0435  0.0386
  529loPI   C6A 8460  18.904   1.560   7.969  0.2163 -0.2183  0.0722
  529loPI   C1B 8461  17.388   1.297   9.229 -0.3551 -0.1651 -0.0819
  529loPI   C2B 8462  17.095   1.025   8.939  0.0297 -0.1084 -0.2578
  529loPI   C3B 8463  16.642   0.881   8.951 -0.1630 -0.2721 -0.2086
  529loPI   C4B 8464  16.381   0.990   8.662 -0.0395 -0.0971  0.0064
  530loPI    C1 8465  15.230  12.732  10.215 -0.1089 -0.0154  0.0474
  530loPI    C2 8466  15.558  12.899  10.058 -0.0310 -0.0148  0.2084
  530loPI    C3 8467  15.590  12.573  10.287 -0.1549 -0.0818  0.1313
  530loPI   PO4 8468  15.007  12.671  10.003  0.0125  0.1840  0.3353
  530loPI   GL1 8469  14.943  12.853   9.570 -0.0487  0.3220  0.1661
  530loPI   GL2 8470  14.949  12.534   9.540  0.0027  0.1861  0.2643
  530loPI   C1A 8471  14.965  13.000   9.152 -0.0054  0.5249  0.0945
  530loPI   C2A 8472  14.936  13.093   8.798  0.2902 -0.0525  0.0256
  530loPI   C3A 8473  15.089  13.309   8.404  0.1232  0.0216 -0.0235
  530loPI   C4A 8474  15.142  13.142   8.021 -0.5388  0.0648 -0.0781
  530loPI   C5A 8475  15.351  13.075   7.700 -0.1507 -0.1303  0.1393
  530loPI   C6A 8476  15.801  13.165   7.612 -0.1227  0.1776 -0.1390
  530loPI   C1B 8477  14.912  12.502   9.140  0.0965  0.0678 -0.0688
  530loPI   C2B 8478  14.918  12.583   8.767 -0.4300 -0.0671 -0.1413
  530loPI   C3B 8479  15.002  12.706   8.333 -0.0541 -0.1228 -0.0727
  530loPI   C4B 8480  14.961  12.716   7.833  0.0033 -0.0512 -0.2831
  531loPI    C1 8481  18.400  12.957  10.342  0.3877 -0.0992  0.1054
  531loPI    C2 8482  18.756  12.789  10.267  0.2193 -0.3709 -0.1054
  531loPI    C3 8483  18.425  12.564  10.275  0.0221 -0.0883 -0.1246
  531loPI   PO4 8484  18.397  13.188  10.209  0.3160 -0.0636 -0.0419
  531loPI   GL1 8485  18.563  13.267   9.765 -0.1856  0.2153 -0.0746
  531loPI   GL2 8486  18.526  12.929   9.745 -0.1377  0.0868 -0.2823
  531loPI   C1A 8487  18.533  13.457   9.345  0.1890 -0.2110  0.2409
  531loPI   C2A 8488  18.660  13.521   8.910  0.0369  0.0475  0.1350
  531loPI   C3A 8489  18.731  13.543   8.505  0.2126 -0.0950  0.1002
  531loPI   C4A 8490  18.867  13.609   8.083 -0.0360  0.0617  0.0292
  531loPI   C5A 8491  18.867  13.892   7.745 -0.0339  0.0601  0.1547
  531loPI   C6A 8492  19.076  14.178   7.527 -0.0337  0.3196  0.1396
  531loPI   C1B 8493  18.764  13.000   9.295 -0.1190 -0.1771  0.2706
  531loPI   C2B 8494  18.770  13.081   8.826  0.0850  0.2927  0.1081
  531loPI   C3B 8495  18.711  13.062   8.370 -0.0912  0.2510 -0.3859
  531loPI   C4B 8496  18.801  13.120   8.073 -0.2130 -0.0641  0.1247
  532loPI    C1 8497   9.903   4.663  10.618 -0.2145  0.0342 -0.1445
  532loPI    C2 8498   9.574   4.888  10.658 -0.0716  0.1857  0.2161
  532loPI    C3 8499   9.705   4.667  10.965 -0.0903 -0.2315 -0.0677
  532loPI   PO4 8500   9.983   4.711  10.340 -0.0897  0.0089  0.0149
  532loPI   GL1 8501   9.756   4.838   9.940  0.0858  0.0521  0.2033
  532loPI   GL2 8502  10.037   5.063   9.916 -0.4355  0.1799 -0.1747
  532loPI   C1A 8503   9.696   4.957   9.548 -0.0979 -0.0865 -0.0718
  532loPI   C2A 8504   9.636   5.253   9.274 -0.1889  0.0487 -0.1084
  532loPI   C3A 8505   9.699   5.197   8.823 -0.1084 -0.0017 -0.0026
  532loPI   C4A 8506   9.913   5.231   8.496  0.3279  0.2431  0.2460
  532loPI   C5A 8507   9.796   5.496   8.152 -0.0658 -0.0603  0.1324
  532loPI   C6A 8508   9.482   5.500   7.792  0.2979  0.0191 -0.1958
  532loPI   C1B 8509  10.168   5.150   9.447  0.0870  0.0007 -0.0421
  532loPI   C2B 8510  10.235   5.327   9.021 -0.2203 -0.0771  0.1251
  532loPI   C3B 8511  10.291   5.533   8.747 -0.0334  0.1340  0.0780
  532loPI   C4B 8512  10.238   5.650   8.387  0.3997 -0.2364  0.0691
  533loPI    C1 8513   9.021   3.154  10.611 -0.0821  0.1300 -0.2570
  533loPI    C2 8514   8.626   3.163  10.668 -0.0599 -0.0827 -0.0553
  533loPI    C3 8515   8.863   3.408  10.876 -0.0676 -0.1138 -0.0097
  533loPI   PO4 8516   9.023   3.171  10.339 -0.1964  0.1937 -0.1086
  533loPI   GL1 8517   8.795   3.324   9.934  0.0904  0.2323  0.2011
  533loPI   GL2 8518   8.538   3.239   9.705  0.2377 -0.0531 -0.1555
  533loPI   C1A 8519   8.976   3.483   9.592 -0.1453 -0.2340  0.0754
  533loPI   C2A 8520   9.214   3.515   9.213 -0.2217  0.0575 -0.0269
  533loPI   C3A 8521   9.438   3.716   8.932  0.0251 -0.0865  0.2010
  533loPI   C4A 8522   9.686   3.700   8.589 -0.1851  0.2302  0.2594
  533loPI   C5A 8523   9.840   3.920   8.238 -0.0734 -0.1194 -0.2584
  533loPI   C6A 8524   9.964   4.205   7.899 -0.1341 -0.0230 -0.0119
  533loPI   C1B 8525   8.572   3.492   9.290 -0.0380 -0.1699 -0.1736
  533loPI   C2B 8526   8.561   3.478   8.864 -0.0986 -0.1510 -0.1436
  533loPI   C3B 8527   8.647   3.708   8.426  0.3652 -0.1032  0.0331
  533loPI   C4B 8528   8.498   3.458   8.056 -0.1216 -0.3067  0.0611
  534loPI    C1 8529  16.363  11.253  10.603 -0.0986  0.0580 -0.3810
  534loPI    C2 8530  16.009  11.403  10.712 -0.0359 -0.0875  0.0377
  534loPI    C3 8531  16.345  11.544  10.877  0.0650 -0.2833  0.0027
  534loPI   PO4 8532  16.311  11.252  10.304  0.0454 -0.1032 -0.3501
  534loPI   GL1 8533  16.416  11.533   9.883  0.1684  0.2126 -0.3036
  534loPI   GL2 8534  16.423  11.222   9.844 -0.3618 -0.1445  0.1979
  534loPI   C1A 8535  16.483  11.641   9.502  0.3929 -0.1081 -0.1257
  534loPI   C2A 8536  16.616  11.699   9.023 -0.1119  0.0307  0.0068
  534loPI   C3A 8537  16.755  11.860   8.642 -0.4100  0.0598 -0.0155
  534loPI   C4A 8538  16.661  12.055   8.303 -0.0797  0.0905 -0.1658
  534loPI   C5A 8539  16.932  11.958   7.972  0.2789  0.3588 -0.1645
  534loPI   C6A 8540  17.239  11.985   7.619  0.4436  0.1013  0.2307
  534loPI   C1B 8541  16.639  11.166   9.464 -0.1139  0.1810 -0.1007
  534loPI   C2B 8542  16.676  11.139   9.018  0.1295  0.3071 -0.1800
  534loPI   C3B 8543  16.749  11.324   8.618 -0.2182 -0.3108 -0.0134
  534loPI   C4B 8544  16.832  11.437   8.206  0.0767 -0.0866  0.0051
  535loPI    C1 8545   9.331   1.206  10.458  0.0654 -0.1858 -0.0604
  535loPI    C2 8546   9.634   1.047  10.666  0.0321  0.2918  0.3735
  535loPI    C3 8547   9.259   1.015  10.802 -0.1205 -0.2451 -0.1312
  535loPI   PO4 8548   9.220   1.143  10.234 -0.1264 -0.1250 -0.0470
  535loPI   GL1 8549   9.273   0.875   9.865 -0.0579 -0.0171  0.2471
  535loPI   GL2 8550   9.284   1.226   9.736 -0.0521  0.3081 -0.0920
  535loPI   C1A 8551   9.059   0.657   9.617  0.0344  0.1695  0.0598
  535loPI   C2A 8552   8.985   0.606   9.208  0.0857  0.1541  0.1199
  535loPI   C3A 8553   8.998   0.419   8.871  0.0206 -0.0865  0.0485
  535loPI   C4A 8554   8.987   0.506   8.507  0.2424 -0.2012  0.1729
  535loPI   C5A 8555   8.809   0.456   8.156  0.0877  0.2445  0.0323
  535loPI   C6A 8556   8.784   0.199   7.727 -0.1153  0.1899  0.2931
  535loPI   C1B 8557   9.303   1.102   9.297 -0.2173 -0.2486 -0.1837
  535loPI   C2B 8558   9.503   1.239   8.884 -0.0097 -0.4629 -0.0305
  535loPI   C3B 8559   9.501   1.377   8.500 -0.0753 -0.0348 -0.0798
  535loPI   C4B 8560   9.572   1.563   8.054 -0.1501  0.2841  0.1403
  536loPI    C1 8561   3.746   2.824  10.422  0.2598  0.1029 -0.2554
  536loPI    C2 8562   3.778   3.060  10.743  0.1963  0.0129 -0.1822
  536loPI    C3 8563   3.803   2.663  10.784 -0.1878 -0.0198 -0.2333
  536loPI   PO4 8564   3.570   2.912  10.313  0.3625 -0.1111  0.1300
  536loPI   GL1 8565   3.264   2.739   9.871  0.2202  0.1596  0.1496
  536loPI   GL2 8566   3.328   2.477   9.864 -0.0007  0.5028  0.1199
  536loPI   C1A 8567   3.317   2.816   9.438 -0.3380  0.0496 -0.0723
  536loPI   C2A 8568   3.416   2.853   8.994 -0.0647 -0.0379 -0.1048
  536loPI   C3A 8569   3.449   2.975   8.476  0.2587  0.1651 -0.0618
  536loPI   C4A 8570   3.539   2.752   8.025 -0.1229 -0.3241 -0.1202
  536loPI   C5A 8571   3.903   2.543   7.855 -0.2508 -0.1715 -0.0792
  536loPI   C6A 8572   3.887   2.232   7.565  0.0461 -0.0282 -0.0149
  536loPI   C1B 8573   3.054   2.391   9.511 -0.1432 -0.0169 -0.0524
  536loPI   C2B 8574   3.047   2.457   9.101 -0.0046  0.0237  0.1006
  536loPI   C3B 8575   3.190   2.455   8.671 -0.3033  0.0901 -0.1949
  536loPI   C4B 8576   3.092   2.535   8.253  0.2687 -0.0477 -0.0752
  537loPI    C1 8577   7.892   8.524  10.522 -0.0261 -0.1143 -0.1746
  537loPI    C2 8578   8.025   8.830  10.744  0.2278 -0.1319 -0.2984
  537loPI    C3 8579   7.632   8.774  10.694  0.1656 -0.1458  0.1695
  537loPI   PO4 8580   8.022   8.368  10.418  0.1712  0.1970  0.0460
  537loPI   GL1 8581   8.191   8.309  10.077  0.2779 -0.0543  0.0044
  537loPI   GL2 8582   8.311   8.103   9.801 -0.0319 -0.2004 -0.1625
  537loPI   C1A 8583   7.804   8.030   9.796  0.1758  0.1074 -0.2757
  537loPI   C2A 8584   7.637   8.135   9.324 -0.1605  0.2345 -0.0734
  537loPI   C3A 8585   7.788   8.242   8.858  0.1812  0.0449 -0.3122
  537loPI   C4A 8586   7.764   8.100   8.471  0.1414 -0.1304  0.1874
  537loPI   C5A 8587   7.741   7.888   8.036  0.3302 -0.0640 -0.1522
  537loPI   C6A 8588   7.798   7.622   7.668 -0.0213 -0.0527 -0.1864
  537loPI   C1B 8589   8.210   8.286   9.476 -0.2535  0.0442 -0.0469
  537loPI   C2B 8590   8.302   8.263   9.079  0.0287  0.0147  0.0931
  537loPI   C3B 8591   8.454   8.210   8.672 -0.1723 -0.0292  0.1310
  537loPI   C4B 8592   8.221   8.209   8.239  0.2716 -0.1882  0.1033
  538loPI    C1 8593   0.287   8.716  10.726 -0.0219  0.5852  0.1056
  538loPI    C2 8594  -0.069   8.863  10.616 -0.1732  0.1662  0.0184
  538loPI    C3 8595  -0.001   8.770  10.999 -0.1358  0.3005  0.0449
  538loPI   PO4 8596   0.369   8.476  10.552 -0.0474 -0.1975  0.1329
  538loPI   GL1 8597   0.299   8.466  10.123  0.2769  0.0721 -0.1815
  538loPI   GL2 8598   0.265   8.117   9.927 -0.3445 -0.1359  0.1440
  538loPI   C1A 8599   0.622   8.518   9.798 -0.3395 -0.1909  0.2273
  538loPI   C2A 8600   0.658   8.651   9.355  0.1939 -0.0020 -0.1837
  538loPI   C3A 8601   0.637   8.650   8.854  0.1021 -0.0572  0.0517
  538loPI   C4A 8602   0.686   8.763   8.426 -0.3930 -0.0866  0.4528
  538loPI   C5A 8603   0.710   8.855   8.004 -0.1572 -0.1267 -0.0048
  538loPI   C6A 8604   0.894   8.640   7.617  0.0756  0.3290  0.2015
  538loPI   C1B 8605   0.396   8.186   9.495  0.1570  0.0226  0.0092
  538loPI   C2B 8606   0.512   8.222   9.085 -0.0927 -0.1965  0.2392
  538loPI   C3B 8607   0.461   8.056   8.667  0.2931 -0.0692  0.1330
  538loPI   C4B 8608   0.523   8.297   8.333 -0.0878 -0.2207 -0.0014
  539loPI    C1 8609   4.179  18.283  10.180 -0.0111  0.2918 -0.1689
  539loPI    C2 8610   3.919  18.581  10.115  0.1553  0.4877  0.0482
  539loPI    C3 8611   4.115  18.558  10.463 -0.2558 -0.1851  0.2546
  539loPI   PO4 8612   4.265  18.218   9.988  0.0657 -0.0541 -0.0454
  539loPI   GL1 8613   4.337  18.294   9.637 -0.2083 -0.0265  0.1632
  539loPI   GL2 8614   4.248  17.937   9.542 -0.0846  0.1374 -0.0727
  539loPI   C1A 8615   4.300  18.296   9.207 -0.1304  0.2026  0.2106
  539loPI   C2A 8616   4.157  18.326   8.745 -0.0885 -0.0137  0.2852
  539loPI   C3A 8617   4.118  18.364   8.317  0.0862  0.0924  0.0245
  539loPI   C4A 8618   4.250  18.434   7.917 -0.3889  0.2047 -0.0111
  539loPI   C5A 8619   4.249  18.509   7.503  0.1329  0.0585 -0.3230
  539loPI   C6A 8620   4.245  18.659   7.019  0.0709  0.2073 -0.1430
  539loPI   C1B 8621   4.222  17.835   9.139  0.2576 -0.0390 -0.3945
  539loPI   C2B 8622   4.150  17.848   8.766  0.0815 -0.1898  0.0069
  539loPI   C3B 8623   4.182  17.709   8.369 -0.3473 -0.0271  0.0954
  539loPI   C4B 8624   4.177  17.884   7.963  0.0203  0.1681  0.1706
  540loPI    C1 8625   4.645   4.670  10.277 -0.1505  0.1207 -0.0412
  540loPI    C2 8626   4.446   5.017  10.297  0.1586  0.2841  0.3114
  540loPI    C3 8627   4.640   4.878  10.618  0.2126 -0.1146  0.1131
  540loPI   PO4 8628   4.601   4.604  10.031 -0.1360 -0.0012  0.0627
  540loPI   GL1 8629   4.606   4.915   9.802 -0.0101  0.0372 -0.1171
  540loPI   GL2 8630   4.740   5.124   9.851  0.1183  0.1173 -0.0934
  540loPI   C1A 8631   4.646   4.804   9.440  0.2011  0.1423 -0.3485
  540loPI   C2A 8632   4.605   4.768   9.095 -0.4559 -0.0164  0.2434
  540loPI   C3A 8633   4.756   4.578   8.876  0.1098  0.0477 -0.1092
  540loPI   C4A 8634   4.642   4.797   8.456  0.0378  0.1345 -0.1974
  540loPI   C5A 8635   4.633   4.891   8.043 -0.0417  0.2784  0.3419
  540loPI   C6A 8636   4.470   4.637   7.687 -0.0313  0.4231 -0.2417
  540loPI   C1B 8637   4.882   5.248   9.452  0.0566 -0.2643 -0.0345
  540loPI   C2B 8638   4.804   5.203   9.075  0.1641  0.0370  0.0015
  540loPI   C3B 8639   4.683   5.259   8.730  0.1374  0.0273  0.2682
  540loPI   C4B 8640   4.677   5.326   8.283 -0.1341 -0.1067 -0.2687
  541POPI    C1 8641   4.565  16.384   9.920 -0.4730 -0.0398  0.0611
  541POPI    C2 8642   4.733  16.325  10.278 -0.2845 -0.0746 -0.0316
  541POPI    C3 8643   4.397  16.540  10.247 -0.3827 -0.1945  0.1826
  541POPI   PO4 8644   4.584  16.216   9.788 -0.1066 -0.2956  0.2475
  541POPI   GL1 8645   4.651  16.070   9.398  0.1335  0.0567 -0.5592
  541POPI   GL2 8646   4.334  16.176   9.190  0.0579 -0.2627 -0.0126
  541POPI   C1A 8647   5.057  16.317   9.248  0.2274  0.0264  0.1342
  541POPI   D2A 8648   5.517  16.434   9.165 -0.0323  0.2604 -0.0896
  541POPI   C3A 8649   5.717  16.618   8.743 -0.0815 -0.3573 -0.1131
  541POPI   C4A 8650   5.695  16.708   8.317 -0.1180 -0.2314 -0.0972
  541POPI   C1B 8651   4.235  16.604   8.964 -0.0337 -0.2489  0.1524
  541POPI   C2B 8652   4.277  16.621   8.512 -0.2561 -0.0406  0.0666
  541POPI   C3B 8653   4.096  16.367   8.310 -0.0630  0.1131 -0.3793
  541POPI   C4B 8654   4.085  16.184   7.937 -0.0889 -0.1415 -0.2237
  542POPI    C1 8655   3.849  10.169  10.435 -0.1672 -0.0248 -0.0160
  542POPI    C2 8656   3.493  10.065  10.584 -0.1943  0.1435  0.0378
  542POPI    C3 8657   3.806  10.114  10.829 -0.0925 -0.1662 -0.0268
  542POPI   PO4 8658   3.880   9.978  10.162 -0.0470  0.2099  0.0498
  542POPI   GL1 8659   3.668   9.867   9.728  0.1605 -0.1252  0.0331
  542POPI   GL2 8660   3.648   9.539   9.730 -0.1702 -0.3674 -0.0154
  542POPI   C1A 8661   3.716  10.088   9.349 -0.1439  0.0969  0.1352
  542POPI   D2A 8662   3.615  10.242   8.909  0.1711  0.1205  0.1112
  542POPI   C3A 8663   3.359  10.156   8.553 -0.2132  0.0592  0.1631
  542POPI   C4A 8664   3.003  10.299   8.302  0.1651  0.1375  0.0810
  542POPI   C1B 8665   3.921   9.290   9.471 -0.1646 -0.4238 -0.0784
  542POPI   C2B 8666   4.236   8.946   9.288 -0.1248  0.0732  0.1261
  542POPI   C3B 8667   4.333   8.843   8.858  0.1825  0.1358  0.0692
  542POPI   C4B 8668   4.545   8.960   8.409  0.2243 -0.1075  0.2100
  543POPI    C1 8669  15.503   0.001   9.701  0.1021  0.0186  0.2217
  543POPI    C2 8670  15.258  -0.242   9.903  0.1127 -0.1278  0.0614
  543POPI    C3 8671  15.596  -0.385   9.746  0.0999 -0.0184 -0.0682
  543POPI   PO4 8672  15.340   0.155   9.618  0.0414  0.0537  0.2508
  543POPI   GL1 8673  15.174   0.117   9.197 -0.2834 -0.1481 -0.2014
  543POPI   GL2 8674  15.524  -0.151   9.163 -0.1242  0.1140 -0.1447
  543POPI   C1A 8675  14.954  -0.236   8.955  0.2255  0.0495  0.2755
  543POPI   D2A 8676  14.659  -0.180   8.620 -0.1648 -0.0380 -0.2882
  543POPI   C3A 8677  14.370  -0.427   8.723  0.2955 -0.0210  0.0457
  543POPI   C4A 8678  14.022  -0.392   8.448 -0.1370 -0.0381 -0.0851
  543POPI   C1B 8679  15.742  -0.232   8.821  0.2912 -0.2821 -0.1051
  543POPI   C2B 8680  15.903  -0.191   8.425 -0.0934  0.2600 -0.4283
  543POPI   C3B 8681  15.607   0.078   8.168  0.1209 -0.2978 -0.2519
  543POPI   C4B 8682  15.367   0.181   7.793  0.2286 -0.0505  0.1999
  544POPI    C1 8683  18.204   0.086   9.927  0.2220 -0.0076  0.0180
  544POPI    C2 8684  18.405   0.186  10.258  0.1250 -0.2218  0.1441
  544POPI    C3 8685  18.188  -0.150  10.250 -0.1724 -0.0303 -0.0132
  544POPI   PO4 8686  18.265   0.113   9.763  0.0805 -0.0186  0.3347
  544POPI   GL1 8687  18.193   0.273   9.435 -0.1221 -0.0399  0.2405
  544POPI   GL2 8688  18.446   0.303   9.292  0.0207 -0.3348 -0.0233
  544POPI   C1A 8689  18.280   0.735   9.526 -0.0543  0.1354  0.0344
  544POPI   D2A 8690  18.241   1.123   9.687  0.0823  0.0923  0.0228
  544POPI   C3A 8691  18.253   1.462   9.419 -0.1112 -0.0466 -0.3345
  544POPI   C4A 8692  18.574   1.709   9.357  0.1684  0.1095 -0.0140
  544POPI   C1B 8693  18.747   0.261   9.056  0.3257  0.1513  0.4044
  544POPI   C2B 8694  18.749   0.168   8.718  0.2702  0.1832 -0.2130
  544POPI   C3B 8695  18.701   0.383   8.347  0.1875 -0.2117 -0.1223
  544POPI   C4B 8696  18.550   0.688   7.943 -0.1015 -0.3920 -0.0759
  545POPI    C1 8697   2.504   9.738  10.670  0.0725 -0.0958  0.1050
  545POPI    C2 8698   2.831   9.829  10.881  0.0946 -0.0976  0.0717
  545POPI    C3 8699   2.710   9.449  10.855  0.0375 -0.0859  0.1595
  545POPI   PO4 8700   2.556   9.742  10.428  0.1392  0.1357  0.0477
  545POPI   GL1 8701   2.619   9.918   9.985 -0.2897 -0.1347 -0.1731
  545POPI   GL2 8702   2.726  10.184   9.907 -0.0202  0.0766 -0.0682
  545POPI   C1A 8703   2.667   9.628   9.610  0.2307 -0.1088 -0.2599
  545POPI   D2A 8704   2.913   9.403   9.212  0.2721 -0.2079 -0.2193
  545POPI   C3A 8705   2.908   9.419   8.720  0.0864 -0.3269 -0.0722
  545POPI   C4A 8706   2.913   9.859   8.561 -0.0233 -0.3327  0.2073
  545POPI   C1B 8707   2.751  10.100   9.442 -0.2161 -0.1028 -0.1334
  545POPI   C2B 8708   2.758   9.875   9.043  0.0131  0.4051  0.0042
  545POPI   C3B 8709   2.419   9.787   8.857 -0.1471  0.0058 -0.3168
  545POPI   C4B 8710   2.492   9.568   8.423  0.2132 -0.1024  0.1525
  546POPI    C1 8711  18.221   4.582   9.792  0.0674  0.1015 -0.1017
  546POPI    C2 8712  18.603   4.699   9.758  0.0115  0.3057 -0.0466
  546POPI    C3 8713  18.433   4.672  10.119  0.0020  0.1188 -0.0639
  546POPI   PO4 8714  18.205   4.408   9.694 -0.0832  0.2250  0.3400
  546POPI   GL1 8715  18.543   4.223   9.497 -0.2482  0.0618 -0.2284
  546POPI   GL2 8716  18.859   4.330   9.483 -0.0667 -0.0024  0.1400
  546POPI   C1A 8717  18.283   4.137   9.058 -0.0270 -0.0171 -0.2173
  546POPI   D2A 8718  18.340   3.804   8.726  0.3133  0.1721  0.0512
  546POPI   C3A 8719  18.043   3.732   8.474  0.3451  0.0113 -0.1654
  546POPI   C4A 8720  18.075   3.714   8.056  0.3329 -0.1620 -0.1450
  546POPI   C1B 8721  18.880   4.209   9.032 -0.0444 -0.2321 -0.1903
  546POPI   C2B 8722  18.668   4.246   8.599 -0.1892 -0.1693  0.0772
  546POPI   C3B 8723  18.448   4.027   8.310  0.3738 -0.1142 -0.3082
  546POPI   C4B 8724  18.387   3.991   7.862 -0.0611 -0.0653  0.2028
  547POPI    C1 8725   2.463   8.892  10.338 -0.1581  0.0873  0.0255
  547POPI    C2 8726   2.108   8.927  10.158 -0.2362  0.0832  0.1776
  547POPI    C3 8727   2.161   8.653  10.445 -0.0200 -0.1285 -0.0597
  547POPI   PO4 8728   2.565   9.167  10.407  0.0255  0.0045  0.3373
  547POPI   GL1 8729   2.652   9.393  10.079  0.0421  0.0647 -0.2537
  547POPI   GL2 8730   2.519   9.200   9.862 -0.2797  0.0092 -0.1857
  547POPI   C1A 8731   2.153   9.557   9.737 -0.0917  0.2679  0.0633
  547POPI   D2A 8732   1.891   9.825   9.513  0.3168 -0.1218 -0.0889
  547POPI   C3A 8733   1.927  10.005   9.081 -0.2135 -0.4976 -0.0985
  547POPI   C4A 8734   2.055  10.088   8.694  0.1350  0.0789 -0.0603
  547POPI   C1B 8735   2.242   9.048   9.589  0.2057  0.0568 -0.0107
  547POPI   C2B 8736   2.252   9.223   9.168  0.0176 -0.2364 -0.0315
  547POPI   C3B 8737   2.403   9.210   8.757  0.0157  0.0924 -0.1948
  547POPI   C4B 8738   2.744   9.049   8.480  0.0422 -0.3373 -0.1060
  548POPI    C1 8739  16.458  18.101  10.309  0.0622  0.0740  0.3014
  548POPI    C2 8740  16.719  18.256  10.048  0.0337  0.0458  0.2563
  548POPI    C3 8741  16.644  18.446  10.392  0.1766  0.0111  0.3072
  548POPI   PO4 8742  16.240  18.039   9.994 -0.1255  0.1975 -0.3906
  548POPI   GL1 8743  16.310  17.818   9.677  0.2085  0.2277  0.0781
  548POPI   GL2 8744  16.614  18.024   9.600 -0.1778  0.2504  0.1294
  548POPI   C1A 8745  16.260  17.877   9.352  0.4680  0.2012  0.0969
  548POPI   D2A 8746  16.138  17.743   8.981  0.1192 -0.0653 -0.0344
  548POPI   C3A 8747  16.154  17.929   8.589  0.0708 -0.1033  0.2522
  548POPI   C4A 8748  15.992  18.090   8.290 -0.1129 -0.2891 -0.5383
  548POPI   C1B 8749  16.747  17.942   9.243 -0.0158 -0.0688 -0.3854
  548POPI   C2B 8750  16.619  18.045   8.915  0.1721  0.2425  0.0136
  548POPI   C3B 8751  16.785  17.987   8.512  0.0719 -0.3250  0.2870
  548POPI   C4B 8752  16.911  18.133   8.139 -0.0720 -0.1590 -0.0633
  549POPI    C1 8753   4.792  13.371  10.212 -0.0357  0.3044 -0.1447
  549POPI    C2 8754   4.766  13.703  10.434  0.2207  0.0755  0.2384
  549POPI    C3 8755   4.517  13.397  10.501 -0.0472  0.2019 -0.1457
  549POPI   PO4 8756   4.837  13.476   9.953  0.0774  0.0556 -0.0757
  549POPI   GL1 8757   4.756  13.753   9.547 -0.0336 -0.0170  0.0035
  549POPI   GL2 8758   4.439  13.823   9.407  0.1353  0.1569 -0.1671
  549POPI   C1A 8759   4.795  13.395   9.168  0.0524  0.3252 -0.1423
  549POPI   D2A 8760   4.968  12.915   9.106  0.0455  0.1063 -0.0278
  549POPI   C3A 8761   5.012  12.698   8.709 -0.0415  0.0014 -0.1692
  549POPI   C4A 8762   4.923  12.732   8.367 -0.0265  0.0389 -0.1201
  549POPI   C1B 8763   4.553  13.842   9.055 -0.1490  0.1433  0.2312
  549POPI   C2B 8764   4.616  13.946   8.622  0.0930 -0.1006  0.2312
  549POPI   C3B 8765   4.736  14.028   8.150 -0.3377  0.0101 -0.0568
  549POPI   C4B 8766   4.734  13.898   7.688  0.0514  0.2072  0.0826
  550POPI    C1 8767   0.100  15.918  10.249  0.0370 -0.1408 -0.1928
  550POPI    C2 8768   0.143  15.988  10.641  0.0614 -0.1228 -0.1986
  550POPI    C3 8769  -0.138  15.733  10.513 -0.0644  0.0057 -0.1807
  550POPI   PO4 8770   0.239  16.077  10.137 -0.1202  0.0833  0.0791
  550POPI   GL1 8771   0.348  16.170   9.754  0.1189  0.1876 -0.0030
  550POPI   GL2 8772   0.275  16.533   9.701  0.2031 -0.0411 -0.1523
  550POPI   C1A 8773   0.414  16.341   9.287 -0.0952  0.2232  0.0352
  550POPI   D2A 8774   0.133  16.578   9.011 -0.1280  0.1735 -0.2663
  550POPI   C3A 8775  -0.083  16.811   9.154  0.2157  0.1553 -0.3290
  550POPI   C4A 8776  -0.612  16.699   9.406 -0.2040  0.0224  0.0026
  550POPI   C1B 8777  -0.115  16.400   9.535 -0.0600  0.0102  0.2311
  550POPI   C2B 8778  -0.354  16.417   9.119  0.0115  0.0983 -0.0086
  550POPI   C3B 8779  -0.425  16.700   8.797 -0.2351  0.0910 -0.0377
  550POPI   C4B 8780  -0.370  16.793   8.413 -0.1602 -0.1856  0.2095
  551POPI    C1 8781   0.813   6.668  10.281  0.0365 -0.0736 -0.2003
  551POPI    C2 8782   0.487   6.542  10.476  0.2594  0.0110  0.2404
  551POPI    C3 8783   0.693   6.287  10.247 -0.0923 -0.0512 -0.0153
  551POPI   PO4 8784   0.713   6.792  10.016 -0.4791  0.0780  0.0878
  551POPI   GL1 8785   0.570   6.732   9.612  0.0096 -0.0688 -0.0677
  551POPI   GL2 8786   0.246   6.883   9.512 -0.2583 -0.1346 -0.1993
  551POPI   C1A 8787   0.622   6.683   9.177  0.2429  0.0736 -0.2745
  551POPI   D2A 8788   0.469   6.555   8.728  0.0627 -0.1122 -0.5023
  551POPI   C3A 8789   0.814   6.618   8.509 -0.2149  0.1739 -0.1281
  551POPI   C4A 8790   1.062   6.894   8.258  0.0794  0.0802 -0.1417
  551POPI   C1B 8791  -0.018   6.864   9.168 -0.3537 -0.1986  0.0033
  551POPI   C2B 8792  -0.021   6.792   8.729  0.1688  0.3384  0.1504
  551POPI   C3B 8793   0.087   6.576   8.411  0.0423  0.1376 -0.0218
  551POPI   C4B 8794   0.477   6.567   8.127 -0.0011 -0.1435 -0.0871
  552POPI    C1 8795   2.556   7.875  10.462  0.0906  0.1225  0.1546
  552POPI    C2 8796   2.216   8.083  10.425  0.0179 -0.0128  0.0525
  552POPI    C3 8797   2.310   7.912  10.775 -0.1484 -0.1945  0.0102
  552POPI   PO4 8798   2.540   7.731  10.293  0.3593 -0.2294 -0.0643
  552POPI   GL1 8799   2.522   7.660   9.867  0.0435 -0.1931 -0.0746
  552POPI   GL2 8800   2.893   7.829   9.686  0.2072  0.4313 -0.0582
  552POPI   C1A 8801   2.478   7.566   9.403  0.0868 -0.0929 -0.1013
  552POPI   D2A 8802   2.637   7.794   9.104 -0.0478 -0.0043  0.2103
  552POPI   C3A 8803   2.658   7.639   8.738  0.0146 -0.1318 -0.0557
  552POPI   C4A 8804   2.500   7.585   8.322  0.0958 -0.2671  0.0558
  552POPI   C1B 8805   3.005   8.031   9.266  0.4166  0.2999  0.2409
  552POPI   C2B 8806   2.958   8.077   8.772  0.1466 -0.0878 -0.2278
  552POPI   C3B 8807   2.976   7.877   8.436  0.0605  0.1712  0.3324
  552POPI   C4B 8808   3.250   7.933   8.075 -0.0124  0.0092  0.3654
  553POPI    C1 8809   8.427  18.698  10.173  0.1215 -0.1504  0.0315
  553POPI    C2 8810   8.046  18.788  10.092  0.0743 -0.2755  0.1107
  553POPI    C3 8811   8.295  19.072  10.223 -0.0122 -0.2100  0.1346
  553POPI   PO4 8812   8.430  18.479   9.948  0.0778 -0.0656 -0.1238
  553POPI   GL1 8813   8.717  18.196   9.784 -0.0385  0.0277  0.1486
  553POPI   GL2 8814   8.527  18.030   9.511  0.2050  0.0238 -0.0922
  553POPI   C1A 8815   8.859  18.458   9.391  0.0328  0.1889  0.0347
  553POPI   D2A 8816   8.464  18.408   9.221  0.0603  0.2987 -0.0477
  553POPI   C3A 8817   8.381  18.324   8.855  0.2569 -0.2015 -0.2862
  553POPI   C4A 8818   8.257  18.605   8.552  0.1899  0.0487 -0.0139
  553POPI   C1B 8819   8.781  17.985   9.062 -0.2089  0.0767 -0.1089
  553POPI   C2B 8820   8.813  17.959   8.605 -0.0624 -0.0870  0.1584
  553POPI   C3B 8821   8.603  18.100   8.253 -0.0680  0.0582 -0.0998
  553POPI   C4B 8822   8.502  17.894   7.875 -0.2921 -0.0589  0.1750
  554POPI    C1 8823   2.825   4.280  10.146 -0.1055 -0.0799  0.0450
  554POPI    C2 8824   3.135   4.532  10.169 -0.1315 -0.0471  0.0370
  554POPI    C3 8825   3.146   4.183  10.365 -0.1431  0.0104  0.1410
  554POPI   PO4 8826   2.747   4.257   9.899 -0.6036 -0.4489  0.1584
  554POPI   GL1 8827   2.873   4.466   9.571 -0.0669  0.3786 -0.0456
  554POPI   GL2 8828   3.033   4.776   9.676 -0.0769  0.1868  0.1934
  554POPI   C1A 8829   2.845   4.393   9.122  0.0594 -0.2124 -0.0404
  554POPI   D2A 8830   3.009   4.463   8.661  0.0968 -0.1132 -0.1055
  554POPI   C3A 8831   2.771   4.425   8.272  0.0054  0.1941  0.0602
  554POPI   C4A 8832   2.705   4.578   7.831 -0.0136  0.3858  0.2773
  554POPI   C1B 8833   3.188   4.653   9.311  0.1027  0.0494  0.3683
  554POPI   C2B 8834   3.416   4.733   8.945  0.0295 -0.0695 -0.0759
  554POPI   C3B 8835   3.777   4.650   8.706  0.0355 -0.0353 -0.3801
  554POPI   C4B 8836   4.169   4.814   8.465 -0.0642  0.3814 -0.1432
  555POPI    C1 8837  10.250   9.239  10.200 -0.1720  0.1325 -0.2537
  555POPI    C2 8838  10.140   8.858  10.251 -0.1066  0.1287 -0.1401
  555POPI    C3 8839  10.152   9.107  10.564  0.1399  0.1471 -0.1621
  555POPI   PO4 8840  10.413   9.140   9.988 -0.0224  0.2749  0.1305
  555POPI   GL1 8841  10.571   8.915   9.617 -0.0162  0.0162  0.0349
  555POPI   GL2 8842  10.752   8.640   9.463 -0.1214 -0.0423  0.1159
  555POPI   C1A 8843  10.615   9.084   9.247 -0.0970 -0.1087 -0.1675
  555POPI   D2A 8844  10.729   9.207   8.838 -0.1574 -0.1790 -0.1656
  555POPI   C3A 8845  10.568   9.145   8.395 -0.1029 -0.1326  0.1168
  555POPI   C4A 8846  10.877   8.924   8.117  0.2830 -0.1090 -0.0586
  555POPI   C1B 8847  10.546   8.449   9.123 -0.0440  0.0505  0.0938
  555POPI   C2B 8848  10.419   8.220   8.750  0.1649 -0.1691  0.0150
  555POPI   C3B 8849  10.402   7.985   8.346  0.0533 -0.2791 -0.2113
  555POPI   C4B 8850  10.387   7.696   7.975  0.0713  0.2599  0.2303
  556POPI    C1 8851   6.225   7.875  10.502 -0.1802  0.0755  0.0507
  556POPI    C2 8852   6.281   7.543  10.717  0.0026 -0.0373 -0.1668
  556POPI    C3 8853   6.171   7.882  10.898  0.0649 -0.1522  0.0909
  556POPI   PO4 8854   6.113   7.777  10.310  0.0139 -0.2008  0.1618
  556POPI   GL1 8855   5.978   7.955   9.871 -0.0834 -0.0725  0.0739
  556POPI   GL2 8856   5.886   7.820   9.672  0.0290 -0.0985 -0.2504
  556POPI   C1A 8857   6.311   8.099   9.648 -0.2426 -0.0213  0.0443
  556POPI   D2A 8858   6.531   8.337   9.341 -0.1824  0.1694 -0.0249
  556POPI   C3A 8859   6.416   8.211   8.988  0.1531 -0.0948 -0.2086
  556POPI   C4A 8860   6.235   8.081   8.561 -0.1646 -0.0545  0.1810
  556POPI   C1B 8861   6.072   7.868   9.215  0.2733  0.0991  0.0156
  556POPI   C2B 8862   5.884   7.809   8.841 -0.1715  0.1452  0.0925
  556POPI   C3B 8863   5.891   7.812   8.307  0.5170 -0.1097  0.0858
  556POPI   C4B 8864   5.743   7.708   7.819  0.0052  0.0170  0.3702
  557POPI    C1 8865   6.696  16.169  10.209  0.0629 -0.0596 -0.0190
  557POPI    C2 8866   6.689  15.860  10.463 -0.0173 -0.0531 -0.0129
  557POPI    C3 8867   6.844  16.210  10.579  0.1561 -0.1167 -0.0496
  557POPI   PO4 8868   6.793  16.052   9.965  0.0321  0.2544  0.1066
  557POPI   GL1 8869   6.722  15.880   9.596 -0.0589 -0.0867  0.2737
  557POPI   GL2 8870   6.452  16.014   9.617 -0.2462  0.1128 -0.1198
  557POPI   C1A 8871   6.607  15.766   9.099  0.1846  0.1356  0.1694
  557POPI   D2A 8872   6.915  15.795   8.687  0.3563  0.0033 -0.0331
  557POPI   C3A 8873   6.667  15.812   8.233  0.3148 -0.1071 -0.2161
  557POPI   C4A 8874   6.583  15.725   7.826  0.1481  0.1525  0.1238
  557POPI   C1B 8875   6.546  16.228   9.267  0.1626 -0.2914  0.1122
  557POPI   C2B 8876   6.859  16.550   9.288  0.0855 -0.0818  0.1870
  557POPI   C3B 8877   7.017  16.786   8.934 -0.0664 -0.1017 -0.4452
  557POPI   C4B 8878   6.956  17.043   8.652 -0.1535  0.2528  0.0599
  558POPI    C1 8879   8.959  17.189   9.956 -0.0754  0.0363  0.0134
  558POPI    C2 8880   9.221  17.324  10.227  0.0251  0.0214 -0.0754
  558POPI    C3 8881   9.035  16.975  10.285 -0.1019  0.1116  0.0689
  558POPI   PO4 8882   8.881  17.416   9.827 -0.2065  0.0810 -0.0069
  558POPI   GL1 8883   8.791  17.497   9.450  0.1389  0.0667  0.1525
  558POPI   GL2 8884   8.961  17.707   9.451  0.0531 -0.0522  0.0123
  558POPI   C1A 8885   8.641  17.477   9.040  0.1057 -0.3104  0.1519
  558POPI   D2A 8886   8.713  17.263   8.678  0.1623  0.0818 -0.1445
  558POPI   C3A 8887   8.902  17.308   8.320 -0.0040 -0.0095 -0.0265
  558POPI   C4A 8888   9.263  17.371   7.956  0.4403  0.1626 -0.0499
  558POPI   C1B 8889   9.203  17.613   9.170  0.1539  0.1929  0.1880
  558POPI   C2B 8890   9.144  17.496   8.812 -0.1319  0.0480  0.1291
  558POPI   C3B 8891   9.370  17.600   8.434  0.1433 -0.0945 -0.1960
  558POPI   C4B 8892   8.979  17.767   8.154 -0.2175 -0.0974 -0.1577
  559POPI    C1 8893  12.787  14.189  10.148 -0.0123  0.0660  0.0783
  559POPI    C2 8894  12.453  14.405  10.189 -0.2695 -0.2323 -0.3644
  559POPI    C3 8895  12.502  14.070  10.402 -0.1550 -0.0801 -0.1472
  559POPI   PO4 8896  12.791  14.214   9.852 -0.1561  0.0135  0.1953
  559POPI   GL1 8897  12.660  14.556   9.426 -0.0377  0.2349 -0.4961
  559POPI   GL2 8898  12.504  14.407   9.182  0.2542  0.1836  0.0182
  559POPI   C1A 8899  12.821  14.783   9.047 -0.1995 -0.4842 -0.0663
  559POPI   D2A 8900  12.784  14.948   8.677 -0.1288  0.1054 -0.0025
  559POPI   C3A 8901  12.887  14.627   8.266  0.1250 -0.2385  0.0059
  559POPI   C4A 8902  12.873  14.648   7.793 -0.1081 -0.0738  0.0970
  559POPI   C1B 8903  12.415  14.584   8.758  0.0495  0.0993  0.0943
  559POPI   C2B 8904  12.386  14.811   8.384 -0.0568 -0.1404  0.1038
  559POPI   C3B 8905  12.702  15.078   8.167  0.0492 -0.2922  0.0967
  559POPI   C4B 8906  12.796  15.392   7.828 -0.0526 -0.2915  0.0678
  560POPI    C1 8907  10.745  14.656  10.066 -0.0266  0.0184  0.0586
  560POPI    C2 8908  10.907  14.601   9.705 -0.0808  0.0688  0.0265
  560POPI    C3 8909  10.973  14.941   9.905 -0.0421  0.0365  0.0688
  560POPI   PO4 8910  10.555  14.410   9.999  0.0178  0.1562 -0.1312
  560POPI   GL1 8911  10.433  14.394   9.563 -0.0041  0.0070 -0.2076
  560POPI   GL2 8912  10.365  14.082   9.520  0.0617 -0.0302  0.3127
  560POPI   C1A 8913  10.627  14.796   9.344 -0.1127 -0.0137  0.2291
  560POPI   D2A 8914  10.631  15.213   9.143 -0.2056 -0.1432 -0.2990
  560POPI   C3A 8915  10.583  15.170   8.716 -0.1121  0.0719 -0.1639
  560POPI   C4A 8916  10.489  14.840   8.451 -0.2434  0.0705  0.2124
  560POPI   C1B 8917  10.144  14.133   9.169  0.2097  0.0091  0.1616
  560POPI   C2B 8918  10.122  14.229   8.736 -0.1023 -0.1389 -0.0355
  560POPI   C3B 8919  10.101  14.510   8.300  0.0999 -0.1874  0.1134
  560POPI   C4B 8920   9.924  14.440   7.963 -0.2183  0.1161  0.0532
  561POPI    C1 8921   0.200   2.529  10.368 -0.0243  0.1689 -0.2284
  561POPI    C2 8922  -0.004   2.627  10.038 -0.3199 -0.0753 -0.1239
  561POPI    C3 8923  -0.198   2.486  10.358  0.0114 -0.2780 -0.0070
  561POPI   PO4 8924   0.395   2.360  10.213 -0.2765  0.2977 -0.2284
  561POPI   GL1 8925   0.188   2.230   9.791  0.3062 -0.0987 -0.2329
  561POPI   GL2 8926   0.221   1.912   9.762 -0.1864 -0.0286  0.0817
  561POPI   C1A 8927   0.224   2.384   9.426 -0.0153 -0.2093  0.0614
  561POPI   D2A 8928   0.234   2.460   8.898 -0.0625  0.0094 -0.1556
  561POPI   C3A 8929   0.324   2.417   8.521  0.3614  0.1167  0.0575
  561POPI   C4A 8930   0.157   2.628   8.183  0.2527 -0.1242 -0.1198
  561POPI   C1B 8931   0.419   1.950   9.345  0.1707  0.2924 -0.0427
  561POPI   C2B 8932   0.735   2.038   8.993  0.0266  0.2275 -0.0732
  561POPI   C3B 8933   0.713   2.057   8.549  0.1172 -0.0466  0.2267
  561POPI   C4B 8934   0.709   2.289   8.178  0.0945 -0.2078  0.3034
  562POPI    C1 8935  17.298   3.947  10.272  0.0223  0.2348 -0.0398
  562POPI    C2 8936  17.438   3.628  10.469 -0.0584  0.2328  0.0145
  562POPI    C3 8937  17.222   3.904  10.662 -0.0503  0.2835 -0.0485
  562POPI   PO4 8938  17.339   3.939  10.075 -0.0365  0.1600  0.2254
  562POPI   GL1 8939  17.275   4.038   9.642  0.0448  0.0745 -0.0752
  562POPI   GL2 8940  17.369   4.249   9.362 -0.0337 -0.2638 -0.2497
  562POPI   C1A 8941  17.266   3.770   9.331  0.1986  0.2016  0.0622
  562POPI   D2A 8942  17.126   3.916   8.993  0.2223  0.0313 -0.1645
  562POPI   C3A 8943  16.981   3.811   8.657  0.0260  0.0779 -0.0199
  562POPI   C4A 8944  17.202   3.812   8.197  0.4445  0.0342  0.2379
  562POPI   C1B 8945  17.324   4.394   8.905  0.0957 -0.0905 -0.0663
  562POPI   C2B 8946  17.283   4.439   8.441  0.0701 -0.0311  0.1808
  562POPI   C3B 8947  17.350   4.217   7.973 -0.2524  0.0568 -0.0666
  562POPI   C4B 8948  17.688   3.888   7.803 -0.3586 -0.2809  0.1704
  563POPI    C1 8949  13.676  10.239   9.685 -0.2042 -0.2029 -0.1595
  563POPI    C2 8950  13.600  10.405   9.330 -0.0943  0.1081 -0.0411
  563POPI    C3 8951  13.535  10.613   9.665  0.0037 -0.1065  0.1127
  563POPI   PO4 8952  13.933  10.156   9.680 -0.2241  0.3805 -0.0847
  563POPI   GL1 8953  14.181  10.350   9.396  0.1338  0.2855  0.2139
  563POPI   GL2 8954  14.176  10.050   9.251  0.1867  0.1118  0.1536
  563POPI   C1A 8955  14.330  10.618   9.107  0.0134 -0.2137  0.2315
  563POPI   D2A 8956  14.388  10.604   8.742  0.2198 -0.3352  0.0923
  563POPI   C3A 8957  14.508  10.724   8.369 -0.0862 -0.1753 -0.1268
  563POPI   C4A 8958  14.626  10.763   7.923 -0.2092  0.2027  0.1508
  563POPI   C1B 8959  14.398  10.128   8.925  0.0241  0.3140  0.1055
  563POPI   C2B 8960  14.395  10.183   8.475 -0.0688 -0.1713 -0.1019
  563POPI   C3B 8961  14.563  10.125   8.045  0.0990 -0.1535  0.1405
  563POPI   C4B 8962  14.529  10.347   7.606  0.0582  0.1251  0.0393
  564POPI    C1 8963   0.207   4.747  10.395  0.1798  0.1607 -0.0561
  564POPI    C2 8964   0.126   5.137  10.432  0.0004  0.1449 -0.2642
  564POPI    C3 8965  -0.130   4.866  10.577  0.2900  0.1040  0.1893
  564POPI   PO4 8966   0.217   4.703  10.109 -0.2462 -0.0263  0.2366
  564POPI   GL1 8967   0.365   4.811   9.693  0.6511 -0.2248 -0.0895
  564POPI   GL2 8968   0.420   5.142   9.519 -0.1144 -0.2121 -0.3409
  564POPI   C1A 8969   0.159   4.765   9.328 -0.1347  0.2667 -0.1848
  564POPI   D2A 8970   0.056   4.659   8.972  0.3035 -0.1175  0.1745
  564POPI   C3A 8971   0.172   4.723   8.562 -0.0281 -0.1598  0.1281
  564POPI   C4A 8972   0.212   4.630   8.141 -0.4986 -0.1650  0.0548
  564POPI   C1B 8973   0.539   5.245   9.056  0.1419  0.2931  0.0097
  564POPI   C2B 8974   0.425   5.224   8.600  0.1221 -0.3754 -0.1456
  564POPI   C3B 8975   0.267   5.133   8.178 -0.2197 -0.2401  0.1476
  564POPI   C4B 8976   0.264   5.008   7.816  0.0182  0.1144 -0.1869
  565POPI    C1 8977  11.067  14.340  10.330  0.1056 -0.0439  0.0919
  565POPI    C2 8978  10.725  14.133  10.345  0.0700  0.0181  0.1409
  565POPI    C3 8979  10.766  14.467  10.561 -0.0116  0.2698 -0.2224
  565POPI   PO4 8980  11.121  14.202   9.991 -0.0443 -0.1014  0.0789
  565POPI   GL1 8981  11.204  13.911   9.598  0.1575 -0.1938  0.1786
  565POPI   GL2 8982  10.941  14.049   9.523  0.2560 -0.2430 -0.0545
  565POPI   C1A 8983  11.348  14.011   9.111 -0.0125 -0.1848 -0.1434
  565POPI   D2A 8984  11.252  14.392   8.850 -0.0080  0.2161  0.0073
  565POPI   C3A 8985  10.883  14.378   8.579  0.0874 -0.2002 -0.0491
  565POPI   C4A 8986  10.654  14.398   8.270  0.0666  0.1420  0.0653
  565POPI   C1B 8987  10.867  14.389   9.252  0.2544 -0.3744 -0.0088
  565POPI   C2B 8988  10.521  14.490   8.918 -0.1204 -0.0498 -0.2680
  565POPI   C3B 8989  10.136  14.597   9.124 -0.2905 -0.2728 -0.0132
  565POPI   C4B 8990   9.764  14.800   9.077  0.0376  0.0728 -0.2047
  566POPI    C1 8991  11.505   8.788   9.881 -0.0621  0.0930  0.0267
  566POPI    C2 8992  11.395   8.834  10.263 -0.2102 -0.2398  0.0273
  566POPI    C3 8993  11.740   8.652  10.175 -0.2032 -0.2137  0.0009
  566POPI   PO4 8994  11.509   9.028   9.783  0.1261 -0.1662  0.0171
  566POPI   GL1 8995  11.378   9.169   9.372 -0.0418  0.0501 -0.1739
  566POPI   GL2 8996  11.113   9.356   9.467  0.0139 -0.0194 -0.2487
  566POPI   C1A 8997  11.235   9.091   8.976  0.0313 -0.0344 -0.1364
  566POPI   D2A 8998  11.138   9.141   8.556 -0.0520  0.0748 -0.0667
  566POPI   C3A 8999  10.956   9.413   8.203 -0.4555  0.1166 -0.0786
  566POPI   C4A 9000  10.640   9.335   7.898  0.0333  0.0380 -0.0964
  566POPI   C1B 9001  10.993   9.562   9.139 -0.1282 -0.0044 -0.1065
  566POPI   C2B 9002  10.798   9.724   8.680  0.1737  0.0356  0.0254
  566POPI   C3B 9003  10.524   9.643   8.386  0.1230 -0.0290  0.1124
  566POPI   C4B 9004  10.651   9.823   8.030 -0.0090  0.0610  0.0786
  567POPI    C1 9005   4.302  15.727   9.951  0.2755 -0.4434 -0.1700
  567POPI    C2 9006   4.224  15.707  10.343 -0.0983  0.0788 -0.2077
  567POPI    C3 9007   4.554  15.893  10.214  0.0923 -0.2067 -0.1408
  567POPI   PO4 9008   4.207  15.541   9.771  0.2338  0.2643 -0.2043
  567POPI   GL1 9009   4.189  15.352   9.344 -0.2435  0.1137 -0.1128
  567POPI   GL2 9010   4.474  15.541   9.303  0.4450  0.1138 -0.1359
  567POPI   C1A 9011   4.175  15.228   8.924  0.2975 -0.2193  0.1549
  567POPI   D2A 9012   4.187  15.348   8.541  0.2203  0.1838 -0.0220
  567POPI   C3A 9013   3.897  15.430   8.176 -0.0038  0.2639  0.1561
  567POPI   C4A 9014   3.779  15.863   8.151 -0.6274 -0.0964  0.1494
  567POPI   C1B 9015   4.215  15.741   9.002 -0.1230 -0.1617  0.0769
  567POPI   C2B 9016   4.382  16.115   8.711 -0.1229 -0.0805  0.0672
  567POPI   C3B 9017   4.551  16.122   8.331 -0.0762 -0.0696 -0.0352
  567POPI   C4B 9018   4.861  16.095   7.971  0.1097 -0.0012  0.1086
  568POPI    C1 9019  17.830   2.432  10.177 -0.0491  0.3400  0.0854
  568POPI    C2 9020  18.180   2.243  10.140 -0.1670  0.1558 -0.1124
  568POPI    C3 9021  18.043   2.340  10.503 -0.0089  0.0442 -0.0214
  568POPI   PO4 9022  17.694   2.311   9.884 -0.0063  0.1643 -0.0262
  568POPI   GL1 9023  18.074   2.375   9.628  0.1583  0.0552 -0.1171
  568POPI   GL2 9024  17.880   2.669   9.545 -0.0328  0.2156 -0.0169
  568POPI   C1A 9025  18.082   1.960   9.336  0.0655  0.1028 -0.0060
  568POPI   D2A 9026  18.227   1.687   8.942  0.0149 -0.1735  0.0804
  568POPI   C3A 9027  18.332   1.691   8.495  0.1168  0.1177  0.0598
  568POPI   C4A 9028  18.397   1.870   8.054 -0.2277 -0.1046 -0.1239
  568POPI   C1B 9029  18.162   2.468   9.172  0.0156 -0.2441  0.2313
  568POPI   C2B 9030  18.332   2.297   8.763 -0.1573  0.2955  0.2099
  568POPI   C3B 9031  18.456   2.351   8.276 -0.2685 -0.2558  0.2027
  568POPI   C4B 9032  18.275   2.328   7.836 -0.3913  0.4554 -0.1332
  569POPI    C1 9033   4.274   2.221  10.048 -0.1372 -0.0888  0.0855
  569POPI    C2 9034   4.193   2.310  10.429 -0.1103 -0.0281  0.0771
  569POPI    C3 9035   4.074   1.960  10.276 -0.1375 -0.0446  0.1358
  569POPI   PO4 9036   4.231   2.352   9.848  0.1013  0.0443 -0.5361
  569POPI   GL1 9037   3.876   2.528   9.750 -0.0269  0.2232 -0.1020
  569POPI   GL2 9038   3.883   2.820   9.493  0.1341  0.1033 -0.3430
  569POPI   C1A 9039   3.583   2.356   9.502  0.0777 -0.1324 -0.2978
  569POPI   D2A 9040   3.555   2.276   8.985 -0.2030 -0.0065  0.1889
  569POPI   C3A 9041   3.687   2.439   8.752 -0.0148  0.1131 -0.1463
  569POPI   C4A 9042   3.906   2.492   8.338  0.0210  0.4993 -0.2265
  569POPI   C1B 9043   3.899   2.793   9.023 -0.2670  0.0355 -0.0193
  569POPI   C2B 9044   3.976   2.902   8.602  0.0493  0.0373 -0.0901
  569POPI   C3B 9045   3.926   3.017   8.240  0.2061 -0.0688  0.0170
  569POPI   C4B 9046   3.955   3.145   7.843  0.1399 -0.1899 -0.0775
  570POPI    C1 9047  12.420   4.941  10.575  0.1774 -0.0955 -0.0125
  570POPI    C2 9048  12.349   4.577  10.725 -0.0281 -0.0053  0.1140
  570POPI    C3 9049  12.427   4.883  10.971 -0.0803  0.0834  0.0207
  570POPI   PO4 9050  12.417   4.840  10.316  0.2237 -0.0316  0.0983
  570POPI   GL1 9051  12.099   4.995   9.959  0.0278  0.0326 -0.1129
  570POPI   GL2 9052  12.066   4.657   9.953 -0.1734  0.1104  0.2206
  570POPI   C1A 9053  12.151   4.888   9.480 -0.1744 -0.2525 -0.0803
  570POPI   D2A 9054  12.297   5.191   9.196 -0.2829  0.1203 -0.0746
  570POPI   C3A 9055  12.245   5.026   8.870 -0.0471 -0.0338  0.1636
  570POPI   C4A 9056  11.980   4.776   8.685 -0.0729  0.1155  0.1093
  570POPI   C1B 9057  12.291   4.443   9.593  0.0039 -0.0381 -0.2850
  570POPI   C2B 9058  12.320   4.341   9.142 -0.2265  0.1029  0.2334
  570POPI   C3B 9059  12.417   4.477   8.689 -0.0979  0.3206 -0.2597
  570POPI   C4B 9060  12.494   4.549   8.236  0.1861 -0.1290 -0.0596
  571POPI    C1 9061   5.196  14.288  10.255  0.0800 -0.1120  0.1307
  571POPI    C2 9062   5.058  14.559  10.515  0.0389  0.1045 -0.1114
  571POPI    C3 9063   4.980  14.170  10.570 -0.2619  0.1800  0.0127
  571POPI   PO4 9064   5.151  14.415  10.048  0.0757 -0.1382 -0.3319
  571POPI   GL1 9065   4.913  14.427   9.723  0.0538 -0.1066  0.0228
  571POPI   GL2 9066   4.835  14.207   9.501  0.0166  0.2320  0.1014
  571POPI   C1A 9067   5.106  14.676   9.404  0.1871  0.0025  0.0991
  571POPI   D2A 9068   5.235  14.750   8.980  0.0405  0.0452 -0.0447
  571POPI   C3A 9069   5.089  14.875   8.614 -0.1196 -0.3105  0.2105
  571POPI   C4A 9070   4.986  14.977   8.146 -0.1099 -0.0078 -0.0801
  571POPI   C1B 9071   4.845  14.377   9.097  0.1178 -0.1509  0.1025
  571POPI   C2B 9072   4.757  14.550   8.668  0.0706  0.1442  0.1186
  571POPI   C3B 9073   4.643  14.577   8.162  0.2145 -0.1829 -0.0600
  571POPI   C4B 9074   4.578  14.348   7.822 -0.4160 -0.1002 -0.0915
  572POPI    C1 9075   3.353  15.274   9.934  0.4297  0.0830  0.1280
  572POPI    C2 9076   3.228  15.544  10.201 -0.0262  0.1343 -0.1261
  572POPI    C3 9077   3.260  15.160  10.306 -0.1775  0.1582  0.0107
  572POPI   PO4 9078   3.536  15.336   9.825 -0.2343  0.0367 -0.0503
  572POPI   GL1 9079   3.710  15.159   9.433 -0.1189  0.0052  0.1793
  572POPI   GL2 9080   3.480  14.961   9.222 -0.1243  0.1184  0.1164
  572POPI   C1A 9081   3.750  15.420   9.031  0.0986 -0.1741 -0.0448
  572POPI   D2A 9082   3.803  15.589   8.729  0.0921  0.1209  0.2697
  572POPI   C3A 9083   3.460  15.819   8.517 -0.1394 -0.0328 -0.3391
  572POPI   C4A 9084   3.285  15.799   8.062 -0.2050 -0.0594 -0.2048
  572POPI   C1B 9085   3.649  15.014   8.746  0.1085 -0.1227 -0.0486
  572POPI   C2B 9086   3.864  14.986   8.355 -0.0047 -0.2726  0.2084
  572POPI   C3B 9087   3.771  14.842   7.888 -0.1520 -0.4008 -0.0982
  572POPI   C4B 9088   3.796  14.633   7.417 -0.1709  0.1664  0.1017
  573POPI    C1 9089   6.585   5.023  10.014  0.0740  0.0487 -0.1263
  573POPI    C2 9090   6.279   4.822   9.852  0.0594  0.1724 -0.2543
  573POPI    C3 9091   6.357   4.788  10.243  0.0346 -0.0524 -0.2678
  573POPI   PO4 9092   6.502   5.279   9.820 -0.1544 -0.0747  0.0388
  573POPI   GL1 9093   6.372   5.430   9.468  0.1396  0.0232  0.1915
  573POPI   GL2 9094   6.054   5.237   9.510  0.0610 -0.0596 -0.0858
  573POPI   C1A 9095   6.402   5.335   8.990  0.1457 -0.1797  0.0249
  573POPI   D2A 9096   6.442   5.406   8.588  0.2633 -0.1086 -0.0546
  573POPI   C3A 9097   6.131   5.500   8.285  0.1765  0.1521  0.0364
  573POPI   C4A 9098   5.945   5.676   7.903 -0.0533 -0.4319  0.0803
  573POPI   C1B 9099   6.223   4.910   9.346 -0.0480 -0.3858 -0.2941
  573POPI   C2B 9100   6.233   4.878   8.885 -0.0270 -0.1181  0.0884
  573POPI   C3B 9101   6.218   4.998   8.454 -0.0303  0.1289  0.1694
  573POPI   C4B 9102   6.073   5.069   8.057  0.0356 -0.2609 -0.1094
  574DPPI    C1 9103   0.402   9.987  10.496 -0.0444  0.0204 -0.1128
  574DPPI    C2 9104   0.584  10.325  10.609  0.0473  0.0013 -0.2016
  574DPPI    C3 9105   0.314  10.154  10.849  0.0380  0.1097 -0.1338
  574DPPI   PO4 9106   0.298  10.077  10.237  0.0484  0.1814 -0.0149
  574DPPI   GL1 9107   0.226  10.063   9.895 -0.0088  0.1515 -0.1966
  574DPPI   GL2 9108   0.501  10.250   9.783  0.1109 -0.1282  0.0464
  574DPPI   C1A 9109   0.061  10.036   9.464 -0.2391  0.1151 -0.2341
  574DPPI   C2A 9110  -0.003   9.896   9.033  0.1399 -0.0810  0.3293
  574DPPI   C3A 9111   0.090  10.091   8.619 -0.2440  0.0299 -0.1185
  574DPPI   C4A 9112   0.120  10.001   8.146  0.0225  0.0807 -0.0158
  574DPPI   C1B 9113   0.476  10.182   9.266  0.1558  0.0490 -0.0404
  574DPPI   C2B 9114   0.412  10.373   8.865  0.0773 -0.0776  0.2986
  574DPPI   C3B 9115   0.557  10.323   8.465 -0.2230  0.2023 -0.0590
  574DPPI   C4B 9116   0.618   9.980   8.234  0.1590 -0.0351 -0.1011
  575DPPI    C1 9117   2.997  12.991   9.805  0.2160 -0.0561  0.1722
  575DPPI    C2 9118   2.933  12.610   9.701 -0.1105  0.0276  0.0528
  575DPPI    C3 9119   2.946  12.712  10.088  0.0757 -0.1179  0.0869
  575DPPI   PO4 9120   2.873  13.103   9.637 -0.1639  0.1941 -0.0014
  575DPPI   GL1 9121   2.689  13.139   9.291 -0.0694  0.3574  0.1320
  575DPPI   GL2 9122   2.892  12.959   9.114 -0.0641 -0.1721  0.2523
  575DPPI   C1A 9123   2.751  13.429   8.881  0.0221  0.1510  0.0034
  575DPPI   C2A 9124   2.542  13.510   8.525 -0.1247 -0.2278  0.3352
  575DPPI   C3A 9125   2.635  13.837   8.215  0.1978 -0.1269  0.0096
  575DPPI   C4A 9126   2.868  14.021   7.873  0.0376  0.2326 -0.0151
  575DPPI   C1B 9127   2.880  13.004   8.734 -0.0593  0.2295 -0.0667
  575DPPI   C2B 9128   2.976  13.140   8.327  0.2474  0.1877 -0.0004
  575DPPI   C3B 9129   3.172  13.038   7.933 -0.1231  0.1369  0.0142
  575DPPI   C4B 9130   3.148  13.321   7.567  0.0775 -0.0633 -0.2035
  576DPPI    C1 9131   1.362  11.210  10.468  0.4688  0.1352  0.0503
  576DPPI    C2 9132   1.568  11.482  10.676 -0.1233  0.3306  0.4054
  576DPPI    C3 9133   1.209  11.362  10.805 -0.2173 -0.0394 -0.1661
  576DPPI   PO4 9134   1.538  11.074  10.345 -0.1779 -0.2916 -0.1729
  576DPPI   GL1 9135   1.663  10.965   9.894  0.3182 -0.1635 -0.1385
  576DPPI   GL2 9136   1.941  11.027  10.004  0.1354  0.1701 -0.0587
  576DPPI   C1A 9137   1.533  11.079   9.488  0.0845 -0.0181  0.1460
  576DPPI   C2A 9138   1.211  11.210   9.042 -0.1311  0.2113  0.0431
  576DPPI   C3A 9139   1.118  11.032   8.572  0.1129  0.0083  0.3571
  576DPPI   C4A 9140   1.167  11.001   8.129 -0.2223 -0.0601  0.1477
  576DPPI   C1B 9141   2.228  10.719   9.768  0.1385 -0.3498  0.2267
  576DPPI   C2B 9142   2.292  10.600   9.348 -0.0577 -0.0261 -0.1477
  576DPPI   C3B 9143   2.389  10.210   9.113  0.1639  0.1618 -0.1788
  576DPPI   C4B 9144   2.332   9.814   9.351  0.0602 -0.0039  0.1792
  577DPPI    C1 9145   5.672   5.442  10.150 -0.1321  0.0524 -0.0032
  577DPPI    C2 9146   5.957   5.169  10.084 -0.0854  0.0432  0.2274
  577DPPI    C3 9147   5.595   5.054  10.210 -0.1850  0.0573 -0.0396
  577DPPI   PO4 9148   5.625   5.608   9.960 -0.1140 -0.0831 -0.3693
  577DPPI   GL1 9149   5.859   5.657   9.526 -0.1284 -0.1171  0.0572
  577DPPI   GL2 9150   6.103   5.890   9.524  0.1921 -0.1300  0.2074
  577DPPI   C1A 9151   5.828   5.536   9.103  0.0514 -0.1960 -0.0722
  577DPPI   C2A 9152   5.927   5.298   8.706  0.2056 -0.1903  0.1549
  577DPPI   C3A 9153   5.639   5.067   8.375 -0.1911  0.1671 -0.0047
  577DPPI   C4A 9154   5.585   5.102   7.922 -0.0677  0.0521 -0.1763
  577DPPI   C1B 9155   6.159   5.895   9.154 -0.0866 -0.0204  0.3286
  577DPPI   C2B 9156   6.194   5.804   8.793 -0.0048 -0.0162  0.3059
  577DPPI   C3B 9157   6.187   5.957   8.437 -0.3557 -0.3967 -0.3633
  577DPPI   C4B 9158   6.354   5.989   8.035 -0.0312  0.1362  0.2638
  578DPPI    C1 9159   6.791   7.902  10.485  0.1255  0.1427  0.0489
  578DPPI    C2 9160   7.025   8.107  10.737  0.1668  0.0636  0.0752
  578DPPI    C3 9161   6.628   8.155  10.748  0.1778  0.1572  0.0674
  578DPPI   PO4 9162   6.850   7.852  10.247  0.1964 -0.0237  0.0102
  578DPPI   GL1 9163   7.016   7.677   9.908  0.1158  0.0374 -0.0260
  578DPPI   GL2 9164   7.111   7.391   9.674  0.1411  0.1238  0.0600
  578DPPI   C1A 9165   6.790   7.862   9.498  0.1740  0.1689  0.1367
  578DPPI   C2A 9166   6.554   7.768   9.313  0.0686  0.1296 -0.2099
  578DPPI   C3A 9167   6.573   7.720   8.886 -0.3552 -0.3234 -0.1542
  578DPPI   C4A 9168   6.462   7.604   8.436  0.0020 -0.2659  0.1327
  578DPPI   C1B 9169   6.788   7.229   9.371 -0.2959  0.1108 -0.3143
  578DPPI   C2B 9170   6.687   7.095   9.032  0.2417  0.0347 -0.0206
  578DPPI   C3B 9171   6.802   7.122   8.690  0.0441  0.4377  0.2844
  578DPPI   C4B 9172   6.566   7.125   8.229  0.3996  0.0109 -0.2081
  579DPPI    C1 9173   6.230  10.422  10.309  0.0472  0.0077 -0.0061
  579DPPI    C2 9174   6.445  10.670  10.081 -0.1200  0.0811 -0.0853
  579DPPI    C3 9175   6.118  10.803  10.268 -0.2416 -0.0921 -0.1723
  579DPPI   PO4 9176   6.283  10.207  10.173 -0.0564  0.1561  0.0620
  579DPPI   GL1 9177   6.292   9.890   9.854  0.1514 -0.1983  0.2191
  579DPPI   GL2 9178   6.092  10.114   9.731  0.2232 -0.0141 -0.1786
  579DPPI   C1A 9179   6.495   9.857   9.482  0.2667  0.0470 -0.1157
  579DPPI   C2A 9180   6.422   9.787   8.998  0.1520 -0.0285  0.1854
  579DPPI   C3A 9181   6.256   9.643   8.608  0.2653  0.3602 -0.3631
  579DPPI   C4A 9182   6.340   9.498   8.182 -0.1740  0.1620 -0.1447
  579DPPI   C1B 9183   6.044  10.007   9.315 -0.1897  0.0055 -0.0322
  579DPPI   C2B 9184   5.891   9.957   8.905  0.1968 -0.1771  0.1134
  579DPPI   C3B 9185   5.820  10.008   8.453 -0.0298 -0.1879  0.1874
  579DPPI   C4B 9186   5.580  10.047   8.098 -0.2772 -0.0082 -0.0870
  580DPPI    C1 9187   2.631  12.394  10.251 -0.1164 -0.0741 -0.0381
  580DPPI    C2 9188   2.292  12.566  10.378  0.0142  0.0466  0.1518
  580DPPI    C3 9189   2.646  12.710  10.496  0.1328 -0.0896 -0.0316
  580DPPI   PO4 9190   2.580  12.363  10.005 -0.2458 -0.0520  0.1080
  580DPPI   GL1 9191   2.499  12.255   9.578 -0.4347  0.0119 -0.5112
  580DPPI   GL2 9192   2.795  12.128   9.615  0.2117 -0.0319  0.1641
  580DPPI   C1A 9193   2.531  12.025   9.209  0.1732  0.1267 -0.0874
  580DPPI   C2A 9194   2.599  12.032   8.773 -0.1025 -0.0792 -0.3339
  580DPPI   C3A 9195   2.629  11.865   8.348 -0.3169  0.3055  0.0518
  580DPPI   C4A 9196   2.735  11.967   7.891 -0.0027  0.0943  0.1735
  580DPPI   C1B 9197   2.890  12.415   9.247  0.1129  0.0994 -0.0704
  580DPPI   C2B 9198   2.904  12.416   8.819  0.1948 -0.1439  0.1345
  580DPPI   C3B 9199   3.004  12.252   8.512 -0.2984  0.0163  0.2078
  580DPPI   C4B 9200   3.115  12.064   8.175  0.0033  0.0461  0.0651
  581DPPI    C1 9201   4.951   2.714  10.241 -0.0433  0.0519 -0.0262
  581DPPI    C2 9202   4.564   2.616  10.224 -0.0275 -0.0382  0.1125
  581DPPI    C3 9203   4.740   2.670  10.578  0.0956 -0.0308  0.0505
  581DPPI   PO4 9204   4.989   2.886  10.051 -0.2532  0.0380 -0.0330
  581DPPI   GL1 9205   4.905   2.836   9.555 -0.0324 -0.0297 -0.3303
  581DPPI   GL2 9206   4.928   2.542   9.318  0.0291 -0.2358 -0.3831
  581DPPI   C1A 9207   4.915   3.157   9.368  0.2257  0.0611 -0.1290
  581DPPI   C2A 9208   4.882   3.314   9.115  0.0475  0.0134 -0.0166
  581DPPI   C3A 9209   5.082   3.408   8.724  0.1046 -0.0652  0.2453
  581DPPI   C4A 9210   5.462   3.336   8.409  0.2269  0.1184 -0.3472
  581DPPI   C1B 9211   5.256   2.837   9.161 -0.1251  0.0284 -0.1080
  581DPPI   C2B 9212   5.693   2.729   9.013 -0.0040  0.0501  0.1608
  581DPPI   C3B 9213   5.698   2.522   8.592  0.1086 -0.1080  0.0962
  581DPPI   C4B 9214   5.861   2.525   8.268 -0.1131  0.0729 -0.2016
  582DPPI    C1 9215   8.439  15.890  10.256  0.1058 -0.0142  0.1737
  582DPPI    C2 9216   8.489  15.583  10.508  0.1511 -0.1599 -0.0108
  582DPPI    C3 9217   8.678  15.929  10.575  0.1406 -0.1880  0.1699
  582DPPI   PO4 9218   8.664  15.792  10.065  0.2944  0.1310  0.1296
  582DPPI   GL1 9219   8.612  15.480   9.699 -0.2970 -0.1322 -0.1495
  582DPPI   GL2 9220   8.981  15.515   9.725 -0.2742  0.7497  0.3253
  582DPPI   C1A 9221   8.597  15.724   9.329  0.1809  0.2173 -0.0269
  582DPPI   C2A 9222   8.563  15.736   8.979  0.1139 -0.0002 -0.4271
  582DPPI   C3A 9223   8.497  15.903   8.632  0.3917  0.3915 -0.1008
  582DPPI   C4A 9224   8.591  15.957   8.139 -0.1208 -0.1016  0.1057
  582DPPI   C1B 9225   8.914  15.310   9.365 -0.3227 -0.0699  0.0776
  582DPPI   C2B 9226   8.862  15.294   8.968 -0.0866 -0.3509 -0.0150
  582DPPI   C3B 9227   8.676  15.406   8.616 -0.4283 -0.0530  0.0865
  582DPPI   C4B 9228   8.515  15.458   8.267  0.0968 -0.1184  0.4175
  583DPPI    C1 9229   6.387   5.473  10.311 -0.3412 -0.1662 -0.0696
  583DPPI    C2 9230   6.687   5.279  10.490  0.0472  0.2174 -0.2874
  583DPPI    C3 9231   6.309   5.190  10.583  0.2251 -0.1629  0.1097
  583DPPI   PO4 9232   6.538   5.705  10.215 -0.1209  0.3425  0.1576
  583DPPI   GL1 9233   6.663   5.786   9.763  0.2004 -0.2413 -0.0827
  583DPPI   GL2 9234   6.572   6.070   9.696 -0.1763 -0.1244  0.0962
  583DPPI   C1A 9235   6.751   5.813   9.314 -0.2762 -0.0283  0.1046
  583DPPI   C2A 9236   6.781   5.834   8.865 -0.0138  0.0339 -0.1593
  583DPPI   C3A 9237   6.701   5.760   8.367 -0.1465 -0.2674  0.1510
  583DPPI   C4A 9238   6.608   5.432   8.124  0.0459  0.0937  0.0734
  583DPPI   C1B 9239   6.460   6.308   9.251  0.1241 -0.0224 -0.3310
  583DPPI   C2B 9240   6.496   6.235   8.798  0.4437  0.1303  0.3254
  583DPPI   C3B 9241   6.443   6.380   8.410 -0.1985 -0.0799  0.0030
  583DPPI   C4B 9242   6.466   6.630   8.093 -0.5041  0.2005  0.1005
  584DPPI    C1 9243   0.581   2.738  10.630  0.3040  0.0639  0.0769
  584DPPI    C2 9244   0.749   2.580  10.956  0.3271 -0.0945 -0.0106
  584DPPI    C3 9245   0.368   2.498  10.868  0.2513  0.1318  0.0985
  584DPPI   PO4 9246   0.762   2.744  10.446 -0.0297  0.4592 -0.0138
  584DPPI   GL1 9247   0.900   2.662  10.027  0.0097  0.3029  0.1622
  584DPPI   GL2 9248   0.816   3.003   9.911  0.7067  0.0940  0.3887
  584DPPI   C1A 9249   0.947   2.577   9.624  0.0199 -0.0456 -0.1239
  584DPPI   C2A 9250   1.090   2.591   9.154 -0.3039 -0.3426  0.0548
  584DPPI   C3A 9251   0.696   2.630   8.802 -0.1912  0.0621 -0.0939
  584DPPI   C4A 9252   0.667   2.728   8.331 -0.0385 -0.3321  0.1615
  584DPPI   C1B 9253   0.821   3.046   9.506 -0.1043 -0.3072  0.0506
  584DPPI   C2B 9254   0.868   3.018   9.047  0.1461 -0.4035  0.2113
  584DPPI   C3B 9255   0.784   3.116   8.634  0.5924 -0.0745  0.1208
  584DPPI   C4B 9256   0.872   3.208   8.226  0.3577 -0.1553 -0.0169
  585DPPI    C1 9257  12.862   7.921   9.598 -0.0587  0.3121  0.0502
  585DPPI    C2 9258  12.781   7.740   9.945 -0.0480  0.0930 -0.0593
  585DPPI    C3 9259  12.904   8.121   9.941 -0.1863  0.1419  0.1667
  585DPPI   PO4 9260  12.664   7.800   9.488  0.1505 -0.0303  0.3304
  585DPPI   GL1 9261  12.374   8.031   9.226  0.2352  0.0716 -0.3048
  585DPPI   GL2 9262  12.076   8.370   9.313  0.0229 -0.3155 -0.0636
  585DPPI   C1A 9263  12.102   8.013   8.903  0.0884  0.2178 -0.0156
  585DPPI   C2A 9264  12.141   8.153   8.385 -0.0508  0.2971 -0.2826
  585DPPI   C3A 9265  12.232   8.381   8.095  0.2776 -0.0480 -0.2134
  585DPPI   C4A 9266  12.190   8.276   7.671  0.1717  0.1008  0.2987
  585DPPI   C1B 9267  11.960   8.569   8.979 -0.2324  0.1074  0.1259
  585DPPI   C2B 9268  12.043   8.631   8.558  0.2140 -0.1113  0.1447
  585DPPI   C3B 9269  11.975   8.876   8.157  0.3079 -0.3016 -0.2872
  585DPPI   C4B 9270  11.842   9.172   7.834  0.1808  0.4609  0.1284
  586DPPI    C1 9271  17.376  16.351  10.218  0.0393 -0.1391 -0.1890
  586DPPI    C2 9272  17.226  16.280  10.582 -0.0548 -0.2231 -0.2435
  586DPPI    C3 9273  17.503  16.564  10.532 -0.1698 -0.0900 -0.1359
  586DPPI   PO4 9274  17.478  16.101  10.165 -0.0040  0.1163 -0.2431
  586DPPI   GL1 9275  17.471  15.710   9.811  0.0836  0.1841 -0.0812
  586DPPI   GL2 9276  17.731  15.908   9.804 -0.3336 -0.0756  0.0832
  586DPPI   C1A 9277  17.315  15.845   9.366 -0.1056  0.1010 -0.0990
  586DPPI   C2A 9278  17.389  16.064   9.108  0.2333  0.0118  0.0892
  586DPPI   C3A 9279  17.420  16.233   8.757 -0.2822 -0.2551  0.3852
  586DPPI   C4A 9280  17.417  16.598   8.549 -0.1535  0.0528 -0.1073
  586DPPI   C1B 9281  17.789  15.737   9.269  0.0491 -0.3717 -0.2509
  586DPPI   C2B 9282  17.817  15.875   8.894 -0.0495  0.1127 -0.3524
  586DPPI   C3B 9283  17.755  16.035   8.458 -0.0237  0.0613 -0.2318
  586DPPI   C4B 9284  17.696  16.192   8.064  0.0787  0.0406  0.2562
  587DPPI    C1 9285  13.461   6.145   9.710 -0.2823  0.3308 -0.0373
  587DPPI    C2 9286  13.712   6.352   9.942  0.0388  0.0826 -0.1554
  587DPPI    C3 9287  13.367   6.215  10.092  0.0654  0.2523  0.0657
  587DPPI   PO4 9288  13.356   6.316   9.495  0.2025 -0.1466  0.1120
  587DPPI   GL1 9289  13.017   6.439   9.402  0.1164  0.0016  0.1302
  587DPPI   GL2 9290  12.982   6.836   9.428  0.3496  0.0815 -0.1600
  587DPPI   C1A 9291  12.553   6.545   9.228 -0.2868  0.1137 -0.1192
  587DPPI   C2A 9292  12.412   6.353   8.802 -0.1412  0.0273  0.0027
  587DPPI   C3A 9293  12.493   6.217   8.355 -0.1793  0.1149 -0.3243
  587DPPI   C4A 9294  12.329   5.932   8.030  0.2142 -0.1516  0.3093
  587DPPI   C1B 9295  12.989   6.616   8.983  0.1305  0.2176  0.1109
  587DPPI   C2B 9296  12.881   6.444   8.584 -0.0445  0.1639 -0.0016
  587DPPI   C3B 9297  12.975   6.359   8.157  0.3603  0.1962  0.1800
  587DPPI   C4B 9298  12.763   6.194   7.834  0.1054 -0.1529  0.2213
  588DPPI    C1 9299  10.982  12.757  10.135 -0.0416 -0.0957 -0.1953
  588DPPI    C2 9300  10.616  12.861  10.258 -0.0085  0.0242 -0.1969
  588DPPI    C3 9301  10.883  12.721  10.521 -0.0334  0.0007 -0.1841
  588DPPI   PO4 9302  11.079  12.975   9.964  0.1050  0.1083 -0.1960
  588DPPI   GL1 9303  11.167  12.981   9.489 -0.0472 -0.4349  0.2120
  588DPPI   GL2 9304  11.291  12.729   9.532  0.1747 -0.0198 -0.2870
  588DPPI   C1A 9305  10.914  13.085   9.190  0.0927  0.0562 -0.1607
  588DPPI   C2A 9306  10.791  13.299   8.797  0.1584 -0.1735 -0.0329
  588DPPI   C3A 9307  10.826  13.645   8.654  0.0864  0.0685  0.0275
  588DPPI   C4A 9308  11.088  13.951   8.538  0.3517  0.0520  0.1414
  588DPPI   C1B 9309  11.365  12.787   9.120 -0.1386  0.0141 -0.2435
  588DPPI   C2B 9310  11.193  12.978   8.761 -0.1134 -0.2462 -0.1270
  588DPPI   C3B 9311  11.261  12.913   8.348 -0.0222 -0.2721  0.2924
  588DPPI   C4B 9312  11.276  13.015   7.936  0.0577  0.2181  0.0226
  589DPPI    C1 9313   9.209  12.831  10.326  0.0618  0.0012  0.3157
  589DPPI    C2 9314   9.300  12.495  10.128 -0.0252  0.0663  0.1635
  589DPPI    C3 9315   9.034  12.485  10.426 -0.0918  0.0151  0.1024
  589DPPI   PO4 9316   9.146  13.000  10.157 -0.1135  0.2607 -0.4060
  589DPPI   GL1 9317   9.366  12.972   9.664 -0.0813 -0.2667  0.2448
  589DPPI   GL2 9318   9.649  13.050   9.540 -0.0199  0.1577 -0.0021
  589DPPI   C1A 9319   9.071  12.863   9.315  0.1590 -0.1704 -0.0756
  589DPPI   C2A 9320   9.017  12.913   8.874  0.2375  0.0892  0.0707
  589DPPI   C3A 9321   8.984  12.994   8.458 -0.2287  0.2424  0.1429
  589DPPI   C4A 9322   8.887  12.942   8.065 -0.0784 -0.1036 -0.0147
  589DPPI   C1B 9323   9.438  13.164   9.108 -0.1275  0.0607  0.1292
  589DPPI   C2B 9324   9.412  13.183   8.690  0.1038 -0.1115 -0.1702
  589DPPI   C3B 9325   9.460  13.103   8.260 -0.1562  0.0297  0.2358
  589DPPI   C4B 9326   9.454  13.067   7.872 -0.1475 -0.1367 -0.2592
  590DPPI    C1 9327   6.671   3.033  10.334  0.0043 -0.0909 -0.0189
  590DPPI    C2 9328   6.928   3.119  10.628 -0.0808 -0.1403  0.0707
  590DPPI    C3 9329   6.540   3.064  10.711 -0.0842 -0.2773 -0.0327
  590DPPI   PO4 9330   6.798   2.793  10.188  0.1390  0.1749  0.1083
  590DPPI   GL1 9331   6.807   2.842   9.803 -0.2194 -0.0556  0.0725
  590DPPI   GL2 9332   6.577   3.198   9.807  0.1350 -0.2565 -0.1464
  590DPPI   C1A 9333   6.677   2.931   9.303 -0.0877 -0.0673 -0.0492
  590DPPI   C2A 9334   6.635   2.865   8.837  0.1311 -0.3851 -0.2652
  590DPPI   C3A 9335   6.397   2.883   8.452 -0.2714 -0.1474  0.0003
  590DPPI   C4A 9336   6.221   2.767   7.957 -0.0784 -0.0634  0.0980
  590DPPI   C1B 9337   7.052   3.213   9.615 -0.1002 -0.0900 -0.2888
  590DPPI   C2B 9338   7.013   3.385   9.099  0.0580  0.0853 -0.0824
  590DPPI   C3B 9339   7.269   3.418   8.831 -0.0708  0.3095  0.2310
  590DPPI   C4B 9340   7.547   3.286   8.470 -0.1366 -0.1014 -0.2428
  591DPPI    C1 9341   6.066   8.916  10.540  0.2091 -0.0783 -0.0560
  591DPPI    C2 9342   6.436   9.063  10.578  0.1858 -0.0658  0.1329
  591DPPI    C3 9343   6.136   9.302  10.464  0.3072 -0.1641 -0.4204
  591DPPI   PO4 9344   6.072   8.775  10.300  0.2769  0.2610 -0.1088
  591DPPI   GL1 9345   6.269   8.627   9.950 -0.2336  0.0343 -0.1657
  591DPPI   GL2 9346   6.521   8.595   9.828 -0.1214  0.0446 -0.0486
  591DPPI   C1A 9347   6.005   8.452   9.640 -0.2341 -0.0669 -0.2338
  591DPPI   C2A 9348   6.024   8.434   9.227  0.0561 -0.1874  0.0332
  591DPPI   C3A 9349   6.033   8.547   8.744 -0.0436  0.2868 -0.2210
  591DPPI   C4A 9350   6.159   8.594   8.405  0.1589 -0.1598  0.0543
  591DPPI   C1B 9351   6.863   8.699   9.583 -0.0313  0.3164 -0.1449
  591DPPI   C2B 9352   6.872   8.680   9.142 -0.1025  0.3498 -0.0992
  591DPPI   C3B 9353   7.090   8.531   8.690  0.1569  0.0643 -0.3308
  591DPPI   C4B 9354   7.582   8.602   8.570  0.0786  0.1584 -0.0006
  592DPPI    C1 9355  13.329   3.754  10.381  0.2538 -0.2352 -0.0099
  592DPPI    C2 9356  13.449   3.796  10.760  0.0549  0.0193  0.0282
  592DPPI    C3 9357  13.443   3.433  10.591 -0.1684 -0.1445  0.3749
  592DPPI   PO4 9358  13.343   3.929  10.198 -0.0452  0.1835  0.2399
  592DPPI   GL1 9359  13.048   3.949   9.913 -0.1500 -0.2556  0.2452
  592DPPI   GL2 9360  12.900   4.172   9.731 -0.0293 -0.1543 -0.0207
  592DPPI   C1A 9361  13.294   3.947   9.459  0.2393  0.0748 -0.0976
  592DPPI   C2A 9362  13.277   4.075   8.995 -0.0262  0.2164 -0.2164
  592DPPI   C3A 9363  13.373   3.791   8.571  0.1779  0.1232  0.1088
  592DPPI   C4A 9364  13.333   4.090   8.329 -0.0166  0.2234  0.0770
  592DPPI   C1B 9365  12.651   4.123   9.347 -0.0194 -0.2298 -0.1359
  592DPPI   C2B 9366  12.763   4.197   8.845 -0.1731 -0.0566  0.0353
  592DPPI   C3B 9367  12.843   4.109   8.465 -0.0534 -0.1866 -0.0924
  592DPPI   C4B 9368  12.987   4.370   8.132  0.0941 -0.2209  0.2290
  593DPPI    C1 9369  14.544   1.092  10.244 -0.2596 -0.2521 -0.2948
  593DPPI    C2 9370  14.917   1.214  10.321 -0.4115  0.0187  0.0408
  593DPPI    C3 9371  14.826   0.825  10.342 -0.1084 -0.0721 -0.2340
  593DPPI   PO4 9372  14.511   1.138  10.030 -0.0400 -0.2648 -0.1277
  593DPPI   GL1 9373  14.509   1.168   9.621  0.0408  0.1374 -0.4516
  593DPPI   GL2 9374  14.634   0.930   9.508 -0.2323  0.0538 -0.0035
  593DPPI   C1A 9375  14.464   1.479   9.361  0.1313 -0.1079  0.0006
  593DPPI   C2A 9376  14.378   1.463   8.930 -0.0474  0.2889  0.1234
  593DPPI   C3A 9377  14.449   1.309   8.441 -0.1733  0.3132 -0.2337
  593DPPI   C4A 9378  14.210   1.372   8.048 -0.0490 -0.1283 -0.1511
  593DPPI   C1B 9379  14.812   1.020   9.250 -0.3061  0.1433 -0.0696
  593DPPI   C2B 9380  14.968   1.135   8.842 -0.2251  0.0316  0.2841
  593DPPI   C3B 9381  15.218   0.847   8.609  0.1218 -0.0363 -0.0533
  593DPPI   C4B 9382  15.471   0.493   8.466  0.0741 -0.2684  0.0690
  594PYPI    C1 9383   6.410  13.094  10.030 -0.1130  0.2273  0.1892
  594PYPI    C2 9384   6.545  12.750  10.183 -0.3251 -0.0052 -0.1337
  594PYPI    C3 9385   6.299  12.982  10.398 -0.2062 -0.0689  0.0738
  594PYPI   PO4 9386   6.377  12.908   9.766  0.0114  0.0653  0.4020
  594PYPI   GL1 9387   6.522  12.811   9.343 -0.3643 -0.1028  0.1902
  594PYPI   GL2 9388   6.275  13.035   9.255 -0.1954  0.1056  0.0913
  594PYPI   C1A 9389   6.827  13.012   9.014 -0.2426 -0.0929 -0.1147
  594PYPI   C2A 9390   7.077  12.807   8.792 -0.1144 -0.0123  0.0910
  594PYPI   D3A 9391   7.333  12.571   8.479 -0.1108  0.2110 -0.0574
  594PYPI   C4A 9392   7.441  12.605   7.970  0.0792 -0.0743 -0.2422
  594PYPI   C1B 9393   6.367  13.167   8.796  0.0037  0.1003 -0.1743
  594PYPI   C2B 9394   6.741  13.058   8.490  0.0732  0.1227  0.5067
  594PYPI   C3B 9395   6.862  13.379   8.158 -0.0281  0.0200 -0.0710
  594PYPI   C4B 9396   6.964  13.621   7.856  0.1402  0.1543 -0.2760
  595PYPI    C1 9397  17.856  10.255  10.138  0.1539 -0.1297 -0.3606
  595PYPI    C2 9398  18.160  10.050  10.300 -0.0284 -0.1108  0.0159
  595PYPI    C3 9399  17.782   9.937  10.369 -0.1176  0.0583 -0.1834
  595PYPI   PO4 9400  17.953  10.526  10.167 -0.0027 -0.1106 -0.1976
  595PYPI   GL1 9401  18.132  10.643   9.829 -0.3260 -0.1173 -0.1779
  595PYPI   GL2 9402  17.968  10.987   9.701  0.1750 -0.1983  0.0645
  595PYPI   C1A 9403  18.139  10.590   9.321 -0.0776 -0.0593 -0.2677
  595PYPI   C2A 9404  18.190  10.683   8.985  0.0548 -0.0190  0.1370
  595PYPI   D3A 9405  18.208  10.869   8.564 -0.0417  0.0585  0.0385
  595PYPI   C4A 9406  18.506  10.788   8.331  0.0676  0.2767  0.1111
  595PYPI   C1B 9407  18.073  11.076   9.448 -0.1163  0.1373  0.2350
  595PYPI   C2B 9408  18.028  11.170   9.025  0.1437 -0.0644 -0.3263
  595PYPI   C3B 9409  18.139  11.381   8.601  0.0960 -0.1524 -0.1536
  595PYPI   C4B 9410  18.277  11.220   8.228 -0.1104 -0.3540  0.0384
  596PYPI    C1 9411  12.734  11.916   9.827  0.0902 -0.1412  0.1309
  596PYPI    C2 9412  12.565  11.559   9.889 -0.5529  0.1291  0.0148
  596PYPI    C3 9413  12.632  11.804  10.198  0.0801 -0.1606  0.1223
  596PYPI   PO4 9414  12.627  12.056   9.618 -0.2562  0.0076  0.3309
  596PYPI   GL1 9415  12.339  11.833   9.409 -0.0167  0.1983  0.1707
  596PYPI   GL2 9416  12.524  11.642   9.242 -0.3056 -0.1803  0.0284
  596PYPI   C1A 9417  12.252  11.985   8.947  0.1725 -0.1517  0.1319
  596PYPI   C2A 9418  12.237  12.041   8.546 -0.4521  0.4529  0.0009
  596PYPI   D3A 9419  12.196  11.836   8.202  0.0378 -0.3944  0.2372
  596PYPI   C4A 9420  11.963  11.883   7.879 -0.4068  0.1404  0.1709
  596PYPI   C1B 9421  12.347  11.522   8.802 -0.3744 -0.0007 -0.3097
  596PYPI   C2B 9422  12.094  11.436   8.423  0.0352  0.0163  0.1618
  596PYPI   C3B 9423  12.174  11.323   7.938  0.3125 -0.4537  0.1798
  596PYPI   C4B 9424  12.319  11.372   7.516  0.3287 -0.0479  0.1973
  597PYPI    C1 9425   4.878  12.639   9.829  0.3185  0.0250  0.1701
  597PYPI    C2 9426   4.809  12.304  10.036 -0.0320  0.0157  0.0448
  597PYPI    C3 9427   4.504  12.506   9.874  0.1949  0.2853 -0.0553
  597PYPI   PO4 9428   5.093  12.657   9.532 -0.1136  0.0133 -0.2061
  597PYPI   GL1 9429   5.529  12.497   9.372  0.0197  0.3391  0.0087
  597PYPI   GL2 9430   5.653  12.162   9.390  0.0003 -0.1772  0.1167
  597PYPI   C1A 9431   5.468  12.640   8.924 -0.0149 -0.4887 -0.2628
  597PYPI   C2A 9432   5.695  12.712   8.652 -0.1325  0.0982 -0.0653
  597PYPI   D3A 9433   6.038  12.843   8.593  0.0052  0.0721  0.1215
  597PYPI   C4A 9434   6.339  12.667   8.275  0.2765  0.1907  0.1126
  597PYPI   C1B 9435   5.735  11.908   8.959 -0.2556  0.1009 -0.0351
  597PYPI   C2B 9436   5.473  11.663   8.765 -0.1875 -0.2155 -0.2758
  597PYPI   C3B 9437   5.411  11.784   8.358  0.0786 -0.3086 -0.0450
  597PYPI   C4B 9438   5.390  11.911   7.910  0.0753 -0.0640 -0.2109
  598PYPI    C1 9439  12.120  11.272   9.945  0.1338  0.1190  0.0395
  598PYPI    C2 9440  11.980  11.619   9.807 -0.2296 -0.0125  0.0670
  598PYPI    C3 9441  12.101  11.590  10.187 -0.0453  0.1241  0.0201
  598PYPI   PO4 9442  12.204  11.209   9.774  0.2763  0.1324 -0.0254
  598PYPI   GL1 9443  12.267  11.253   9.346 -0.0782 -0.2306 -0.0751
  598PYPI   GL2 9444  12.043  11.093   9.266 -0.0317 -0.0298  0.1588
  598PYPI   C1A 9445  12.779  11.310   9.041  0.0154  0.0284  0.0506
  598PYPI   C2A 9446  12.931  11.345   8.615 -0.0602  0.0407  0.2190
  598PYPI   D3A 9447  13.025  11.502   8.127 -0.3592 -0.0849 -0.3203
  598PYPI   C4A 9448  13.092  11.297   7.731 -0.1231 -0.1049 -0.2074
  598PYPI   C1B 9449  12.076  11.056   8.856 -0.1359  0.0756 -0.2959
  598PYPI   C2B 9450  12.128  10.931   8.373  0.1036  0.0616  0.3186
  598PYPI   C3B 9451  12.330  10.778   7.908 -0.2965  0.0370  0.0763
  598PYPI   C4B 9452  12.461  10.522   7.585  0.1540 -0.1150 -0.0838
  599PYPI    C1 9453   9.788  10.494  10.090 -0.0310 -0.1716  0.0870
  599PYPI    C2 9454   9.896  10.681  10.427  0.1341 -0.0179 -0.0490
  599PYPI    C3 9455   9.576  10.441  10.425  0.1363 -0.0260  0.2180
  599PYPI   PO4 9456   9.757  10.648   9.947  0.2296 -0.2534  0.2680
  599PYPI   GL1 9457   9.611  10.592   9.563 -0.0275  0.0991  0.0629
  599PYPI   GL2 9458   9.517  10.900   9.591 -0.0620  0.2394  0.0020
  599PYPI   C1A 9459   9.827  10.351   9.208 -0.0231 -0.0986  0.0460
  599PYPI   C2A 9460  10.145  10.414   8.823  0.1007 -0.2478 -0.1539
  599PYPI   D3A 9461  10.542  10.492   8.747 -0.1662 -0.0999  0.3217
  599PYPI   C4A 9462  10.790  10.680   8.339  0.2349  0.0730  0.3162
  599PYPI   C1B 9463   9.696  10.840   9.080 -0.0803  0.2056 -0.1699
  599PYPI   C2B 9464   9.697  10.644   8.662 -0.4501 -0.0780 -0.0670
  599PYPI   C3B 9465   9.614  10.232   8.755 -0.1496  0.0731 -0.2730
  599PYPI   C4B 9466   9.452   9.944   8.507  0.0041  0.2923  0.1760
  600PYPI    C1 9467  12.273   0.213  10.021 -0.3461 -0.0637  0.0277
  600PYPI    C2 9468  12.188   0.258  10.409  0.0100  0.2354  0.0766
  600PYPI    C3 9469  12.503   0.038  10.298 -0.0502  0.2074 -0.0409
  600PYPI   PO4 9470  12.083   0.149   9.867  0.1637  0.0185 -0.2671
  600PYPI   GL1 9471  12.027   0.068   9.440 -0.0512  0.1114 -0.0654
  600PYPI   GL2 9472  11.664  -0.040   9.484  0.0864  0.0739 -0.1133
  600PYPI   C1A 9473  11.908   0.147   9.115 -0.2992  0.1141  0.0243
  600PYPI   C2A 9474  11.901   0.123   8.707 -0.3291  0.0596  0.0238
  600PYPI   D3A 9475  12.036   0.239   8.316 -0.0058 -0.0739  0.0625
  600PYPI   C4A 9476  12.133   0.194   7.824  0.1640 -0.3832  0.0760
  600PYPI   C1B 9477  11.422  -0.200   9.074 -0.2073 -0.0750 -0.1014
  600PYPI   C2B 9478  11.463  -0.148   8.623  0.1707 -0.2266  0.4848
  600PYPI   C3B 9479  11.441   0.130   8.292  0.0880  0.5203 -0.2194
  600PYPI   C4B 9480  11.456   0.353   7.893 -0.2635 -0.0597 -0.0641
  601PYPI    C1 9481  12.219   1.018  10.372  0.1082  0.1052 -0.0988
  601PYPI    C2 9482  12.390   1.377  10.411 -0.0692  0.1593  0.2124
  601PYPI    C3 9483  12.232   1.195  10.730 -0.3596 -0.0061 -0.0206
  601PYPI   PO4 9484  12.080   1.033  10.159 -0.2365 -0.0780 -0.2336
  601PYPI   GL1 9485  12.098   0.868   9.646  0.1077  0.1095  0.2094
  601PYPI   GL2 9486  11.737   0.919   9.596 -0.4160  0.0209  0.0058
  601PYPI   C1A 9487  12.037   0.586   9.326  0.3222 -0.1448 -0.0395
  601PYPI   C2A 9488  11.875   0.673   9.010 -0.0411  0.0921  0.1521
  601PYPI   D3A 9489  11.938   0.655   8.572 -0.2204 -0.2951 -0.1201
  601PYPI   C4A 9490  11.775   0.704   8.116 -0.2022 -0.2132 -0.0968
  601PYPI   C1B 9491  11.788   1.116   9.245 -0.0788  0.1001 -0.0962
  601PYPI   C2B 9492  11.946   1.218   8.814 -0.0195  0.0974  0.0223
  601PYPI   C3B 9493  11.985   1.262   8.336  0.1691  0.2875  0.1466
  601PYPI   C4B 9494  12.037   1.169   7.884  0.0832 -0.0065 -0.0391
  602PYPI    C1 9495  16.511   1.935   9.929 -0.1994 -0.0406 -0.1063
  602PYPI    C2 9496  16.377   2.298  10.031  0.1026  0.0132  0.1146
  602PYPI    C3 9497  16.415   2.014  10.310  0.2163 -0.0741  0.0113
  602PYPI   PO4 9498  16.748   1.999   9.880  0.3326 -0.1067  0.0555
  602PYPI   GL1 9499  16.942   1.876   9.571 -0.3290 -0.0022 -0.1774
  602PYPI   GL2 9500  17.052   1.651   9.465 -0.1543  0.4192 -0.1991
  602PYPI   C1A 9501  16.656   1.827   9.250 -0.1083  0.0030  0.1574
  602PYPI   C2A 9502  16.626   1.422   9.042 -0.0167  0.5633 -0.0951
  602PYPI   D3A 9503  16.811   1.334   8.688  0.4345  0.0773  0.0444
  602PYPI   C4A 9504  16.885   0.909   8.474 -0.1051 -0.0479 -0.0909
  602PYPI   C1B 9505  17.100   1.659   9.058  0.2695  0.4640 -0.1921
  602PYPI   C2B 9506  17.259   1.590   8.700  0.0869  0.2557 -0.0186
  602PYPI   C3B 9507  17.085   1.745   8.318  0.1165 -0.0439 -0.1380
  602PYPI   C4B 9508  17.069   1.636   7.855  0.2452  0.1266  0.2212
  603PYPI    C1 9509  15.216  17.153  10.346  0.3269 -0.0223  0.0268
  603PYPI    C2 9510  15.277  17.549  10.340  0.2685 -0.0135  0.0134
  603PYPI    C3 9511  15.322  17.344  10.681  0.1280  0.0317  0.0599
  603PYPI   PO4 9512  15.179  17.125  10.065  0.3206 -0.2330  0.0275
  603PYPI   GL1 9513  15.173  17.148   9.593  0.1451 -0.0267 -0.0170
  603PYPI   GL2 9514  14.930  17.056   9.245 -0.2329 -0.1418 -0.3540
  603PYPI   C1A 9515  15.281  17.450   9.270  0.0137  0.4959 -0.3061
  603PYPI   C2A 9516  15.273  17.621   8.877 -0.4591  0.0209 -0.1129
  603PYPI   D3A 9517  15.326  17.416   8.557 -0.1783  0.0259  0.0169
  603PYPI   C4A 9518  15.212  17.377   8.055  0.1949  0.2538  0.1144
  603PYPI   C1B 9519  15.067  17.105   8.890 -0.3151  0.0480  0.1437
  603PYPI   C2B 9520  14.819  17.103   8.439 -0.1083  0.1061 -0.0540
  603PYPI   C3B 9521  14.649  17.228   8.053 -0.0634 -0.3278  0.2201
  603PYPI   C4B 9522  14.635  17.142   7.539 -0.3122  0.0360  0.0406
  604PYPI    C1 9523   7.213   4.792  10.009 -0.1188 -0.0743 -0.2003
  604PYPI    C2 9524   7.492   4.619   9.782 -0.1065  0.0696 -0.2965
  604PYPI    C3 9525   7.214   4.395   9.962  0.1439 -0.0875 -0.0988
  604PYPI   PO4 9526   7.098   5.020   9.849 -0.5801 -0.1354 -0.0415
  604PYPI   GL1 9527   7.192   5.142   9.467  0.0778 -0.1435 -0.2808
  604PYPI   GL2 9528   6.868   5.361   9.482 -0.1142 -0.0642 -0.2721
  604PYPI   C1A 9529   7.217   5.135   8.944  0.2050 -0.0551 -0.1746
  604PYPI   C2A 9530   7.339   5.084   8.456 -0.0215  0.1092 -0.1230
  604PYPI   D3A 9531   7.288   4.738   8.257 -0.3159 -0.1089  0.1621
  604PYPI   C4A 9532   6.980   4.573   7.875  0.1213 -0.0788  0.1420
  604PYPI   C1B 9533   6.862   5.427   9.083  0.0028  0.2979 -0.0802
  604PYPI   C2B 9534   6.914   5.401   8.699 -0.2378  0.0460 -0.2403
  604PYPI   C3B 9535   7.070   5.459   8.255  0.0348 -0.0282  0.0665
  604PYPI   C4B 9536   7.013   5.799   7.938 -0.2366 -0.0515 -0.0645
  605PYPI    C1 9537   5.468   0.487  10.169 -0.2333 -0.3438 -0.0197
  605PYPI    C2 9538   5.111   0.500  10.349 -0.0631 -0.0517  0.3097
  605PYPI    C3 9539   5.443   0.579  10.557  0.1660  0.0219 -0.0727
  605PYPI   PO4 9540   5.564   0.606   9.941 -0.4963 -0.0691  0.0596
  605PYPI   GL1 9541   5.569   0.640   9.508  0.1463  0.0610  0.2203
  605PYPI   GL2 9542   5.846   0.810   9.400 -0.1886 -0.2646 -0.0710
  605PYPI   C1A 9543   5.737   0.381   9.118 -0.3887 -0.2745 -0.1160
  605PYPI   C2A 9544   5.935   0.359   8.745 -0.0089 -0.0181 -0.2292
  605PYPI   D3A 9545   6.103   0.676   8.459 -0.3163 -0.1652 -0.0073
  605PYPI   C4A 9546   6.185   0.741   8.087 -0.2727 -0.2378  0.1905
  605PYPI   C1B 9547   5.794   0.881   8.936  0.2081 -0.1880 -0.0041
  605PYPI   C2B 9548   5.883   1.073   8.576  0.0728  0.1770  0.0199
  605PYPI   C3B 9549   5.947   1.125   8.195 -0.3657 -0.3605  0.0679
  605PYPI   C4B 9550   6.149   1.471   7.902 -0.0736  0.1600 -0.0275
  606PYPI    C1 9551   1.994   3.020  10.465  0.0428  0.1306 -0.0528
  606PYPI    C2 9552   2.148   3.139  10.115 -0.0721  0.0410 -0.1346
  606PYPI    C3 9553   2.337   3.224  10.457  0.1371 -0.0318 -0.2310
  606PYPI   PO4 9554   1.907   2.692  10.256 -0.2421 -0.0973  0.0908
  606PYPI   GL1 9555   1.761   2.761   9.870 -0.1786 -0.2941 -0.3300
  606PYPI   GL2 9556   1.356   2.727   9.842 -0.3858  0.1056  0.0261
  606PYPI   C1A 9557   1.905   3.164   9.522  0.0276 -0.0371 -0.2811
  606PYPI   C2A 9558   1.809   3.159   9.028  0.0206 -0.0351  0.1266
  606PYPI   D3A 9559   1.935   3.201   8.587 -0.1502 -0.3497  0.0789
  606PYPI   C4A 9560   1.828   3.401   8.360  0.5815  0.0533  0.0756
  606PYPI   C1B 9561   1.514   2.746   9.415 -0.1614 -0.1322  0.2051
  606PYPI   C2B 9562   1.550   2.758   8.931  0.1182 -0.1229 -0.0071
  606PYPI   C3B 9563   1.546   2.614   8.469 -0.1841  0.2657 -0.1949
  606PYPI   C4B 9564   1.284   2.819   7.987  0.2344  0.1758  0.0774
  607ERGO   ROH 9565   7.965   8.677   9.944  0.2391  0.0403  0.0838
  607ERGO    R1 9566   7.909   8.660   9.667  0.1924 -0.1012  0.1008
  607ERGO    R2 9567   7.813   8.874   9.521 -0.1494 -0.2650  0.0735
  607ERGO    R3 9568   8.028   8.821   9.363 -0.1097  0.0019  0.0350
  607ERGO    R4 9569   7.796   8.797   9.184 -0.1145 -0.3359  0.0879
  607ERGO    R5 9570   7.953   8.648   9.216  0.0941 -0.1218  0.0758
  607ERGO    C1 9571   7.989   8.703   8.840 -0.0570 -0.1266  0.0603
  607ERGO    C2 9572   8.116   8.680   8.503  0.0027 -0.3333 -0.0830
  608ERGO   ROH 9573  17.289  12.865   9.627  0.0148  0.0607  0.1023
  608ERGO    R1 9574  17.369  12.851   9.355  0.1458  0.1087  0.1379
  608ERGO    R2 9575  17.188  12.826   9.148  0.2593 -0.1386  0.0645
  608ERGO    R3 9576  17.315  13.047   9.054  0.0415 -0.0025  0.0840
  608ERGO    R4 9577  17.261  12.885   8.815  0.0513  0.0493  0.0499
  608ERGO    R5 9578  17.454  12.965   8.877  0.0195  0.1753 -0.0168
  608ERGO    C1 9579  17.422  13.127   8.533 -0.2744  0.2865  0.0598
  608ERGO    C2 9580  17.266  13.259   8.151  0.0913  0.1480 -0.1278
  609ERGO   ROH 9581   6.526   4.464   9.399 -0.0262 -0.1625 -0.0312
  609ERGO    R1 9582   6.524   4.525   9.123 -0.1086 -0.0324 -0.0030
  609ERGO    R2 9583   6.621   4.351   8.931  0.0540  0.1534 -0.0953
  609ERGO    R3 9584   6.375   4.385   8.822  0.0085 -0.0428 -0.0559
  609ERGO    R4 9585   6.555   4.367   8.592 -0.0035  0.2083 -0.0816
  609ERGO    R5 9586   6.412   4.526   8.632 -0.1494  0.0579 -0.0115
  609ERGO    C1 9587   6.285   4.408   8.292 -0.0796  0.0561 -0.0367
  609ERGO    C2 9588   6.192   4.595   7.990  0.0121  0.1076 -0.0050
  610ERGO   ROH 9589  16.359   5.410   9.749  0.0566 -0.3579  0.1005
  610ERGO    R1 9590  16.447   5.428   9.480  0.0779 -0.4302  0.1031
  610ERGO    R2 9591  16.458   5.208   9.313 -0.3108 -0.4048  0.0381
  610ERGO    R3 9592  16.305   5.364   9.151 -0.0494 -0.0868  0.0870
  610ERGO    R4 9593  16.486   5.224   8.969 -0.2451 -0.3072  0.0474
  610ERGO    R5 9594  16.456   5.440   8.981  0.0966 -0.2539  0.1350
  610ERGO    C1 9595  16.359   5.381   8.617  0.0386  0.0481  0.0986
  610ERGO    C2 9596  16.278   5.358   8.369  0.0448  0.0610  0.1193
  611ERGO   ROH 9597   3.817  12.159   9.487  0.0311 -0.0990  0.0543
  611ERGO    R1 9598   3.680  12.076   9.253  0.1804 -0.2515  0.0186
  611ERGO    R2 9599   3.511  12.244   9.113 -0.0936 -0.4821  0.0659
  611ERGO    R3 9600   3.670  12.176   8.903  0.0367 -0.1481  0.0504
  611ERGO    R4 9601   3.419  12.262   8.780 -0.0867 -0.4600  0.0652
  611ERGO    R5 9602   3.522  12.073   8.746  0.2019 -0.2976 -0.0134
  611ERGO    C1 9603   3.516  12.208   8.390  0.0396 -0.1335  0.0504
  611ERGO    C2 9604   3.657  12.384   8.215 -0.2777 -0.0609 -0.0740
  612ERGO   ROH 9605  10.418   3.264   9.730  0.0120  0.2020  0.1312
  612ERGO    R1 9606  10.377   3.230   9.452 -0.1836  0.1476  0.1658
  612ERGO    R2 9607  10.280   3.432   9.290 -0.1771  0.1558  0.1745
  612ERGO    R3 9608  10.504   3.381   9.146 -0.2959 -0.0054  0.0424
  612ERGO    R4 9609  10.305   3.465   8.947 -0.2996  0.3211  0.1791
  612ERGO    R5 9610  10.423   3.281   8.943 -0.4968  0.1938  0.0210
  612ERGO    C1 9611  10.531   3.435   8.612 -0.4826  0.2659  0.0579
  612ERGO    C2 9612  10.588   3.360   8.369  0.3739 -0.1038 -0.3710
  613ERGO   ROH 9613   6.207  11.375   9.058 -0.1317  0.0904  0.1156
  613ERGO    R1 9614   6.122  11.559   8.860  0.0998  0.0648 -0.0112
  613ERGO    R2 9615   6.260  11.598   8.624  0.0832 -0.3650 -0.0968
  613ERGO    R3 9616   6.018  11.544   8.512 -0.0514 -0.0652  0.0384
  613ERGO    R4 9617   6.130  11.759   8.347  0.1754 -0.2699 -0.0855
  613ERGO    R5 9618   5.935  11.758   8.444  0.2152  0.0347  0.0116
  613ERGO    C1 9619   5.827  11.802   8.081  0.1027  0.0669  0.0480
  613ERGO    C2 9620   5.850  11.911   7.737  0.0567  0.0831 -0.0561
  614ERGO   ROH 9621  11.047   7.964   9.590 -0.0078  0.0768 -0.0500
  614ERGO    R1 9622  10.923   7.996   9.338  0.0303  0.2118 -0.0533
  614ERGO    R2 9623  10.947   8.227   9.188  0.3738  0.1523 -0.1037
  614ERGO    R3 9624  11.031   8.055   8.996  0.1138 -0.0199 -0.0671
  614ERGO    R4 9625  10.920   8.281   8.848  0.1781 -0.0280 -0.1181
  614ERGO    R5 9626  10.866   8.072   8.824  0.0083 -0.0016  0.0384
  614ERGO    C1 9627  10.983   8.151   8.469 -0.1799 -0.2947 -0.0920
  614ERGO    C2 9628  10.966   8.215   8.155  0.0359  0.1214  0.2013
  615ERGO   ROH 9629  12.392   0.459   9.599 -0.0056  0.1440 -0.0791
  615ERGO    R1 9630  12.499   0.405   9.342  0.0419  0.3423 -0.1021
  615ERGO    R2 9631  12.368   0.248   9.156  0.2931  0.0906 -0.0703
  615ERGO    R3 9632  12.400   0.466   8.997 -0.1512  0.1574 -0.0824
  615ERGO    R4 9633  12.392   0.240   8.811  0.5446  0.0810 -0.0540
  615ERGO    R5 9634  12.547   0.392   8.824  0.1637  0.4879  0.0285
  615ERGO    C1 9635  12.437   0.441   8.462  0.2740  0.1380 -0.0559
  615ERGO    C2 9636  12.458   0.434   8.070  0.2391  0.2012 -0.0201
  616ERGO   ROH 9637   3.645  10.348   9.960  0.1919 -0.0839 -0.0043
  616ERGO    R1 9638   3.585  10.538   9.758  0.1495 -0.1572 -0.0613
  616ERGO    R2 9639   3.707  10.534   9.510  0.1700 -0.1888 -0.0524
  616ERGO    R3 9640   3.450  10.530   9.420  0.1772 -0.2925 -0.0696
  616ERGO    R4 9641   3.605  10.643   9.199  0.1088  0.0113  0.0365
  616ERGO    R5 9642   3.429  10.732   9.293  0.0407 -0.1948  0.1044
  616ERGO    C1 9643   3.305  10.704   8.933  0.0799  0.0304  0.0721
  616ERGO    C2 9644   3.521  10.702   8.648 -0.1396 -0.1190 -0.0250
  617ERGO   ROH 9645   7.852   6.668   9.382  0.3166 -0.3779 -0.0340
  617ERGO    R1 9646   7.733   6.667   9.125  0.1707 -0.5118  0.0330
  617ERGO    R2 9647   7.781   6.864   8.937 -0.3502 -0.3132  0.0902
  617ERGO    R3 9648   7.849   6.653   8.780  0.0145 -0.1091 -0.0409
  617ERGO    R4 9649   7.782   6.867   8.592 -0.2764 -0.0896  0.0896
  617ERGO    R5 9650   7.698   6.666   8.595  0.0348 -0.2247 -0.0632
  617ERGO    C1 9651   7.845   6.670   8.243  0.1090  0.2322 -0.0337
  617ERGO    C2 9652   7.856   6.638   7.885  0.0215  0.1881 -0.2631
  618ERGO   ROH 9653   9.239   4.867  10.131  0.1607 -0.0594 -0.0404
  618ERGO    R1 9654   9.218   4.802   9.856 -0.0461  0.0214 -0.0455
  618ERGO    R2 9655   9.019   4.904   9.694 -0.0612  0.2140  0.0924
  618ERGO    R3 9656   9.229   4.983   9.540 -0.0873  0.0884 -0.0095
  618ERGO    R4 9657   8.995   5.009   9.366 -0.1694  0.2682  0.1173
  618ERGO    R5 9658   9.178   4.899   9.322 -0.2645  0.1465  0.0062
  618ERGO    C1 9659   9.178   5.145   9.030 -0.2570  0.1819  0.0362
  618ERGO    C2 9660   8.997   5.134   8.813 -0.1683  0.1009  0.0156
  619ERGO   ROH 9661   7.147   5.750   9.700 -0.2024 -0.3168 -0.0926
  619ERGO    R1 9662   7.287   5.791   9.457 -0.1638 -0.0130 -0.0209
  619ERGO    R2 9663   7.313   5.594   9.265  0.1880  0.1077 -0.0940
  619ERGO    R3 9664   7.208   5.785   9.102 -0.0140  0.0319 -0.0578
  619ERGO    R4 9665   7.363   5.612   8.924  0.2685  0.2748 -0.0758
  619ERGO    R5 9666   7.381   5.828   8.942 -0.0128  0.3031  0.0036
  619ERGO    C1 9667   7.293   5.801   8.572  0.1256  0.3009 -0.0311
  619ERGO    C2 9668   7.473   5.798   8.239 -0.1061 -0.1504  0.3889
  620ERGO   ROH 9669   4.211  11.236   9.760 -0.2021  0.0265 -0.0130
  620ERGO    R1 9670   4.170  11.311   9.490 -0.1558 -0.0273 -0.0345
  620ERGO    R2 9671   4.363  11.441   9.341 -0.1200 -0.0889 -0.0355
  620ERGO    R3 9672   4.324  11.235   9.169 -0.1255 -0.1186 -0.0001
  620ERGO    R4 9673   4.333  11.473   8.998  0.2611 -0.1762 -0.0824
  620ERGO    R5 9674   4.175  11.323   9.003  0.1172 -0.0389 -0.1871
  620ERGO    C1 9675   4.278  11.298   8.637  0.4778 -0.2550 -0.0764
  620ERGO    C2 9676   4.497  11.488   8.469 -0.0669  0.2176 -0.1302
  621ERGO   ROH 9677   0.923   7.043   9.431  0.4235 -0.2584 -0.1419
  621ERGO    R1 9678   1.063   7.055   9.186  0.2537 -0.1583 -0.2357
  621ERGO    R2 9679   0.942   7.001   8.943  0.0620  0.0324 -0.1851
  621ERGO    R3 9680   1.039   7.246   8.877  0.1008  0.0391 -0.1046
  621ERGO    R4 9681   0.880   7.163   8.644 -0.0184  0.1926 -0.0829
  621ERGO    R5 9682   1.089   7.229   8.643  0.0006  0.1375 -0.1348
  621ERGO    C1 9683   0.936   7.488   8.408 -0.0288  0.2922  0.0523
  621ERGO    C2 9684   0.743   7.346   8.078 -0.0566  0.1085  0.1477
  622ERGO   ROH 9685  10.667  16.278   9.498 -0.1555 -0.1123 -0.0528
  622ERGO    R1 9686  10.823  16.246   9.264 -0.1122 -0.1749 -0.0168
  622ERGO    R2 9687  10.736  16.100   9.046 -0.1835 -0.0200 -0.0987
  622ERGO    R3 9688  10.791  16.330   8.911  0.0703 -0.0187  0.0033
  622ERGO    R4 9689  10.803  16.120   8.707 -0.1084  0.0564 -0.0789
  622ERGO    R5 9690  10.958  16.267   8.752  0.0318 -0.1179  0.0060
  622ERGO    C1 9691  10.894  16.347   8.384  0.1735  0.1023  0.0284
  622ERGO    C2 9692  11.002  16.433   8.090 -0.2080 -0.0447  0.0289
  623ERGO   ROH 9693   0.207   6.410   9.401  0.0673 -0.1793  0.0819
  623ERGO    R1 9694   0.226   6.273   9.153  0.1196  0.0744 -0.0556
  623ERGO    R2 9695   0.015   6.132   9.045  0.2494 -0.0937 -0.0719
  623ERGO    R3 9696   0.063   6.289   8.829 -0.0653  0.1659  0.0381
  623ERGO    R4 9697  -0.018   6.030   8.716  0.2611  0.1248 -0.1437
  623ERGO    R5 9698   0.164   6.142   8.669  0.0905  0.4352 -0.1283
  623ERGO    C1 9699   0.007   6.120   8.322 -0.0275  0.4957 -0.0822
  623ERGO    C2 9700   0.033   6.085   8.015  0.1653 -0.2663  0.1388
  624ERGO   ROH 9701  17.466   6.102   9.642 -0.1479 -0.0274 -0.0862
  624ERGO    R1 9702  17.449   5.985   9.385 -0.1516 -0.0826 -0.0603
  624ERGO    R2 9703  17.208   5.908   9.272 -0.1904  0.2056 -0.1766
  624ERGO    R3 9704  17.290   6.066   9.067  0.1436  0.0354 -0.1822
  624ERGO    R4 9705  17.190   5.824   8.937 -0.2744  0.1855 -0.1675
  624ERGO    R5 9706  17.386   5.915   8.909 -0.0940 -0.1689 -0.1403
  624ERGO    C1 9707  17.256   5.925   8.550 -0.0096  0.0138 -0.1675
  624ERGO    C2 9708  17.369   6.049   8.336 -0.1708 -0.0811 -0.0475
  625ERGO   ROH 9709  11.860  15.254   9.289  0.1629  0.0842 -0.0139
  625ERGO    R1 9710  11.934  15.333   9.028  0.1334  0.0276 -0.0401
  625ERGO    R2 9711  11.983  15.152   8.826  0.0535 -0.0170 -0.0246
  625ERGO    R3 9712  11.798  15.299   8.692  0.0609  0.0076 -0.0073
  625ERGO    R4 9713  11.952  15.162   8.482 -0.0196 -0.0445 -0.0191
  625ERGO    R5 9714  11.914  15.377   8.497  0.0325 -0.0400 -0.0386
  625ERGO    C1 9715  11.760  15.306   8.156 -0.0553 -0.0374  0.0003
  625ERGO    C2 9716  11.822  15.336   7.815  0.0348 -0.1773  0.1525
  626ERGO   ROH 9717  13.700   9.928   9.241 -0.0765  0.2062  0.0055
  626ERGO    R1 9718  13.672  10.056   8.991 -0.0976  0.1656 -0.0130
  626ERGO    R2 9719  13.829  10.271   8.915 -0.0366  0.0916 -0.1004
  626ERGO    R3 9720  13.882  10.115   8.699 -0.1557  0.0265 -0.0835
  626ERGO    R4 9721  13.887  10.389   8.596 -0.1756 -0.0043 -0.1624
  626ERGO    R5 9722  13.769  10.223   8.518 -0.2299 -0.0129 -0.0604
  626ERGO    C1 9723  13.971  10.312   8.207 -0.3684 -0.1214 -0.1829
  626ERGO    C2 9724  14.097  10.536   8.000  0.1550  0.0339  0.3133
  627ERGO   ROH 9725   4.114  10.213   9.710  0.2535  0.0471  0.1399
  627ERGO    R1 9726   4.210  10.316   9.464  0.1297 -0.0694  0.0414
  627ERGO    R2 9727   4.224  10.164   9.234 -0.1747 -0.1228  0.0559
  627ERGO    R3 9728   4.077  10.367   9.129 -0.1093 -0.0311  0.1390
  627ERGO    R4 9729   4.163  10.210   8.897 -0.1899  0.0107  0.0760
  627ERGO    R5 9730   4.191  10.424   8.926 -0.1058 -0.0068  0.1458
  627ERGO    C1 9731   3.990  10.427   8.603 -0.1374  0.1747  0.1656
  627ERGO    C2 9732   3.808  10.464   8.332 -0.0856  0.0795 -0.0823
  628ERGO   ROH 9733   9.448  16.901   8.922 -0.1247 -0.2523 -0.1684
  628ERGO    R1 9734   9.565  16.879   8.666 -0.0915  0.0106 -0.1785
  628ERGO    R2 9735   9.475  16.701   8.475  0.1627 -0.0554 -0.2445
  628ERGO    R3 9736   9.458  16.924   8.321 -0.1607 -0.0172 -0.1601
  628ERGO    R4 9737   9.453  16.700   8.130  0.3414  0.0472 -0.2567
  628ERGO    R5 9738   9.588  16.872   8.127  0.0373  0.2979 -0.1169
  628ERGO    C1 9739   9.424  16.909   7.784  0.1418  0.1429 -0.1847
  628ERGO    C2 9740   9.366  16.791   7.461 -0.1197 -0.2037 -0.2227
  629ERGO   ROH 9741   6.458   3.403   9.393  0.0456 -0.0979  0.0601
  629ERGO    R1 9742   6.455   3.502   9.128 -0.2645 -0.0597  0.0757
  629ERGO    R2 9743   6.591   3.380   8.921  0.0086  0.3118  0.0343
  629ERGO    R3 9744   6.347   3.383   8.802 -0.0373 -0.2881  0.0784
  629ERGO    R4 9745   6.537   3.351   8.581  0.0606  0.4510  0.0128
  629ERGO    R5 9746   6.382   3.503   8.598 -0.3962  0.0086  0.1737
  629ERGO    C1 9747   6.276   3.338   8.271  0.0479 -0.0310  0.0416
  629ERGO    C2 9748   6.351   3.287   7.939 -0.0228  0.1771 -0.0651
  630ERGO   ROH 9749   2.645   7.123   9.551 -0.1035 -0.0321 -0.1698
  630ERGO    R1 9750   2.603   7.047   9.282 -0.1091 -0.0285 -0.1716
  630ERGO    R2 9751   2.407   7.160   9.124 -0.1597 -0.0702 -0.1510
  630ERGO    R3 9752   2.615   7.208   8.956 -0.1844 -0.0028 -0.1599
  630ERGO    R4 9753   2.405   7.096   8.784 -0.2044  0.0902 -0.1802
  630ERGO    R5 9754   2.610   7.025   8.802 -0.2111  0.0750 -0.2447
  630ERGO    C1 9755   2.599   7.104   8.429 -0.2537  0.2469 -0.2053
  630ERGO    C2 9756   2.471   6.924   8.165  0.2068 -0.1149 -0.1510
  631ERGO   ROH 9757   2.031  18.133   9.906  0.0397 -0.3419  0.0841
  631ERGO    R1 9758   1.960  18.038   9.649 -0.0258 -0.2855  0.0814
  631ERGO    R2 9759   1.731  18.121   9.518  0.0721 -0.0629  0.0506
  631ERGO    R3 9760   1.907  18.183   9.320  0.1575 -0.2499  0.0658
  631ERGO    R4 9761   1.645  18.173   9.188  0.1664 -0.0718  0.0242
  631ERGO    R5 9762   1.824  18.063   9.129  0.0922 -0.2316  0.0804
  631ERGO    C1 9763   1.759  18.260   8.809  0.3014 -0.2528  0.0231
  631ERGO    C2 9764   1.882  18.445   8.485  0.0037  0.1166  0.1674
  632ERGO   ROH 9765   7.674  16.018   9.661 -0.0915 -0.0926  0.0704
  632ERGO    R1 9766   7.734  16.164   9.426 -0.0888 -0.0928  0.0706
  632ERGO    R2 9767   7.875  16.055   9.215  0.0456 -0.0477  0.1323
  632ERGO    R3 9768   7.659  16.136   9.071  0.0485 -0.1853  0.0490
  632ERGO    R4 9769   7.871  16.103   8.872  0.2569  0.3284  0.1768
  632ERGO    R5 9770   7.749  16.280   8.903 -0.0120  0.1289  0.2806
  632ERGO    C1 9771   7.665  16.206   8.538  0.3826  0.4182  0.1243
  632ERGO    C2 9772   7.678  16.097   8.177  0.0940  0.1264  0.0432
  633ERGO   ROH 9773  11.728  11.310   9.544  0.1798 -0.1878 -0.0867
  633ERGO    R1 9774  11.679  11.462   9.310  0.0916 -0.1933 -0.0711
  633ERGO    R2 9775  11.872  11.620   9.192 -0.0496  0.0706  0.0482
  633ERGO    R3 9776  11.809  11.476   8.971  0.2198  0.0442 -0.0158
  633ERGO    R4 9777  11.797  11.755   8.883 -0.5121  0.0951  0.1621
  633ERGO    R5 9778  11.640  11.606   8.861 -0.1600 -0.2938  0.1366
  633ERGO    C1 9779  11.695  11.698   8.495 -0.5286  0.0847  0.1686
  633ERGO    C2 9780  11.655  11.624   8.207 -0.1219 -0.1102  0.1462
  634ERGO   ROH 9781   1.991  12.144   9.572  0.1510 -0.0047  0.0613
  634ERGO    R1 9782   1.972  12.088   9.295 -0.0629  0.0786  0.0575
  634ERGO    R2 9783   1.900  12.280   9.110  0.1849  0.2432  0.1279
  634ERGO    R3 9784   2.133  12.205   8.991  0.0140 -0.1367  0.0133
  634ERGO    R4 9785   1.948  12.255   8.768  0.0187  0.3020  0.0990
  634ERGO    R5 9786   2.064  12.074   8.802 -0.2984  0.0665 -0.0221
  634ERGO    C1 9787   2.194  12.172   8.458 -0.2385 -0.0205 -0.0253
  634ERGO    C2 9788   2.280  12.223   8.083  0.3279  0.0026  0.2010
  635ERGO   ROH 9789  14.826  12.025   9.496 -0.0759 -0.1092 -0.0491
  635ERGO    R1 9790  14.978  11.979   9.261  0.0413  0.0575 -0.0075
  635ERGO    R2 9791  14.869  11.865   9.034  0.2398 -0.1049 -0.0194
  635ERGO    R3 9792  14.967  12.088   8.914 -0.0119  0.0087 -0.0225
  635ERGO    R4 9793  14.879  11.918   8.693  0.2440 -0.1373 -0.0249
  635ERGO    R5 9794  15.076  12.007   8.717  0.1346  0.1156  0.0088
  635ERGO    C1 9795  14.977  12.158   8.382  0.0103 -0.0496 -0.0309
  635ERGO    C2 9796  15.052  12.230   8.082 -0.2133  0.0585 -0.1580
  636ERGO   ROH 9797   1.908   8.050   9.989 -0.1326  0.0937 -0.1452
  636ERGO    R1 9798   2.001   8.135   9.735  0.0702  0.0464 -0.0887
  636ERGO    R2 9799   2.141   7.968   9.565 -0.0398 -0.0750 -0.0663
  636ERGO    R3 9800   1.947   8.039   9.388  0.1097  0.1791 -0.1313
  636ERGO    R4 9801   2.186   7.993   9.223  0.1302 -0.0206 -0.0405
  636ERGO    R5 9802   2.062   8.172   9.225  0.3173  0.1075 -0.0438
  636ERGO    C1 9803   2.030   8.074   8.858  0.3695  0.2499 -0.0863
  636ERGO    C2 9804   1.825   7.874   8.557 -0.1945  0.3071  0.0267
  637ERGO   ROH 9805   7.159  12.961   9.470  0.2177  0.0070  0.1451
  637ERGO    R1 9806   7.380  13.011   9.300  0.2410 -0.1548  0.1266
  637ERGO    R2 9807   7.468  12.828   9.112 -0.0062 -0.1586  0.0117
  637ERGO    R3 9808   7.438  13.038   8.942  0.1960 -0.0311  0.1275
  637ERGO    R4 9809   7.607  12.847   8.796 -0.1173 -0.1935 -0.0398
  637ERGO    R5 9810   7.650  13.058   8.833  0.1803 -0.2638  0.0458
  637ERGO    C1 9811   7.659  13.055   8.452  0.0077 -0.0941  0.0391
  637ERGO    C2 9812   7.716  12.863   8.227  0.2398 -0.0036  0.2904
  638ERGO   ROH 9813   0.490  12.806   9.698 -0.2642 -0.0837  0.0508
  638ERGO    R1 9814   0.520  12.936   9.448 -0.1579 -0.1037  0.0531
  638ERGO    R2 9815   0.696  12.847   9.255 -0.0759 -0.1193  0.1349
  638ERGO    R3 9816   0.474  12.850   9.098 -0.0090 -0.1310  0.0392
  638ERGO    R4 9817   0.698  12.833   8.909  0.0762 -0.1076  0.1348
  638ERGO    R5 9818   0.538  12.981   8.908  0.0645 -0.1192  0.0706
  638ERGO    C1 9819   0.491  12.828   8.561  0.2275 -0.1119  0.0449
  638ERGO    C2 9820   0.588  12.736   8.216  0.0993  0.4611  0.1726
  639ERGO   ROH 9821  16.067  11.873   9.599 -0.1717  0.0556 -0.0065
  639ERGO    R1 9822  15.984  11.787   9.342  0.0263  0.1235 -0.0965
  639ERGO    R2 9823  15.979  11.955   9.123  0.2532  0.1682 -0.0739
  639ERGO    R3 9824  16.133  11.761   9.011  0.3060  0.1532  0.0248
  639ERGO    R4 9825  16.092  11.957   8.797  0.3585  0.0865 -0.0380
  639ERGO    R5 9826  16.051  11.743   8.786  0.3825  0.0840  0.0052
  639ERGO    C1 9827  16.302  11.776   8.501  0.4696  0.0250  0.0757
  639ERGO    C2 9828  16.381  11.630   8.253 -0.1685 -0.0929  0.2228
  640ERGO   ROH 9829   6.594  10.344   9.770 -0.2941 -0.1497 -0.0303
  640ERGO    R1 9830   6.533  10.419   9.504 -0.3933 -0.0665  0.0148
  640ERGO    R2 9831   6.696  10.352   9.290 -0.2253  0.3981 -0.0114
  640ERGO    R3 9832   6.466  10.247   9.190 -0.0152  0.0289 -0.1242
  640ERGO    R4 9833   6.630  10.302   8.954 -0.0482  0.4668 -0.0576
  640ERGO    R5 9834   6.426  10.369   8.989 -0.1895  0.0764 -0.0643
  640ERGO    C1 9835   6.376  10.173   8.665  0.2521  0.1601 -0.1904
  640ERGO    C2 9836   6.390  10.075   8.359 -0.0764  0.1362 -0.0944
  641ERGO   ROH 9837  16.673  10.260   9.339 -0.1748  0.0691  0.0152
  641ERGO    R1 9838  16.700  10.354   9.073 -0.2480 -0.0958 -0.0520
  641ERGO    R2 9839  16.927  10.307   8.921 -0.1271  0.1287  0.0476
  641ERGO    R3 9840  16.747  10.206   8.744  0.0679 -0.2910  0.0776
  641ERGO    R4 9841  16.946  10.341   8.578 -0.2502  0.1275  0.0399
  641ERGO    R5 9842  16.731  10.372   8.573 -0.3237 -0.3458  0.0589
  641ERGO    C1 9843  16.788  10.265   8.212 -0.1388 -0.2674  0.0637
  641ERGO    C2 9844  16.737  10.337   7.834  0.0673 -0.2308 -0.0214
  642ERGO   ROH 9845   2.817  16.611   9.338  0.1948 -0.0244 -0.0773
  642ERGO    R1 9846   2.758  16.534   9.072  0.1339  0.0063 -0.0737
  642ERGO    R2 9847   2.575  16.668   8.916 -0.0075 -0.0576  0.0277
  642ERGO    R3 9848   2.783  16.685   8.742 -0.0810  0.1036 -0.0458
  642ERGO    R4 9849   2.543  16.704   8.574 -0.1612 -0.4446 -0.0033
  642ERGO    R5 9850   2.708  16.564   8.549  0.0561 -0.2076  0.0925
  642ERGO    C1 9851   2.720  16.741   8.211 -0.3197 -0.5184 -0.0904
  642ERGO    C2 9852   2.525  16.856   7.892  0.1478  0.1271  0.0695
  643ERGO   ROH 9853   5.281   5.677   9.610 -0.0352  0.0448  0.0979
  643ERGO    R1 9854   5.101   5.677   9.392 -0.0630  0.1073  0.1203
  643ERGO    R2 9855   5.097   5.878   9.202 -0.0360  0.1243  0.1350
  643ERGO    R3 9856   5.125   5.671   9.029 -0.1089  0.1291  0.1173
  643ERGO    R4 9857   5.009   5.887   8.868  0.0132  0.1956  0.1241
  643ERGO    R5 9858   4.932   5.684   8.888 -0.0824  0.2309  0.0926
  643ERGO    C1 9859   4.985   5.698   8.510 -0.0266  0.2417  0.1011
  643ERGO    C2 9860   5.002   5.856   8.139  0.0475  0.0637  0.0522
  644ERGO   ROH 9861  11.868   9.154   9.331  0.1995  0.0799  0.0794
  644ERGO    R1 9862  11.909   9.157   9.051  0.2015  0.3134  0.0804
  644ERGO    R2 9863  11.774   8.989   8.879  0.5582  0.1088 -0.0088
  644ERGO    R3 9864  11.707   9.222   8.755  0.0644  0.0422  0.1115
  644ERGO    R4 9865  11.660   9.014   8.554  0.5980  0.0361 -0.0282
  644ERGO    R5 9866  11.783   9.193   8.530  0.2065  0.3411  0.1140
  644ERGO    C1 9867  11.531   9.247   8.248  0.1574 -0.0688  0.0735
  644ERGO    C2 9868  11.356   9.395   7.932 -0.1976 -0.0763  0.0590
  645ERGO   ROH 9869  12.566  17.131   9.347 -0.3201  0.1677  0.0039
  645ERGO    R1 9870  12.545  16.921   9.158 -0.1579  0.1256  0.0306
  645ERGO    R2 9871  12.308  16.859   9.031 -0.1004 -0.0445  0.0033
  645ERGO    R3 9872  12.458  16.890   8.806 -0.0856  0.0190  0.0219
  645ERGO    R4 9873  12.214  16.757   8.715 -0.1407  0.1728 -0.0567
  645ERGO    R5 9874  12.418  16.690   8.680 -0.1683  0.1060 -0.0916
  645ERGO    C1 9875  12.299  16.726   8.320 -0.1501  0.3590 -0.0743
  645ERGO    C2 9876  12.342  16.661   8.000  0.0984  0.1111  0.2703
  646ERGO   ROH 9877  10.949  12.546   9.203 -0.1468  0.1070  0.0798
  646ERGO    R1 9878  10.813  12.533   8.955 -0.1186  0.1196  0.0631
  646ERGO    R2 9879  10.772  12.755   8.796 -0.0132  0.1116  0.0206
  646ERGO    R3 9880  10.891  12.600   8.606 -0.0443  0.0349  0.0639
  646ERGO    R4 9881  10.783  12.830   8.458  0.2265  0.1391  0.0329
  646ERGO    R5 9882  10.747  12.619   8.416  0.0721  0.1766 -0.0093
  646ERGO    C1 9883  10.901  12.728   8.084  0.3370  0.0831  0.0808
  646ERGO    C2 9884  10.795  12.851   7.799 -0.1735  0.0769 -0.0129
  647ERGO   ROH 9885   6.785   9.206   9.613  0.1256  0.2087  0.1782
  647ERGO    R1 9886   6.642   9.272   9.377  0.0283  0.0479  0.1920
  647ERGO    R2 9887   6.753   9.421   9.172 -0.1546  0.1616  0.1773
  647ERGO    R3 9888   6.678   9.209   9.021  0.0567  0.0746  0.1897
  647ERGO    R4 9889   6.703   9.430   8.831 -0.1254  0.0806  0.1700
  647ERGO    R5 9890   6.529   9.301   8.857 -0.0123 -0.0773  0.1637
  647ERGO    C1 9891   6.603   9.235   8.489  0.0900 -0.0480  0.1775
  647ERGO    C2 9892   6.654   9.069   8.236 -0.3695  0.0469  0.0878
  648ERGO   ROH 9893  16.128  10.844   9.547 -0.1712  0.0993 -0.0543
  648ERGO    R1 9894  16.281  10.851   9.309 -0.1102  0.0444 -0.0171
  648ERGO    R2 9895  16.337  10.624   9.161 -0.0737  0.0098  0.0470
  648ERGO    R3 9896  16.229  10.769   8.959 -0.0218 -0.0341 -0.0122
  648ERGO    R4 9897  16.425  10.595   8.828  0.0898  0.0162  0.0890
  648ERGO    R5 9898  16.412  10.812   8.811  0.0343  0.0107  0.0707
  648ERGO    C1 9899  16.374  10.715   8.444  0.2336 -0.0214  0.0579
  648ERGO    C2 9900  16.420  10.577   8.231 -0.5163  0.5708 -0.0580
  649ERGO   ROH 9901  13.977  12.982   9.303 -0.1176  0.0208  0.0300
  649ERGO    R1 9902  13.941  13.089   9.043  0.0390  0.0172  0.0033
  649ERGO    R2 9903  14.151  13.125   8.866  0.1233 -0.1842  0.0422
  649ERGO    R3 9904  13.995  12.975   8.702  0.0338 -0.0814  0.0380
  649ERGO    R4 9905  14.153  13.143   8.521  0.1708 -0.2313  0.0421
  649ERGO    R5 9906  13.936  13.124   8.524  0.1661 -0.0676  0.0159
  649ERGO    C1 9907  14.008  13.013   8.166  0.1144 -0.1625  0.0383
  649ERGO    C2 9908  14.189  12.989   7.912 -0.3608 -0.1912 -0.0667
  650ERGO   ROH 9909   2.113   0.435   9.776  0.1445  0.0091  0.0673
  650ERGO    R1 9910   2.216   0.520   9.526  0.1335 -0.1770 -0.0012
  650ERGO    R2 9911   2.222   0.355   9.304 -0.4132 -0.1659 -0.0359
  650ERGO    R3 9912   2.087   0.561   9.188 -0.0595  0.1607  0.1067
  650ERGO    R4 9913   2.282   0.476   8.986 -0.4233 -0.2817 -0.0831
  650ERGO    R5 9914   2.254   0.678   9.063  0.1074 -0.2085 -0.0360
  650ERGO    C1 9915   2.191   0.739   8.692 -0.0972 -0.0426  0.0234
  650ERGO    C2 9916   2.287   0.890   8.372 -0.0606  0.0215 -0.7205
  651ERGO   ROH 9917   3.381  16.558   9.457 -0.1999  0.1603 -0.0903
  651ERGO    R1 9918   3.249  16.534   9.208 -0.1465  0.0976 -0.1122
  651ERGO    R2 9919   3.346  16.377   9.003 -0.1107  0.0356 -0.0447
  651ERGO    R3 9920   3.098  16.265   9.014 -0.1199  0.0519 -0.0712
  651ERGO    R4 9921   3.215  16.162   8.766  0.0126 -0.1828  0.0812
  651ERGO    R5 9922   3.024  16.264   8.786  0.0010 -0.1559 -0.1139
  651ERGO    C1 9923   2.907  15.932   8.638  0.0757 -0.2946  0.1295
  651ERGO    C2 9924   2.984  15.748   8.447 -0.3519 -0.0210 -0.0973
  652ERGO   ROH 9925  14.770   2.015   9.638 -0.1563  0.0742  0.2392
  652ERGO    R1 9926  14.643   2.014   9.386 -0.1071  0.1740  0.2139
  652ERGO    R2 9927  14.665   2.223   9.207  0.1880  0.1070  0.1717
  652ERGO    R3 9928  14.746   2.026   9.037 -0.0190 -0.0333  0.2308
  652ERGO    R4 9929  14.540   2.172   8.888 -0.0617 -0.0303  0.2879
  652ERGO    R5 9930  14.545   1.958   8.926 -0.1318 -0.0130  0.4139
  652ERGO    C1 9931  14.543   1.958   8.544 -0.4013 -0.2419  0.4111
  652ERGO    C2 9932  14.478   1.739   8.230  0.0243 -0.2092  0.0045
  653ERGO   ROH 9933  10.383   2.158   9.582 -0.0201  0.0927 -0.0116
  653ERGO    R1 9934  10.418   2.002   9.349  0.2148  0.2449 -0.0824
  653ERGO    R2 9935  10.204   1.898   9.206  0.3620 -0.3559  0.1074
  653ERGO    R3 9936  10.323   2.027   8.998 -0.2139  0.0625  0.0141
  653ERGO    R4 9937  10.165   1.815   8.873  0.3561 -0.4638  0.1347
  653ERGO    R5 9938  10.377   1.854   8.843  0.2314  0.2338 -0.0370
  653ERGO    C1 9939  10.254   1.888   8.484 -0.1879 -0.1339  0.0631
  653ERGO    C2 9940  10.337   1.981   8.135  0.0355 -0.0365  0.2956
  654ERGO   ROH 9941  10.418   9.407   9.574  0.1446 -0.1139  0.0840
  654ERGO    R1 9942  10.280   9.465   9.334  0.0607 -0.0701  0.1420
  654ERGO    R2 9943  10.410   9.500   9.093 -0.0176  0.0373  0.1143
  654ERGO    R3 9944  10.239   9.307   9.009  0.0040  0.0228  0.1036
  654ERGO    R4 9945  10.306   9.456   8.766  0.0301  0.0091  0.1029
  654ERGO    R5 9946  10.106   9.414   8.841  0.0221  0.0040  0.0777
  654ERGO    C1 9947  10.085   9.249   8.497  0.0783 -0.0210  0.0862
  654ERGO    C2 9948   9.957   9.138   8.274 -0.2217 -0.2537  0.0877
  655ERGO   ROH 9949  16.697   8.359  10.014 -0.1291 -0.0183  0.0229
  655ERGO    R1 9950  16.836   8.334   9.768 -0.1398 -0.0227  0.0169
  655ERGO    R2 9951  16.891   8.090   9.652 -0.1901 -0.0256 -0.0089
  655ERGO    R3 9952  16.767   8.200   9.437 -0.1767  0.0216  0.0081
  655ERGO    R4 9953  16.959   8.011   9.322 -0.2523 -0.0272 -0.0212
  655ERGO    R5 9954  16.940   8.223   9.273 -0.1916 -0.0232 -0.0093
  655ERGO    C1 9955  16.881   8.070   8.929 -0.2758  0.0163 -0.0125
  655ERGO    C2 9956  16.912   7.947   8.624 -0.0863 -0.2466 -0.4554
  656ERGO   ROH 9957   5.126   0.677   9.300 -0.1628  0.1394  0.0218
  656ERGO    R1 9958   5.302   0.631   9.083 -0.2246 -0.1939  0.0358
  656ERGO    R2 9959   5.214   0.542   8.837 -0.4103  0.1456 -0.0357
  656ERGO    R3 9960   5.345   0.761   8.745  0.1661 -0.1194  0.1121
  656ERGO    R4 9961   5.326   0.583   8.513 -0.3278  0.1014 -0.0124
  656ERGO    R5 9962   5.508   0.674   8.593 -0.0741 -0.4328  0.0351
  656ERGO    C1 9963   5.514   0.814   8.238  0.2613 -0.1731  0.1398
  656ERGO    C2 9964   5.611   0.833   7.999  0.1017 -0.0066 -0.2270
  657ERGO   ROH 9965   5.637  10.312   9.572  0.0037  0.0207 -0.0697
  657ERGO    R1 9966   5.517  10.206   9.338 -0.1443  0.1792 -0.0677
  657ERGO    R2 9967   5.328  10.346   9.191  0.1249  0.4863 -0.1340
  657ERGO    R3 9968   5.500  10.296   8.986  0.0811  0.1352 -0.0914
  657ERGO    R4 9969   5.246  10.359   8.856  0.1003  0.0981 -0.1480
  657ERGO    R5 9970   5.367  10.182   8.823  0.0071 -0.0087  0.0667
  657ERGO    C1 9971   5.358  10.321   8.468  0.0448 -0.4576 -0.1163
  657ERGO    C2 9972   5.469  10.501   8.255 -0.0498 -0.0807  0.0803
  658ERGO   ROH 9973   7.540   1.360   9.475  0.0061  0.0363 -0.1023
  658ERGO    R1 9974   7.615   1.496   9.238  0.0485  0.0454 -0.0831
  658ERGO    R2 9975   7.832   1.419   9.085  0.0473  0.0262 -0.0711
  658ERGO    R3 9976   7.648   1.415   8.885  0.0672  0.0752 -0.0885
  658ERGO    R4 9977   7.908   1.420   8.748  0.0827  0.0348 -0.0634
  658ERGO    R5 9978   7.741   1.557   8.716  0.1122  0.0688 -0.0696
  658ERGO    C1 9979   7.780   1.416   8.364  0.1220  0.0857 -0.0750
  658ERGO    C2 9980   7.761   1.325   8.026  0.0352  0.0384  0.0445
  659ERGO   ROH 9981   5.581   4.316   9.705  0.0827  0.0379 -0.1832
  659ERGO    R1 9982   5.438   4.431   9.489 -0.1617 -0.0377 -0.0647
  659ERGO    R2 9983   5.543   4.451   9.234 -0.2225  0.3876 -0.0661
  659ERGO    R3 9984   5.315   4.320   9.165  0.0105  0.0110 -0.1467
  659ERGO    R4 9985   5.421   4.422   8.912 -0.1356  0.2962 -0.0908
  659ERGO    R5 9986   5.220   4.452   8.990 -0.2035 -0.0865 -0.1046
  659ERGO    C1 9987   5.136   4.281   8.660  0.1337 -0.1106 -0.1809
  659ERGO    C2 9988   4.891   4.381   8.353 -0.1647  0.3430  0.0055
  660ERGO   ROH 9989  15.346   5.695   9.492 -0.0961  0.0744  0.0563
  660ERGO    R1 9990  15.349   5.540   9.255 -0.1400  0.1026  0.0373
  660ERGO    R2 9991  15.138   5.536   9.077 -0.1123  0.2414 -0.0004
  660ERGO    R3 9992  15.330   5.603   8.897 -0.0430  0.1594  0.0421
  660ERGO    R4 9993  15.121   5.473   8.738  0.0709 -0.0129  0.0342
  660ERGO    R5 9994  15.333   5.421   8.742  0.0825  0.0456  0.1758
  660ERGO    C1 9995  15.292   5.500   8.371  0.2426 -0.2379  0.0942
  660ERGO    C2 9996  15.378   5.562   7.994 -0.5512  0.0653 -0.1328
  661ERGO   ROH 9997  15.835   7.286   9.525  0.0302 -0.3764  0.0903
  661ERGO    R1 9998  15.897   7.162   9.278 -0.1326 -0.5253  0.1221
  661ERGO    R2 9999  15.753   6.949   9.177 -0.5303 -0.2489  0.0929
  661ERGO    R310000  15.731   7.110   8.958 -0.1354 -0.2172  0.0697
  661ERGO    R410001  15.761   6.839   8.850 -0.4290 -0.2684  0.1014
  661ERGO    R510002  15.882   7.013   8.799 -0.1410 -0.4336  0.1895
  661ERGO    C110003  15.746   6.925   8.454  0.0006 -0.2501  0.0845
  661ERGO    C210004  15.607   6.861   8.165 -0.2163  0.1728 -0.1467
  662ERGO   ROH10005  16.500  14.080   9.909  0.0277  0.2237 -0.0220
  662ERGO    R110006  16.469  14.034   9.631 -0.1150  0.1993 -0.0031
  662ERGO    R210007  16.332  14.208   9.465 -0.0042  0.3028  0.0126
  662ERGO    R310008  16.564  14.203   9.323 -0.0561  0.0488 -0.0686
  662ERGO    R410009  16.362  14.297   9.133 -0.0202  0.2788  0.0047
  662ERGO    R510010  16.498  14.129   9.105 -0.2144  0.1261 -0.0483
  662ERGO    C110011  16.597  14.344   8.805 -0.0782  0.0264 -0.0761
  662ERGO    C210012  16.719  14.355   8.436  0.0133 -0.0050  0.1055
  663ERGO   ROH10013  13.569  11.601   9.571 -0.4412  0.1976 -0.0761
  663ERGO    R110014  13.722  11.620   9.334 -0.4165  0.1256 -0.0666
  663ERGO    R210015  13.897  11.422   9.254 -0.0873  0.2842  0.2318
  663ERGO    R310016  13.753  11.432   9.024 -0.0587 -0.2385  0.1805
  663ERGO    R410017  14.031  11.401   8.936  0.0494  0.3405  0.2851
  663ERGO    R510018  13.891  11.555   8.872 -0.3037 -0.0302  0.1217
  663ERGO    C110019  13.973  11.398   8.535  0.1559 -0.1175  0.2679
  663ERGO    C210020  14.097  11.537   8.298 -0.0873  0.0302  0.2059
  664ERGO   ROH10021   8.092   7.367   9.991 -0.2517 -0.0625 -0.0036
  664ERGO    R110022   8.015   7.556   9.794  0.0351  0.0853  0.0209
  664ERGO    R210023   8.193   7.660   9.611  0.1749 -0.2519 -0.0379
  664ERGO    R310024   8.009   7.571   9.431 -0.0597  0.0911  0.0216
  664ERGO    R410025   8.184   7.749   9.277  0.2050 -0.1907 -0.0229
  664ERGO    R510026   7.967   7.761   9.291  0.2204  0.1928  0.0638
  664ERGO    C110027   8.007   7.718   8.914  0.0023  0.1671  0.0416
  664ERGO    C210028   8.150   7.774   8.582  0.0073 -0.2668  0.1563
  665ERGO   ROH10029   8.089  12.363   9.386 -0.1192  0.0125  0.0233
  665ERGO    R110030   7.995  12.327   9.122 -0.0419 -0.0130 -0.0006
  665ERGO    R210031   7.913  12.538   8.963 -0.0450 -0.0348 -0.0249
  665ERGO    R310032   8.094  12.435   8.789  0.0220  0.0007  0.0225
  665ERGO    R410033   7.888  12.555   8.619 -0.0921 -0.2664 -0.0354
  665ERGO    R510034   7.962  12.351   8.608  0.0702 -0.2174  0.0850
  665ERGO    C110035   8.044  12.469   8.255 -0.0566 -0.3679  0.0032
  665ERGO    C210036   7.977  12.388   7.934 -0.0353  0.1450 -0.0722
  666ERGO   ROH10037   1.222  13.887   9.817 -0.1180  0.0858 -0.1309
  666ERGO    R110038   1.210  13.738   9.576 -0.2482  0.1221 -0.1484
  666ERGO    R210039   1.200  13.858   9.327 -0.1020  0.1619 -0.1398
  666ERGO    R310040   1.416  13.701   9.278 -0.2560 -0.0551 -0.1318
  666ERGO    R410041   1.299  13.753   9.013 -0.0412  0.2844 -0.1616
  666ERGO    R510042   1.345  13.558   9.099 -0.3203  0.1632 -0.2827
  666ERGO    C110043   1.559  13.544   8.784 -0.1503  0.1520 -0.1668
  666ERGO    C210044   1.643  13.711   8.519  0.0944  0.1061 -0.1212
  667ERGO   ROH10045   7.270  18.640   9.404 -0.0430 -0.1044  0.0469
  667ERGO    R110046   7.196  18.553   9.145 -0.0676 -0.0399  0.0316
  667ERGO    R210047   7.261  18.695   8.917 -0.0158 -0.0246  0.0532
  667ERGO    R310048   7.369  18.458   8.839 -0.0928 -0.0491  0.0208
  667ERGO    R410049   7.354  18.616   8.593 -0.0914 -0.0339  0.0340
  667ERGO    R510050   7.273  18.416   8.624 -0.1392 -0.0125  0.0359
  667ERGO    C110051   7.509  18.348   8.332 -0.2076 -0.0623 -0.0075
  667ERGO    C210052   7.507  18.444   8.008 -0.1127  0.4145  0.3308
  668ERGO   ROH10053  18.650   8.856  10.098  0.1276 -0.0063 -0.0117
  668ERGO    R110054  18.796   8.900   9.859  0.0635  0.0571 -0.0381
  668ERGO    R210055  18.856   8.697   9.681  0.1956  0.0697  0.0016
  668ERGO    R310056  18.737   8.863   9.502  0.0503 -0.0602 -0.0263
  668ERGO    R410057  18.891   8.677   9.338  0.2489  0.0531  0.0069
  668ERGO    R510058  18.900   8.894   9.331  0.0454  0.0710 -0.0165
  668ERGO    C110059  18.800   8.822   8.970  0.1437 -0.0785 -0.0161
  668ERGO    C210060  18.920   8.679   8.652  0.1903  0.1852 -0.2002
  669ERGO   ROH10061   8.392  13.824   9.398 -0.0377  0.2339  0.0950
  669ERGO    R110062   8.571  13.862   9.182  0.0073 -0.1445  0.0588
  669ERGO    R210063   8.618  13.666   8.992 -0.3494 -0.2965  0.1135
  669ERGO    R310064   8.550  13.864   8.818 -0.0340 -0.2287  0.0615
  669ERGO    R410065   8.580  13.625   8.651 -0.2920 -0.2897  0.1069
  669ERGO    R510066   8.679  13.818   8.622 -0.0304 -0.4224  0.1108
  669ERGO    C110067   8.494  13.787   8.289  0.0376 -0.2221  0.0540
  669ERGO    C210068   8.412  13.628   7.940  0.1205 -0.3701  0.5318
  670ERGO   ROH10069  15.838  12.244   9.460  0.2745 -0.1133 -0.0140
  670ERGO    R110070  15.825  12.424   9.241  0.2619 -0.0088  0.0732
  670ERGO    R210071  16.031  12.451   9.059  0.1484 -0.1043 -0.0633
  670ERGO    R310072  15.835  12.400   8.878 -0.0281  0.1416  0.0509
  670ERGO    R410073  16.013  12.590   8.743  0.1857 -0.1235 -0.0746
  670ERGO    R510074  15.797  12.610   8.770  0.2168  0.1886  0.0403
  670ERGO    C110075  15.818  12.622   8.389  0.0418  0.0959  0.0261
  670ERGO    C210076  16.021  12.730   8.162  0.4177 -0.2142  0.0086
  671ERGO   ROH10077  12.360  18.428   9.273  0.2971 -0.1250  0.2326
  671ERGO    R110078  12.340  18.559   9.022  0.1350 -0.1260  0.2438
  671ERGO    R210079  12.557  18.593   8.854  0.0250 -0.1403  0.0946
  671ERGO    R310080  12.394  18.472   8.673 -0.1066 -0.1334  0.2069
  671ERGO    R410081  12.541  18.672   8.518 -0.1001 -0.2441  0.0751
  671ERGO    R510082  12.325  18.649   8.528 -0.1037 -0.1550  0.1819
  671ERGO    C110083  12.379  18.605   8.153 -0.2965 -0.2979  0.1690
  671ERGO    C210084  12.577  18.685   7.887 -0.1233 -0.0590 -0.0932
  672ERGO   ROH10085   2.654   1.594   9.944  0.1660 -0.3800 -0.0046
  672ERGO    R110086   2.573   1.488   9.694  0.1273 -0.2279 -0.0574
  672ERGO    R210087   2.346   1.573   9.562  0.1305 -0.1167  0.0090
  672ERGO    R310088   2.519   1.616   9.357  0.1201 -0.0316  0.0171
  672ERGO    R410089   2.253   1.640   9.236  0.1143  0.0615  0.0487
  672ERGO    R510090   2.415   1.511   9.169  0.0941  0.0768 -0.0299
  672ERGO    C110091   2.361   1.719   8.854  0.0949  0.2451  0.0794
  672ERGO    C210092   2.443   1.677   8.571 -0.0089 -0.1620 -0.1376
  673ERGO   ROH10093   8.415  10.458   9.423 -0.0519  0.1250  0.0362
  673ERGO    R110094   8.303  10.561   9.184 -0.0660  0.0427  0.0078
  673ERGO    R210095   8.456  10.617   8.961 -0.0642  0.0714  0.0202
  673ERGO    R310096   8.277  10.454   8.837  0.0174 -0.0192  0.0194
  673ERGO    R410097   8.446  10.557   8.621 -0.0208  0.0595  0.0204
  673ERGO    R510098   8.228  10.564   8.631 -0.0285 -0.0448  0.0138
  673ERGO    C110099   8.273  10.368   8.307  0.0809 -0.0325  0.0199
  673ERGO    C210100   8.240  10.168   7.996 -0.0306  0.0413  0.0252
  674PSPI    C110101   0.726  13.056   5.362 -0.3978  0.2942 -0.1092
  674PSPI    C210102   0.574  13.071   4.993 -0.1102  0.0157 -0.2440
  674PSPI    C310103   0.933  13.232   5.069 -0.1422  0.0198 -0.0988
  674PSPI   PO410104   0.435  13.022   5.508  0.0138  0.1561 -0.1885
  674PSPI   GL110105   0.238  13.127   5.840  0.0226 -0.2949 -0.0120
  674PSPI   GL210106   0.115  12.889   6.036 -0.0398 -0.1679  0.0655
  674PSPI   C1A10107   0.300  13.363   6.139 -0.1433 -0.3364 -0.1279
  674PSPI   C2A10108   0.654  13.406   6.511 -0.0172 -0.1121  0.2627
  674PSPI   C3A10109   0.969  13.348   6.874 -0.3035  0.0833 -0.1632
  674PSPI   C4A10110   1.093  13.411   7.303  0.0921 -0.4675 -0.2262
  674PSPI   C1B10111   0.538  12.909   6.365  0.0213 -0.2492 -0.0930
  674PSPI   C2B10112   0.792  12.927   6.716 -0.0202 -0.0061  0.0891
  674PSPI   C3B10113   1.019  12.847   7.073  0.1010 -0.0122 -0.1838
  674PSPI   C4B10114   1.145  12.435   7.059  0.2315  0.1873  0.3783
  675PSPI    C110115  10.002   4.961   5.558 -0.0656  0.0466 -0.0705
  675PSPI    C210116  10.119   5.224   5.280 -0.0291  0.0366 -0.0647
  675PSPI    C310117  10.383   4.967   5.436 -0.0996 -0.1121 -0.1881
  675PSPI   PO410118   9.802   5.108   5.704  0.1200 -0.0534  0.0685
  675PSPI   GL110119   9.627   5.160   6.183  0.1807 -0.0638  0.1416
  675PSPI   GL210120   9.426   4.850   6.068 -0.1236 -0.1414 -0.1709
  675PSPI   C1A10121   9.669   5.336   6.664  0.4307  0.1436  0.1314
  675PSPI   C2A10122   9.814   5.403   6.983  0.2521 -0.1742 -0.0130
  675PSPI   C3A10123   9.637   5.651   7.325 -0.0725 -0.1045  0.3830
  675PSPI   C4A10124   9.720   5.994   7.653 -0.1691 -0.1612 -0.2415
  675PSPI   C1B10125   9.271   4.527   6.460  0.0217  0.1154  0.2436
  675PSPI   C2B10126   9.068   4.307   6.786 -0.1932 -0.1092 -0.0599
  675PSPI   C3B10127   9.105   4.291   7.191  0.0298 -0.2860 -0.1090
  675PSPI   C4B10128   8.946   4.269   7.685  0.0158 -0.1409  0.0534
  676PSPI    C110129   1.960   9.161   5.643  0.0328 -0.0988  0.0242
  676PSPI    C210130   2.208   9.070   5.943 -0.1471 -0.0429  0.1922
  676PSPI    C310131   2.353   9.222   5.602  0.0583 -0.1046  0.2505
  676PSPI   PO410132   1.747   9.048   5.820  0.1038  0.2158  0.1410
  676PSPI   GL110133   1.641   9.056   6.152  0.1223 -0.1611 -0.0990
  676PSPI   GL210134   1.571   8.923   6.322 -0.1482  0.1772  0.0004
  676PSPI   C1A10135   1.660   9.396   6.371  0.0601 -0.1527 -0.0604
  676PSPI   C2A10136   1.669   9.905   6.701 -0.2664  0.1880  0.2172
  676PSPI   C3A10137   1.580  10.094   7.181 -0.2100 -0.1097  0.0318
  676PSPI   C4A10138   1.472  10.186   7.592  0.1070 -0.0682 -0.2837
  676PSPI   C1B10139   1.584   9.057   6.709  0.1238 -0.0023 -0.0537
  676PSPI   C2B10140   1.564   9.106   7.148  0.0201  0.1349  0.0371
  676PSPI   C3B10141   1.565   9.152   7.588 -0.2473 -0.0278  0.0741
  676PSPI   C4B10142   1.917   8.987   7.878  0.1393  0.0011 -0.2731
  677PSPI    C110143  11.898  13.860   4.875 -0.1043 -0.1768 -0.1515
  677PSPI    C210144  11.642  14.137   5.006  0.0484 -0.0150 -0.1908
  677PSPI    C310145  11.954  14.245   4.781  0.3433 -0.1644  0.1381
  677PSPI   PO410146  11.962  13.755   5.061  0.0623  0.3316  0.0541
  677PSPI   GL110147  11.897  13.846   5.484  0.2705 -0.1262 -0.3564
  677PSPI   GL210148  12.049  13.567   5.590  0.1457  0.1434  0.0527
  677PSPI   C1A10149  11.766  13.567   5.990 -0.1851  0.0172 -0.0792
  677PSPI   C2A10150  11.646  13.610   6.400 -0.2302  0.0946  0.2648
  677PSPI   C3A10151  11.774  13.569   6.842 -0.1596  0.5249 -0.0822
  677PSPI   C4A10152  11.942  13.388   7.221  0.0147 -0.0167  0.1154
  677PSPI   C1B10153  12.241  13.796   5.854  0.0503  0.0653  0.3468
  677PSPI   C2B10154  12.253  13.733   6.336 -0.1545  0.3262  0.0402
  677PSPI   C3B10155  12.252  13.640   6.832  0.0607 -0.1577 -0.0649
  677PSPI   C4B10156  12.437  13.478   7.102  0.0380  0.1180 -0.1207
  678PSPI    C110157   8.813   7.696   5.796 -0.1905 -0.0883 -0.1066
  678PSPI    C210158   8.826   7.309   5.698 -0.2459 -0.1368  0.0751
  678PSPI    C310159   8.566   7.552   5.516 -0.1967 -0.1805 -0.0543
  678PSPI   PO410160   9.078   7.755   5.946 -0.3245 -0.0412  0.1843
  678PSPI   GL110161   9.440   7.615   6.144  0.2325 -0.2696 -0.2240
  678PSPI   GL210162   9.030   7.530   6.432  0.1747  0.0978 -0.0872
  678PSPI   C1A10163   9.457   7.467   6.610  0.1089 -0.0607  0.1211
  678PSPI   C2A10164   9.165   7.592   6.896  0.0389 -0.1800  0.2352
  678PSPI   C3A10165   8.993   7.511   7.244 -0.2175  0.2643 -0.2753
  678PSPI   C4A10166   8.903   7.347   7.571 -0.1302 -0.1825  0.0872
  678PSPI   C1B10167   8.849   7.244   6.687  0.2372 -0.3542 -0.3030
  678PSPI   C2B10168   8.628   7.175   7.071  0.2988  0.1095 -0.2315
  678PSPI   C3B10169   8.461   7.044   7.409 -0.1362 -0.1474  0.0478
  678PSPI   C4B10170   8.245   6.733   7.548  0.5188  0.2212 -0.0555
  679PSPI    C110171   5.220   8.848   5.652  0.0975 -0.1624 -0.0584
  679PSPI    C210172   5.088   8.514   5.477  0.0189 -0.1241 -0.0727
  679PSPI    C310173   5.109   8.855   5.268 -0.1978 -0.0487  0.0262
  679PSPI   PO410174   5.253   8.750   5.891  0.1627  0.2775 -0.2202
  679PSPI   GL110175   5.171   8.451   6.182 -0.0865  0.1420 -0.2025
  679PSPI   GL210176   5.119   8.216   5.953  0.4452  0.2929  0.3267
  679PSPI   C1A10177   5.232   8.669   6.594 -0.0821  0.0782 -0.1248
  679PSPI   C2A10178   5.124   8.759   6.966 -0.2179 -0.1297 -0.0917
  679PSPI   C3A10179   5.002   8.612   7.390 -0.2780 -0.0511  0.1770
  679PSPI   C4A10180   4.926   8.449   7.839  0.1514  0.0552  0.0281
  679PSPI   C1B10181   4.763   8.138   6.332  0.2076 -0.1161 -0.1448
  679PSPI   C2B10182   4.599   8.032   6.746 -0.1233  0.1075  0.2826
  679PSPI   C3B10183   4.763   7.954   7.156  0.0380  0.2971  0.2216
  679PSPI   C4B10184   5.024   8.126   7.413  0.1084 -0.1646 -0.0143
  680PSPI    C110185   4.940   4.032   5.580 -0.0899  0.0518  0.0063
  680PSPI    C210186   5.237   4.249   5.422  0.0983 -0.0359  0.2331
  680PSPI    C310187   4.924   4.144   5.196  0.0658  0.3594  0.0859
  680PSPI   PO410188   4.882   4.102   5.779 -0.1352  0.2430  0.0153
  680PSPI   GL110189   4.959   4.122   6.188  0.0868 -0.0480 -0.0676
  680PSPI   GL210190   4.643   4.018   6.260  0.0773 -0.0197 -0.2058
  680PSPI   C1A10191   4.957   4.254   6.569 -0.0170 -0.2357  0.0488
  680PSPI   C2A10192   4.900   4.301   6.966  0.0772 -0.3838  0.1776
  680PSPI   C3A10193   4.836   4.437   7.396 -0.0461  0.2258  0.0647
  680PSPI   C4A10194   4.845   4.917   7.588 -0.0438 -0.1302 -0.1691
  680PSPI   C1B10195   4.513   4.128   6.658 -0.2173  0.1187  0.0268
  680PSPI   C2B10196   4.444   4.204   7.112 -0.1487 -0.0327 -0.2035
  680PSPI   C3B10197   4.430   4.142   7.476 -0.4192  0.2075 -0.2106
  680PSPI   C4B10198   4.565   3.905   7.865 -0.0216  0.2367  0.4626
  681PSPI    C110199   8.080   2.206   5.346  0.3892  0.0291  0.1865
  681PSPI    C210200   8.440   2.039   5.402  0.3580 -0.2172 -0.2942
  681PSPI    C310201   8.369   2.257   5.074  0.0884 -0.1077 -0.1671
  681PSPI   PO410202   7.990   2.202   5.662  0.0737 -0.2063 -0.0624
  681PSPI   GL110203   8.291   2.186   6.040  0.1478  0.1216 -0.1637
  681PSPI   GL210204   8.441   2.378   5.942 -0.2320  0.1574  0.0488
  681PSPI   C1A10205   8.511   1.997   6.389  0.2741  0.2023 -0.1046
  681PSPI   C2A10206   8.404   1.893   6.812  0.0653 -0.0523 -0.0569
  681PSPI   C3A10207   8.288   1.917   7.234  0.0676 -0.0305 -0.1668
  681PSPI   C4A10208   8.108   1.980   7.713 -0.0725 -0.0577 -0.0558
  681PSPI   C1B10209   8.809   2.356   6.198 -0.0222  0.1074  0.0438
  681PSPI   C2B10210   8.742   2.368   6.655  0.0042 -0.2410  0.0608
  681PSPI   C3B10211   8.664   2.422   7.067  0.0547 -0.0808 -0.0719
  681PSPI   C4B10212   8.553   2.289   7.365 -0.2172  0.2787 -0.0156
  682PSPI    C110213   9.629  11.925   5.182  0.0562  0.3129 -0.2955
  682PSPI    C210214   9.239  11.935   5.267  0.0632  0.0191 -0.2175
  682PSPI    C310215   9.360  11.912   4.887  0.0113  0.3350 -0.2556
  682PSPI   PO410216   9.826  12.062   5.449  0.1701  0.0987  0.0191
  682PSPI   GL110217   9.927  12.093   5.876  0.1090  0.2305  0.0639
  682PSPI   GL210218  10.190  12.022   6.158 -0.2342  0.1573 -0.1665
  682PSPI   C1A10219   9.827  12.470   6.171  0.3035 -0.4223  0.0120
  682PSPI   C2A10220   9.715  12.456   6.649 -0.1514 -0.3128  0.1095
  682PSPI   C3A10221   9.444  12.420   7.061 -0.3448 -0.0572  0.0252
  682PSPI   C4A10222   9.042  12.261   7.249 -0.3347 -0.0005  0.1127
  682PSPI   C1B10223  10.128  12.258   6.540  0.2389  0.2234  0.0008
  682PSPI   C2B10224  10.234  12.593   6.925 -0.0180  0.1095 -0.1500
  682PSPI   C3B10225  10.255  12.994   7.134 -0.1954  0.1031 -0.0933
  682PSPI   C4B10226  10.105  13.367   7.218 -0.0028  0.3120  0.0146
  683PSPI    C110227  16.615  10.664   5.126 -0.0514  0.3756 -0.1509
  683PSPI    C210228  16.578  10.834   4.766  0.0742  0.1391 -0.2777
  683PSPI    C310229  16.738  10.468   4.799  0.0095  0.1352  0.0131
  683PSPI   PO410230  16.732  10.806   5.318  0.0152 -0.1706 -0.0026
  683PSPI   GL110231  16.533  10.862   5.786  0.0644  0.0677  0.2255
  683PSPI   GL210232  16.697  11.147   5.794 -0.0690 -0.2200  0.1662
  683PSPI   C1A10233  16.741  10.756   6.191 -0.0043  0.1204 -0.0306
  683PSPI   C2A10234  16.574  10.735   6.617 -0.0906  0.1835  0.1348
  683PSPI   C3A10235  16.497  10.376   6.760  0.0061 -0.0111 -0.1474
  683PSPI   C4A10236  16.828  10.095   6.668 -0.0190  0.0620 -0.1153
  683PSPI   C1B10237  16.622  11.593   6.021 -0.2631 -0.1078 -0.0794
  683PSPI   C2B10238  16.612  11.931   6.210 -0.1158  0.3059 -0.1137
  683PSPI   C3B10239  16.567  12.289   6.464  0.1060  0.3936 -0.0253
  683PSPI   C4B10240  16.648  12.691   6.620  0.0630 -0.0332 -0.2521
  684PSPI    C110241  12.483   0.949   5.645  0.1425 -0.0067 -0.2075
  684PSPI    C210242  12.820   0.919   5.430  0.1952  0.0455 -0.1325
  684PSPI    C310243  12.755   0.670   5.736  0.1744  0.0478 -0.1350
  684PSPI   PO410244  12.505   1.205   5.796  0.1739  0.0929  0.0586
  684PSPI   GL110245  12.575   1.288   6.214 -0.2609 -0.0757  0.1474
  684PSPI   GL210246  12.760   0.998   6.163 -0.3302  0.4106 -0.2036
  684PSPI   C1A10247  12.516   1.315   6.618  0.1133 -0.2670 -0.2317
  684PSPI   C2A10248  12.330   1.194   6.920 -0.1981  0.2179  0.1787
  684PSPI   C3A10249  12.351   0.935   7.235 -0.0128 -0.1593 -0.1432
  684PSPI   C4A10250  12.318   0.667   7.610  0.0335 -0.1255  0.1407
  684PSPI   C1B10251  12.668   0.857   6.602 -0.3635 -0.2726  0.1374
  684PSPI   C2B10252  12.820   0.988   7.038  0.0662 -0.2899  0.0304
  684PSPI   C3B10253  12.998   1.262   7.274 -0.2052  0.3414 -0.2348
  684PSPI   C4B10254  12.917   1.423   7.714 -0.3464  0.0086  0.1027
  685PSPI    C110255  16.155   7.544   5.108  0.1313  0.0288 -0.1141
  685PSPI    C210256  15.809   7.354   5.045  0.1150  0.0720 -0.1553
  685PSPI    C310257  16.079   7.382   4.751  0.3167 -0.2944 -0.0107
  685PSPI   PO410258  16.231   7.528   5.319 -0.3796 -0.0068  0.0075
  685PSPI   GL110259  16.231   7.459   5.850  0.0027  0.0222 -0.3202
  685PSPI   GL210260  16.074   7.715   5.897  0.0465  0.0488  0.0870
  685PSPI   C1A10261  16.409   7.473   6.271  0.0633  0.1613 -0.0236
  685PSPI   C2A10262  16.277   7.461   6.722  0.3221 -0.2193  0.0755
  685PSPI   C3A10263  16.252   7.349   7.156  0.0486  0.1066  0.0463
  685PSPI   C4A10264  16.334   7.251   7.570  0.0280 -0.3596  0.0596
  685PSPI   C1B10265  16.231   7.945   6.336  0.0513  0.0487 -0.0062
  685PSPI   C2B10266  15.994   7.961   6.726 -0.1219  0.1084  0.1881
  685PSPI   C3B10267  16.173   7.832   7.070 -0.2045 -0.0850  0.1626
  685PSPI   C4B10268  16.511   7.913   7.373  0.3064 -0.2102  0.0605
  686PSPI    C110269  16.136   4.316   5.350  0.0468 -0.0845 -0.0906
  686PSPI    C210270  16.344   4.520   5.077 -0.1054 -0.1531 -0.2602
  686PSPI    C310271  16.447   4.144   5.168  0.0922 -0.0496 -0.0460
  686PSPI   PO410272  16.141   4.417   5.640 -0.0026 -0.0555  0.1738
  686PSPI   GL110273  15.958   4.580   6.021 -0.1362 -0.0955  0.4824
  686PSPI   GL210274  16.110   4.412   6.123  0.1336 -0.2178 -0.2238
  686PSPI   C1A10275  15.758   4.752   6.362  0.1429  0.2165  0.1563
  686PSPI   C2A10276  15.513   4.797   6.801 -0.0794  0.1333 -0.0635
  686PSPI   C3A10277  15.206   4.577   7.059 -0.1600 -0.1723 -0.3012
  686PSPI   C4A10278  14.897   4.197   7.121 -0.1146  0.0284  0.1295
  686PSPI   C1B10279  16.226   4.578   6.519  0.2081 -0.2270  0.1376
  686PSPI   C2B10280  16.522   4.500   6.784 -0.3337  0.1663 -0.3148
  686PSPI   C3B10281  16.703   4.350   7.163  0.0179  0.0426 -0.3392
  686PSPI   C4B10282  16.972   4.328   7.587  0.0772  0.0147  0.1677
  687PSPI    C110283  15.155   3.724   5.135 -0.1079 -0.2444  0.3097
  687PSPI    C210284  15.518   3.561   5.171 -0.0431 -0.1592  0.0634
  687PSPI    C310285  15.234   3.373   4.960 -0.0946 -0.1506  0.1248
  687PSPI   PO410286  15.136   3.814   5.380  0.3177 -0.2442 -0.1158
  687PSPI   GL110287  14.852   3.674   5.779 -0.1566 -0.2088  0.1530
  687PSPI   GL210288  14.762   3.951   5.958 -0.1430 -0.0679  0.3799
  687PSPI   C1A10289  15.029   3.588   6.179 -0.0346 -0.1017  0.2494
  687PSPI   C2A10290  14.949   3.670   6.597  0.0763 -0.0660  0.0828
  687PSPI   C3A10291  14.956   3.636   6.970  0.0377 -0.0071 -0.1386
  687PSPI   C4A10292  15.162   3.832   7.369 -0.1895  0.2931  0.1829
  687PSPI   C1B10293  15.094   4.108   6.259  0.0406  0.0784  0.1568
  687PSPI   C2B10294  15.244   4.166   6.774 -0.0679  0.3919  0.0670
  687PSPI   C3B10295  15.547   3.890   6.997 -0.0720 -0.1045  0.0352
  687PSPI   C4B10296  15.850   3.685   6.783  0.5407  0.0555 -0.3684
  688PSPI    C110297  15.429  10.745   5.204  0.0200 -0.2719  0.2100
  688PSPI    C210298  15.771  10.931   5.298 -0.0315 -0.0800  0.0254
  688PSPI    C310299  15.753  10.696   4.975 -0.0655 -0.1152  0.0528
  688PSPI   PO410300  15.318  10.716   5.401 -0.0639  0.0284  0.3641
  688PSPI   GL110301  14.966  10.630   5.685 -0.3117  0.0418 -0.0648
  688PSPI   GL210302  14.790  10.433   5.612 -0.0371  0.3972  0.0532
  688PSPI   C1A10303  14.601  10.663   6.056 -0.0377 -0.2309 -0.1852
  688PSPI   C2A10304  14.376  10.575   6.505  0.0047  0.0203 -0.0491
  688PSPI   C3A10305  14.547  10.401   6.902 -0.0456  0.2425  0.1562
  688PSPI   C4A10306  14.768  10.076   7.168  0.2401 -0.1563  0.0497
  688PSPI   C1B10307  14.582  10.142   5.946  0.0296  0.1458  0.0326
  688PSPI   C2B10308  14.617  10.087   6.392  0.2609  0.0397  0.1122
  688PSPI   C3B10309  14.689   9.948   6.658 -0.0283  0.4937 -0.2058
  688PSPI   C4B10310  14.816   9.607   6.893  0.1770 -0.2560 -0.0648
  689PSPI    C110311   0.269  12.529   5.676  0.0187  0.0998  0.1042
  689PSPI    C210312   0.598  12.687   5.842  0.1183  0.0518 -0.0454
  689PSPI    C310313   0.621  12.502   5.488 -0.0857  0.1216 -0.0968
  689PSPI   PO410314   0.188  12.402   5.856  0.1868 -0.0457 -0.2752
  689PSPI   GL110315   0.387  12.490   6.212  0.1469 -0.0352 -0.2030
  689PSPI   GL210316   0.337  12.142   6.237 -0.0586 -0.0494 -0.1288
  689PSPI   C1A10317   0.328  12.615   6.651  0.4157  0.1349  0.3253
  689PSPI   C2A10318   0.366  12.652   7.008 -0.0182  0.0024 -0.0103
  689PSPI   C3A10319   0.686  12.621   7.382 -0.1765 -0.3399 -0.0517
  689PSPI   C4A10320   0.943  12.696   7.697 -0.1365  0.0909  0.1124
  689PSPI   C1B10321   0.260  12.113   6.584  0.0348 -0.0607  0.0956
  689PSPI   C2B10322   0.064  12.248   6.952  0.2414  0.2050  0.0513
  689PSPI   C3B10323  -0.106  12.220   7.417 -0.0238 -0.1257 -0.0263
  689PSPI   C4B10324   0.110  12.178   7.798 -0.0625  0.0363 -0.0874
  690PSPI    C110325   0.362  17.758   5.436 -0.2400 -0.0404 -0.0480
  690PSPI    C210326   0.288  17.469   5.170 -0.1753  0.0789 -0.1966
  690PSPI    C310327   0.650  17.639   5.186 -0.1161 -0.0692  0.1070
  690PSPI   PO410328   0.369  17.617   5.747 -0.1693 -0.3422 -0.0189
  690PSPI   GL110329   0.080  17.634   5.986 -0.0550 -0.3515  0.1729
  690PSPI   GL210330  -0.020  17.243   5.967  0.2021  0.0982 -0.1429
  690PSPI   C1A10331   0.281  17.848   6.365 -0.5679 -0.0574  0.1378
  690PSPI   C2A10332   0.480  17.998   6.777  0.1636 -0.0477 -0.1404
  690PSPI   C3A10333   0.447  17.799   7.116  0.3474 -0.1709 -0.0508
  690PSPI   C4A10334   0.531  17.479   7.422 -0.0325 -0.0653 -0.0403
  690PSPI   C1B10335  -0.078  17.363   6.388  0.1823 -0.0801 -0.2834
  690PSPI   C2B10336   0.055  17.637   6.709  0.1104  0.0207 -0.0493
  690PSPI   C3B10337   0.050  17.520   7.155 -0.0886  0.1402 -0.2438
  690PSPI   C4B10338   0.021  17.447   7.595  0.0368 -0.0304  0.1164
  691PSPI    C110339   9.418  16.498   5.254 -0.0343  0.1356  0.1253
  691PSPI    C210340   9.457  16.889   5.331 -0.0413  0.1630 -0.0088
  691PSPI    C310341   9.318  16.768   4.976  0.2066  0.0331 -0.0639
  691PSPI   PO410342   9.344  16.379   5.482  0.0819 -0.1058 -0.2270
  691PSPI   GL110343   9.086  16.330   5.930  0.2393  0.0256  0.0955
  691PSPI   GL210344   8.912  16.045   6.143 -0.2373  0.1863  0.3425
  691PSPI   C1A10345   9.316  16.488   6.262 -0.4413 -0.5123 -0.2134
  691PSPI   C2A10346   9.313  16.692   6.661 -0.0112 -0.0402 -0.1263
  691PSPI   C3A10347   9.700  16.723   6.952 -0.0405  0.0316  0.2662
  691PSPI   C4A10348  10.085  16.922   6.860  0.0638  0.1661 -0.1025
  691PSPI   C1B10349   8.988  16.284   6.516 -0.4278  0.1817 -0.0520
  691PSPI   C2B10350   8.939  16.368   6.816  0.0654  0.1574  0.1734
  691PSPI   C3B10351   8.669  16.251   7.222 -0.0899  0.1980  0.0549
  691PSPI   C4B10352   8.559  16.061   7.634  0.0671 -0.1626  0.1068
  692PSPI    C110353   7.256   7.371   5.492  0.1115 -0.1807  0.1413
  692PSPI    C210354   7.302   6.975   5.513  0.2625 -0.1742 -0.0452
  692PSPI    C310355   7.505   7.186   5.240  0.0496  0.0099 -0.0635
  692PSPI   PO410356   7.364   7.422   5.737 -0.0096 -0.0008  0.0196
  692PSPI   GL110357   7.302   7.441   6.134 -0.0904 -0.0281  0.0095
  692PSPI   GL210358   7.370   7.723   6.392 -0.0428  0.0667 -0.1868
  692PSPI   C1A10359   7.201   7.062   6.567 -0.0626 -0.0942  0.2099
  692PSPI   C2A10360   7.169   7.136   6.941 -0.0739  0.0311 -0.0092
  692PSPI   C3A10361   7.027   7.080   7.396  0.2239 -0.0246 -0.2274
  692PSPI   C4A10362   6.832   6.717   7.758 -0.1146 -0.0497  0.1695
  692PSPI   C1B10363   7.572   7.499   6.772  0.1827 -0.0956  0.2343
  692PSPI   C2B10364   7.565   7.393   7.207 -0.3429  0.0087 -0.0034
  692PSPI   C3B10365   7.510   7.193   7.700 -0.3814  0.1548  0.2017
  692PSPI   C4B10366   7.606   7.184   8.097 -0.2352  0.3369 -0.1325
  693PSPI    C110367   8.276  10.682   5.416 -0.1147  0.0343 -0.1839
  693PSPI    C210368   8.095  10.430   5.669  0.2448 -0.4134 -0.3573
  693PSPI    C310369   7.892  10.584   5.360 -0.1974  0.1368  0.1824
  693PSPI   PO410370   8.462  10.784   5.534 -0.2372 -0.0931 -0.0065
  693PSPI   GL110371   8.369  10.865   5.890  0.0884 -0.0361 -0.0728
  693PSPI   GL210372   8.724  10.654   6.016  0.0052  0.3238 -0.1454
  693PSPI   C1A10373   8.341  11.301   5.993 -0.0239 -0.2815 -0.4201
  693PSPI   C2A10374   8.542  11.504   6.409 -0.0874  0.2737 -0.0140
  693PSPI   C3A10375   8.919  11.442   6.729 -0.0722 -0.0685  0.2846
  693PSPI   C4A10376   8.954  11.091   6.949 -0.1077  0.0257 -0.0632
  693PSPI   C1B10377   8.314  10.462   6.164  0.0597  0.0146  0.0515
  693PSPI   C2B10378   7.974  10.142   6.118 -0.0203  0.0167 -0.0595
  693PSPI   C3B10379   7.681   9.776   6.176  0.0232 -0.1483  0.2039
  693PSPI   C4B10380   7.410   9.535   6.309  0.0137  0.2425 -0.2689
  694POPI    C110381  15.729  12.637   5.347 -0.1943 -0.3136  0.1084
  694POPI    C210382  15.727  12.494   4.973 -0.0908 -0.0736  0.0140
  694POPI    C310383  15.386  12.620   5.142 -0.1585 -0.2961  0.0470
  694POPI   PO410384  15.805  12.433   5.491  0.0479 -0.1381 -0.1065
  694POPI   GL110385  15.886  12.452   5.936  0.1067  0.1517 -0.0168
  694POPI   GL210386  16.247  12.530   6.146 -0.1254 -0.2084  0.1909
  694POPI   C1A10387  15.819  12.775   6.304  0.2536 -0.0223 -0.0200
  694POPI   D2A10388  15.802  12.852   6.718  0.1690  0.0993  0.1223
  694POPI   C3A10389  15.486  12.537   6.867  0.0195  0.1818 -0.3790
  694POPI   C4A10390  15.375  12.220   7.072 -0.1397  0.0936 -0.0798
  694POPI   C1B10391  16.088  12.462   6.509 -0.0043 -0.0843 -0.0096
  694POPI   C2B10392  16.183  12.559   6.896 -0.0772  0.0542 -0.0005
  694POPI   C3B10393  15.959  12.417   7.243 -0.1020 -0.3345 -0.0150
  694POPI   C4B10394  15.721  12.188   7.470  0.1166  0.1021 -0.0621
  695POPI    C110395  11.243  17.271   5.231 -0.2218  0.1284 -0.1201
  695POPI    C210396  10.943  17.194   4.978 -0.1591  0.0653 -0.1755
  695POPI    C310397  11.307  17.044   4.908 -0.2306 -0.2768  0.1554
  695POPI   PO410398  11.120  17.228   5.449  0.0959  0.0734  0.2636
  695POPI   GL110399  10.809  17.479   5.763 -0.0065  0.2017  0.0319
  695POPI   GL210400  10.447  17.631   5.738  0.0026  0.0310  0.1264
  695POPI   C1A10401  10.525  17.343   6.179  0.1008 -0.1815  0.2532
  695POPI   D2A10402  10.247  17.320   6.516  0.0806  0.2230 -0.0140
  695POPI   C3A10403  10.401  17.380   6.973  0.0214 -0.2139  0.1524
  695POPI   C4A10404  10.421  17.715   7.226 -0.1957  0.0994  0.2858
  695POPI   C1B10405  10.152  17.837   6.063  0.2141  0.1210 -0.0998
  695POPI   C2B10406   9.890  17.636   6.311  0.0283 -0.1392 -0.2342
  695POPI   C3B10407   9.543  17.864   6.512 -0.0082  0.2013  0.1943
  695POPI   C4B10408   9.329  17.683   6.727  0.1990 -0.0843 -0.0103
  696POPI    C110409   1.551   7.384   5.547 -0.0165 -0.0358  0.0508
  696POPI    C210410   1.247   7.606   5.680 -0.0398  0.0186 -0.0916
  696POPI    C310411   1.277   7.521   5.291  0.0234 -0.1455 -0.0518
  696POPI   PO410412   1.734   7.489   5.685 -0.1774 -0.0855  0.0904
  696POPI   GL110413   2.036   7.447   6.043 -0.1021 -0.1974  0.2110
  696POPI   GL210414   1.960   7.704   6.119 -0.0176  0.0398  0.3507
  696POPI   C1A10415   2.013   7.223   6.340  0.1102  0.1812  0.1263
  696POPI   D2A10416   1.897   6.981   6.686 -0.0665 -0.2599  0.0016
  696POPI   C3A10417   1.996   7.183   7.062  0.3132 -0.0193 -0.0750
  696POPI   C4A10418   1.775   7.415   7.385  0.1139  0.3146 -0.2498
  696POPI   C1B10419   2.060   7.661   6.567 -0.2214 -0.0291  0.0730
  696POPI   C2B10420   2.031   7.754   7.042 -0.0216 -0.0403 -0.1984
  696POPI   C3B10421   2.207   7.754   7.415 -0.0879 -0.0227  0.2675
  696POPI   C4B10422   2.181   7.640   7.830  0.0547  0.1290 -0.2338
  697POPI    C110423   5.204   9.743   5.398 -0.0540  0.0660  0.0378
  697POPI    C210424   5.184   9.343   5.390 -0.0766  0.0690 -0.0938
  697POPI    C310425   5.079   9.555   5.067  0.3069  0.1653 -0.1607
  697POPI   PO410426   5.297   9.878   5.695 -0.1856  0.1376 -0.1051
  697POPI   GL110427   5.086   9.822   6.110 -0.0257  0.0965  0.0622
  697POPI   GL210428   5.370   9.941   6.163  0.1679  0.2281  0.0128
  697POPI   C1A10429   5.017   9.658   6.517 -0.1221 -0.0754 -0.0266
  697POPI   D2A10430   5.322   9.611   6.914  0.0047 -0.3596  0.0914
  697POPI   C3A10431   5.436   9.851   7.237  0.1351 -0.0482 -0.1246
  697POPI   C4A10432   5.279   9.919   7.728  0.0175 -0.0658  0.2996
  697POPI   C1B10433   5.442  10.008   6.633  0.2546  0.3074  0.1732
  697POPI   C2B10434   5.777  10.225   6.934  0.0233 -0.0978  0.3172
  697POPI   C3B10435   5.785  10.259   7.393  0.1132  0.2963  0.3833
  697POPI   C4B10436   5.951  10.619   7.484  0.2047 -0.1115 -0.0983
  698POPI    C110437   9.631   3.632   5.476  0.1314 -0.0470  0.1913
  698POPI    C210438   9.691   3.471   5.115  0.0327  0.0535  0.1294
  698POPI    C310439   9.606   3.860   5.149  0.0855  0.0537  0.2644
  698POPI   PO410440   9.793   3.413   5.667  0.1201 -0.1846 -0.1125
  698POPI   GL110441   9.881   3.006   5.708  0.1840 -0.0450 -0.2513
  698POPI   GL210442   9.552   2.806   5.747 -0.2886 -0.1812  0.1290
  698POPI   C1A10443   9.846   2.986   6.204 -0.0400 -0.2181 -0.0139
  698POPI   D2A10444  10.012   2.902   6.574  0.1403 -0.1151  0.0794
  698POPI   C3A10445   9.740   2.953   6.955 -0.0031  0.1679  0.0028
  698POPI   C4A10446   9.649   3.002   7.280  0.1938 -0.3046 -0.3805
  698POPI   C1B10447   9.369   2.702   6.198  0.0686  0.1926  0.0031
  698POPI   C2B10448   9.144   2.683   6.576 -0.0770  0.1623  0.1693
  698POPI   C3B10449   9.149   2.712   7.040 -0.4519  0.4336  0.0073
  698POPI   C4B10450   8.915   2.633   7.437 -0.0838  0.1133  0.3212
  699POPI    C110451   9.970   4.308   5.470 -0.2484  0.1590  0.1641
  699POPI    C210452  10.170   4.563   5.235 -0.1634 -0.0783 -0.0256
  699POPI    C310453   9.964   4.262   5.072 -0.1400 -0.2202  0.2029
  699POPI   PO410454  10.083   4.359   5.682  0.0844 -0.4592 -0.0497
  699POPI   GL110455  10.190   4.521   6.088  0.1303 -0.0644 -0.1620
  699POPI   GL210456   9.999   4.838   6.088  0.0151  0.0334  0.1980
  699POPI   C1A10457  10.249   4.520   6.578  0.0508 -0.0240  0.0589
  699POPI   D2A10458  10.397   4.331   6.901  0.1404 -0.0454  0.0261
  699POPI   C3A10459  10.159   4.463   7.304  0.1319  0.0841  0.0719
  699POPI   C4A10460  10.346   4.846   7.615  0.0806  0.0986  0.0825
  699POPI   C1B10461   9.764   4.754   6.407 -0.0867 -0.1200  0.2183
  699POPI   C2B10462   9.725   4.631   6.756 -0.1757  0.1052  0.0381
  699POPI   C3B10463   9.699   4.505   7.207  0.3373 -0.0489  0.1017
  699POPI   C4B10464   9.635   4.242   7.539  0.1774  0.0935  0.0761
  700POPI    C110465  12.625   5.940   5.311  0.0773 -0.0921 -0.0638
  700POPI    C210466  12.863   5.715   5.081  0.2230  0.1563 -0.1593
  700POPI    C310467  12.761   6.084   4.964  0.0283  0.1614  0.0204
  700POPI   PO410468  12.742   5.887   5.601  0.0641 -0.1120  0.0381
  700POPI   GL110469  12.931   6.006   5.925  0.0460 -0.0170 -0.0929
  700POPI   GL210470  13.246   6.212   5.936  0.0968 -0.0066  0.2807
  700POPI   C1A10471  12.609   5.878   6.271  0.1559  0.3290 -0.3012
  700POPI   D2A10472  12.397   5.520   6.420  0.0595  0.4532  0.0268
  700POPI   C3A10473  12.341   5.684   6.923 -0.2130 -0.0903  0.3149
  700POPI   C4A10474  12.553   5.691   7.275  0.0432  0.1799  0.1439
  700POPI   C1B10475  13.147   6.064   6.356 -0.2602 -0.2744 -0.4023
  700POPI   C2B10476  13.354   5.905   6.772 -0.0254  0.0195  0.0427
  700POPI   C3B10477  13.508   5.796   7.198 -0.0872 -0.2168  0.0346
  700POPI   C4B10478  13.715   6.055   7.435  0.0741 -0.3465  0.1524
  701POPI    C110479   2.441   2.394   5.618 -0.0403 -0.1268  0.1341
  701POPI    C210480   2.683   2.709   5.668 -0.2067  0.0466 -0.1261
  701POPI    C310481   2.386   2.642   5.928 -0.0134 -0.0455  0.0743
  701POPI   PO410482   2.602   2.184   5.575 -0.4003 -0.1594 -0.2206
  701POPI   GL110483   2.815   2.182   5.869  0.0097  0.0918 -0.2125
  701POPI   GL210484   3.049   2.458   5.918 -0.0986  0.0610  0.0512
  701POPI   C1A10485   2.598   2.070   6.242  0.2090 -0.0924 -0.0338
  701POPI   D2A10486   2.611   2.131   6.760 -0.0050  0.1333  0.0554
  701POPI   C3A10487   2.211   2.036   6.967  0.1662 -0.0408  0.1405
  701POPI   C4A10488   1.758   2.156   7.219 -0.2480 -0.0164  0.1066
  701POPI   C1B10489   3.314   2.565   6.244 -0.1420  0.1061 -0.0228
  701POPI   C2B10490   3.445   2.547   6.704  0.0620  0.2892 -0.3185
  701POPI   C3B10491   3.537   2.629   7.028 -0.0591 -0.1186  0.2339
  701POPI   C4B10492   3.515   2.589   7.461  0.1931  0.0411  0.0878
  702POPI    C110493  16.843   4.209   5.813 -0.0230 -0.2209 -0.0119
  702POPI    C210494  16.838   4.024   5.459 -0.2658  0.0646 -0.1625
  702POPI    C310495  16.516   4.010   5.696 -0.1756  0.0411 -0.0403
  702POPI   PO410496  17.060   4.078   5.930 -0.1015  0.1162  0.2269
  702POPI   GL110497  17.178   3.786   6.162  0.0975 -0.1819 -0.0555
  702POPI   GL210498  17.341   3.498   6.171 -0.1001 -0.2853  0.1355
  702POPI   C1A10499  17.366   3.851   6.557  0.0004  0.0081  0.1640
  702POPI   D2A10500  17.449   3.673   6.927 -0.1118  0.0717 -0.0815
  702POPI   C3A10501  17.236   3.873   7.304  0.0649 -0.0114  0.0414
  702POPI   C4A10502  17.121   3.844   7.654 -0.2660 -0.3289  0.2597
  702POPI   C1B10503  17.096   3.454   6.630  0.0129  0.0061 -0.0777
  702POPI   C2B10504  17.113   3.401   7.146  0.0085  0.1367 -0.1813
  702POPI   C3B10505  16.888   3.405   7.482  0.1029 -0.2121 -0.4988
  702POPI   C4B10506  16.439   3.636   7.636  0.0700 -0.3395 -0.0871
  703POPI    C110507  14.145  11.836   5.289  0.0279 -0.2317 -0.2236
  703POPI    C210508  14.070  12.025   4.945 -0.1091  0.0816 -0.0262
  703POPI    C310509  13.864  11.696   5.041 -0.0369 -0.0349 -0.2630
  703POPI   PO410510  14.228  12.023   5.495  0.0434  0.4523  0.2535
  703POPI   GL110511  14.504  11.985   5.960 -0.1206 -0.1304 -0.1081
  703POPI   GL210512  14.522  12.329   6.030  0.0838 -0.3623 -0.1483
  703POPI   C1A10513  14.619  11.807   6.311  0.1607  0.1624 -0.2405
  703POPI   D2A10514  14.560  11.812   6.797  0.1582 -0.0021  0.2120
  703POPI   C3A10515  14.614  11.457   7.110 -0.0228 -0.3636 -0.1488
  703POPI   C4A10516  14.697  11.583   7.520 -0.2063  0.0778  0.0130
  703POPI   C1B10517  14.462  12.318   6.437  0.1868  0.0276  0.1092
  703POPI   C2B10518  14.267  12.293   6.912  0.0725 -0.2012 -0.1971
  703POPI   C3B10519  14.150  12.309   7.369 -0.2209 -0.1411  0.1623
  703POPI   C4B10520  13.858  12.150   7.718  0.2189  0.0793 -0.3469
  704POPI    C110521   4.030  11.181   5.445 -0.2904 -0.2911  0.2315
  704POPI    C210522   4.219  10.839   5.364  0.0835 -0.0305 -0.0300
  704POPI    C310523   4.110  11.082   5.066 -0.2176  0.0614  0.1512
  704POPI   PO410524   3.942  11.117   5.738 -0.0245 -0.0219 -0.0614
  704POPI   GL110525   4.264  11.107   6.131  0.2081  0.0038 -0.3113
  704POPI   GL210526   4.378  11.421   6.146 -0.4335 -0.4685 -0.0802
  704POPI   C1A10527   4.275  11.160   6.549  0.2091  0.0968 -0.2731
  704POPI   D2A10528   4.173  11.335   6.976  0.1474 -0.0662 -0.0556
  704POPI   C3A10529   4.124  11.137   7.280  0.0127 -0.2592  0.0264
  704POPI   C4A10530   3.856  11.387   7.588 -0.1741 -0.3236  0.1471
  704POPI   C1B10531   4.432  11.647   6.523 -0.2455  0.0056  0.1454
  704POPI   C2B10532   4.447  11.754   6.942 -0.1853  0.2857  0.2238
  704POPI   C3B10533   4.749  11.773   7.232  0.1032 -0.0035 -0.4484
  704POPI   C4B10534   4.934  11.730   7.636 -0.2511 -0.3241 -0.0457
  705POPI    C110535  14.425  15.416   5.452 -0.0102 -0.1056  0.2115
  705POPI    C210536  14.166  15.126   5.359 -0.0894  0.0606 -0.1002
  705POPI    C310537  14.460  15.222   5.105  0.1001  0.0745  0.1200
  705POPI   PO410538  14.472  15.337   5.692 -0.1530  0.3276  0.1219
  705POPI   GL110539  14.591  15.445   6.066  0.0649  0.1156 -0.0151
  705POPI   GL210540  14.537  14.997   6.066 -0.0955 -0.5011 -0.3160
  705POPI   C1A10541  14.540  15.677   6.452  0.1374  0.0070 -0.2542
  705POPI   D2A10542  14.351  15.733   6.827 -0.0184  0.0617  0.2461
  705POPI   C3A10543  13.835  15.976   6.897 -0.0774  0.2194  0.0600
  705POPI   C4A10544  13.393  16.065   6.911  0.0295 -0.0373  0.0704
  705POPI   C1B10545  14.646  15.116   6.454 -0.0182  0.1666  0.0514
  705POPI   C2B10546  14.505  15.221   6.793  0.0440 -0.3149 -0.1434
  705POPI   C3B10547  14.366  15.377   7.153  0.0049  0.3631  0.3943
  705POPI   C4B10548  14.497  15.513   7.659 -0.0048 -0.0087  0.0322
  706POPI    C110549   5.906  10.567   5.440 -0.0287  0.0230  0.0202
  706POPI    C210550   5.912  10.801   5.116  0.0178 -0.0250 -0.0136
  706POPI    C310551   5.596  10.566   5.187 -0.1470  0.2450  0.1612
  706POPI   PO410552   6.148  10.336   5.446  0.0450 -0.2135  0.0378
  706POPI   GL110553   6.107  10.333   5.889 -0.5031  0.0874 -0.3751
  706POPI   GL210554   6.350  10.351   6.063 -0.4047 -0.0592 -0.3343
  706POPI   C1A10555   5.861  10.231   6.300  0.0085  0.0542  0.1843
  706POPI   D2A10556   5.502  10.378   6.298  0.2931 -0.3242 -0.2113
  706POPI   C3A10557   5.351  10.468   6.801  0.1077  0.0105  0.2190
  706POPI   C4A10558   5.254  10.353   7.243 -0.0402  0.0076  0.0664
  706POPI   C1B10559   6.281  10.470   6.493  0.1438 -0.1299 -0.0496
  706POPI   C2B10560   6.256  10.601   7.017  0.2608  0.1680 -0.0324
  706POPI   C3B10561   6.562  10.559   7.407  0.2074 -0.0306  0.3165
  706POPI   C4B10562   6.769  10.174   7.573  0.1032  0.1015 -0.0045
  707POPI    C110563  13.431  10.062   5.265 -0.0704  0.2288  0.0635
  707POPI    C210564  13.720  10.246   5.058  0.0003 -0.1867 -0.2186
  707POPI    C310565  13.815  10.005   5.363 -0.0661 -0.1102 -0.1367
  707POPI   PO410566  13.282  10.286   5.328  0.0982 -0.0141 -0.0701
  707POPI   GL110567  13.199  10.596   5.710 -0.2678  0.2853  0.3883
  707POPI   GL210568  13.469  10.377   5.929 -0.0315  0.0968 -0.0099
  707POPI   C1A10569  13.343  11.021   5.858 -0.3266  0.0305  0.1374
  707POPI   D2A10570  13.549  11.152   6.369 -0.1818 -0.0192  0.1983
  707POPI   C3A10571  13.833  11.517   6.371  0.0349  0.0107 -0.2376
  707POPI   C4A10572  14.253  11.528   6.185  0.0462  0.1043 -0.2492
  707POPI   C1B10573  13.347  10.731   6.254 -0.0367  0.2621  0.3270
  707POPI   C2B10574  13.452  10.767   6.700 -0.2214 -0.0923  0.3249
  707POPI   C3B10575  13.455  10.667   7.157  0.0326 -0.0390 -0.1807
  707POPI   C4B10576  13.351  10.856   7.584  0.1319  0.1133 -0.0812
  708POPI    C110577   8.518  15.564   5.364 -0.0578  0.1927 -0.0014
  708POPI    C210578   8.227  15.631   5.098 -0.0548 -0.1676 -0.1008
  708POPI    C310579   8.607  15.604   4.976 -0.0183 -0.0366 -0.0177
  708POPI   PO410580   8.478  15.753   5.558 -0.1942  0.0980  0.0452
  708POPI   GL110581   8.228  15.852   5.904  0.1613  0.4119 -0.2664
  708POPI   GL210582   8.479  15.788   6.051 -0.2623 -0.1881  0.2117
  708POPI   C1A10583   7.765  15.839   6.002  0.0667 -0.1622 -0.0804
  708POPI   D2A10584   7.276  15.675   6.101  0.1773 -0.1520 -0.1805
  708POPI   C3A10585   7.185  15.621   6.466  0.1306  0.0705 -0.1491
  708POPI   C4A10586   7.364  15.467   6.840  0.3339 -0.1161  0.2309
  708POPI   C1B10587   8.443  15.883   6.475 -0.3275 -0.1421  0.0605
  708POPI   C2B10588   8.447  16.150   6.807 -0.3223 -0.0581 -0.0736
  708POPI   C3B10589   8.224  15.840   7.098  0.1439 -0.1413  0.3306
  708POPI   C4B10590   7.970  15.686   7.313  0.1053  0.3052  0.1439
  709POPI    C110591  17.877   6.169   5.378 -0.1012 -0.2144 -0.1475
  709POPI    C210592  18.227   6.308   5.242 -0.0488 -0.1449  0.0545
  709POPI    C310593  18.137   5.920   5.203 -0.0600 -0.1165 -0.2270
  709POPI   PO410594  17.859   6.241   5.616 -0.0187 -0.0075 -0.3892
  709POPI   GL110595  17.944   6.226   5.969  0.3186 -0.0157  0.0319
  709POPI   GL210596  18.161   6.497   5.885  0.1795  0.0217  0.0025
  709POPI   C1A10597  17.981   6.295   6.335  0.0480  0.3057  0.0946
  709POPI   D2A10598  17.990   6.233   6.791  0.0689  0.2864  0.1873
  709POPI   C3A10599  17.807   6.221   7.247  0.0446 -0.0655 -0.0386
  709POPI   C4A10600  17.690   6.039   7.617  0.0821 -0.5453 -0.1623
  709POPI   C1B10601  18.200   6.727   6.222  0.3409  0.0496  0.1775
  709POPI   C2B10602  17.974   6.687   6.669 -0.2016 -0.1425 -0.2949
  709POPI   C3B10603  18.004   6.762   7.073 -0.2894 -0.1157  0.1115
  709POPI   C4B10604  17.935   7.059   7.332  0.0505 -0.1089 -0.1021
  710POPI    C110605  17.566   1.712   5.533 -0.0067  0.1079 -0.0993
  710POPI    C210606  17.270   1.981   5.542 -0.1033  0.0084 -0.2585
  710POPI    C310607  17.564   2.016   5.272  0.1269  0.2054  0.0115
  710POPI   PO410608  17.523   1.650   5.849  0.0332 -0.1202 -0.1414
  710POPI   GL110609  17.617   1.614   6.281  0.1102  0.0144 -0.1127
  710POPI   GL210610  17.741   1.861   6.543 -0.1982  0.3245  0.3071
  710POPI   C1A10611  17.463   1.484   6.741 -0.0674 -0.1465 -0.1529
  710POPI   D2A10612  17.315   1.270   7.127 -0.0012 -0.2340 -0.1524
  710POPI   C3A10613  17.590   1.340   7.362  0.2869  0.0014  0.0382
  710POPI   C4A10614  17.956   1.467   7.473  0.0659  0.2076  0.0310
  710POPI   C1B10615  17.540   2.059   6.831  0.0875 -0.2150 -0.1996
  710POPI   C2B10616  17.217   2.374   6.899  0.1862 -0.3690 -0.0614
  710POPI   C3B10617  16.897   2.566   7.205 -0.0140 -0.0702  0.2618
  710POPI   C4B10618  16.878   2.581   7.678 -0.2099  0.0019 -0.1875
  711POPI    C110619   6.183   9.307   5.356  0.1847  0.2211 -0.1639
  711POPI    C210620   5.887   9.059   5.252  0.1526  0.2368 -0.1109
  711POPI    C310621   5.993   9.358   5.008 -0.0928  0.4291  0.0141
  711POPI   PO410622   6.109   9.454   5.622 -0.3690 -0.2937  0.0255
  711POPI   GL110623   6.059   9.329   6.065  0.1375  0.0367 -0.1066
  711POPI   GL210624   5.936   9.629   6.237 -0.0034 -0.0584  0.0748
  711POPI   C1A10625   6.209   9.298   6.558  0.3649 -0.2026 -0.1118
  711POPI   D2A10626   6.295   9.145   6.888 -0.2789  0.2105 -0.1434
  711POPI   C3A10627   6.251   9.334   7.231  0.2025  0.1433 -0.0347
  711POPI   C4A10628   6.193   9.419   7.643  0.2086 -0.2059 -0.1109
  711POPI   C1B10629   5.800   9.641   6.600 -0.0113  0.0137 -0.0602
  711POPI   C2B10630   5.930   9.719   7.103  0.0030  0.1330 -0.1885
  711POPI   C3B10631   5.907   9.787   7.510 -0.1811 -0.1832  0.4432
  711POPI   C4B10632   6.152   9.884   7.942 -0.2534  0.3884  0.0629
  712POPI    C110633  11.275  14.615   5.424  0.3174 -0.1622  0.3887
  712POPI    C210634  11.525  14.692   5.122  0.1393 -0.0435  0.2694
  712POPI    C310635  11.220  14.440   5.068  0.1151 -0.0325  0.3544
  712POPI   PO410636  11.328  14.800   5.578 -0.4621 -0.0772  0.2399
  712POPI   GL110637  11.529  14.719   5.993  0.0366 -0.4013  0.1027
  712POPI   GL210638  11.752  14.600   5.903 -0.3945  0.1148 -0.1769
  712POPI   C1A10639  11.227  14.649   6.402 -0.4118 -0.2751 -0.1520
  712POPI   D2A10640  10.928  14.653   6.789  0.0882  0.2385 -0.2243
  712POPI   C3A10641  11.146  14.686   7.110  0.0452  0.1273  0.2174
  712POPI   C4A10642  11.124  14.657   7.495  0.1074 -0.1513  0.0053
  712POPI   C1B10643  11.924  14.804   6.250  0.1771 -0.1731  0.1084
  712POPI   C2B10644  12.077  15.030   6.572  0.3375  0.4156  0.0289
  712POPI   C3B10645  12.035  15.014   6.991  0.3273 -0.0322  0.3193
  712POPI   C4B10646  12.101  14.914   7.371 -0.1820 -0.0344 -0.2022
  713POPI    C110647   8.447  15.114   5.389  0.0704 -0.2216  0.0030
  713POPI    C210648   8.507  15.095   4.994 -0.0492 -0.1267 -0.0202
  713POPI    C310649   8.143  15.177   5.137  0.0350  0.0330  0.1064
  713POPI   PO410650   8.639  14.945   5.455  0.1174 -0.0388  0.0388
  713POPI   GL110651   8.762  14.903   5.885 -0.0354 -0.0392 -0.2396
  713POPI   GL210652   8.658  15.081   6.212 -0.2666  0.2582  0.1017
  713POPI   C1A10653   8.917  14.475   5.942 -0.0005 -0.2519 -0.2601
  713POPI   D2A10654   9.313  14.327   5.997  0.1284  0.3122  0.0811
  713POPI   C3A10655   9.250  14.266   6.469 -0.1915 -0.1546  0.3042
  713POPI   C4A10656   9.175  14.207   6.865 -0.1036 -0.4774  0.0227
  713POPI   C1B10657   8.596  14.985   6.634 -0.1000 -0.0411  0.2711
  713POPI   C2B10658   8.310  14.768   6.957  0.2187 -0.3731  0.2980
  713POPI   C3B10659   7.885  14.758   7.204  0.0304 -0.0052 -0.0946
  713POPI   C4B10660   7.846  14.855   7.643  0.1239  0.1712 -0.2811
  714POPI    C110661  10.785  18.640   5.475 -0.0306 -0.0051  0.1198
  714POPI    C210662  10.778  18.817   5.117 -0.2064 -0.0798  0.0855
  714POPI    C310663  10.611  18.456   5.165  0.0248 -0.1748  0.1882
  714POPI   PO410664  10.778  18.761   5.650 -0.0417 -0.3266  0.0865
  714POPI   GL110665  10.938  18.763   6.084  0.1084 -0.1037  0.0340
  714POPI   GL210666  11.249  18.988   6.248 -0.1582  0.1691 -0.2453
  714POPI   C1A10667  10.801  18.621   6.421  0.0309  0.2286 -0.1264
  714POPI   D2A10668  10.937  18.466   6.867  0.0688 -0.0681  0.1087
  714POPI   C3A10669  11.377  18.307   6.785 -0.1751  0.3444 -0.2018
  714POPI   C4A10670  11.796  18.587   6.711 -0.1753  0.1840  0.1598
  714POPI   C1B10671  11.351  18.828   6.633  0.2625  0.0268 -0.0663
  714POPI   C2B10672  11.428  18.718   7.086 -0.2469  0.2164  0.0015
  714POPI   C3B10673  11.287  18.485   7.256 -0.0321  0.2232  0.1370
  714POPI   C4B10674  11.260  18.005   7.198  0.2510 -0.0847  0.1643
  715POPI    C110675   6.002  18.153   5.604 -0.0640 -0.0255 -0.0550
  715POPI    C210676   6.054  18.509   5.430 -0.2939  0.0708  0.0687
  715POPI    C310677   5.760  18.268   5.307 -0.3922  0.0950  0.2524
  715POPI   PO410678   6.221  17.910   5.719 -0.1777 -0.1849 -0.1368
  715POPI   GL110679   6.284  17.883   6.113  0.0232 -0.2811 -0.0986
  715POPI   GL210680   6.515  17.895   6.112 -0.0262  0.1845  0.0887
  715POPI   C1A10681   6.303  17.806   6.555  0.1968  0.0099 -0.0227
  715POPI   D2A10682   6.321  17.847   6.944 -0.0395  0.4761 -0.2725
  715POPI   C3A10683   6.593  17.920   7.185  0.0317  0.2333 -0.0676
  715POPI   C4A10684   6.863  17.661   7.442  0.1250 -0.1723  0.1151
  715POPI   C1B10685   6.800  18.097   6.391  0.1084 -0.2152  0.0695
  715POPI   C2B10686   7.228  18.226   6.399 -0.3289 -0.0121  0.0819
  715POPI   C3B10687   7.575  18.404   6.483 -0.1414  0.0096 -0.2905
  715POPI   C4B10688   7.912  18.685   6.605  0.4321 -0.0699  0.2306
  716POPI    C110689   8.236  14.314   5.231 -0.1215  0.0561  0.2226
  716POPI    C210690   8.078  14.665   5.125 -0.0180  0.1022  0.2201
  716POPI    C310691   8.475  14.619   5.135 -0.0311 -0.0131  0.2262
  716POPI   PO410692   8.077  14.205   5.446 -0.2273 -0.0595  0.2355
  716POPI   GL110693   8.019  14.077   5.852 -0.0248 -0.2165 -0.0974
  716POPI   GL210694   7.828  14.358   5.860  0.0870  0.0025 -0.1045
  716POPI   C1A10695   8.377  14.276   6.048 -0.1038  0.2056  0.1787
  716POPI   D2A10696   8.476  14.621   6.282 -0.2117 -0.4211 -0.1002
  716POPI   C3A10697   8.854  14.667   6.380  0.3812 -0.1664 -0.0303
  716POPI   C4A10698   9.124  14.752   6.363 -0.0734  0.1963 -0.0315
  716POPI   C1B10699   7.882  14.386   6.247 -0.1814 -0.2417  0.1025
  716POPI   C2B10700   8.168  14.448   6.594 -0.1473  0.0454  0.2462
  716POPI   C3B10701   8.121  14.324   7.023  0.1486 -0.0314  0.0217
  716POPI   C4B10702   8.302  14.435   7.451 -0.0205  0.1780 -0.0971
  717POPI    C110703  13.487  16.612   5.628  0.0260 -0.0418  0.0244
  717POPI    C210704  13.547  16.703   5.243  0.0213  0.0432  0.0438
  717POPI    C310705  13.431  16.335   5.345  0.1671 -0.0221 -0.0236
  717POPI   PO410706  13.728  16.705   5.734  0.0486  0.1949  0.1841
  717POPI   GL110707  13.682  16.925   6.076  0.0138  0.1809  0.0419
  717POPI   GL210708  13.374  16.917   6.003 -0.1074  0.1680 -0.0283
  717POPI   C1A10709  13.560  16.663   6.427 -0.2593 -0.1533  0.0495
  717POPI   D2A10710  13.703  16.526   6.830 -0.1669 -0.0002  0.2941
  717POPI   C3A10711  13.780  16.816   7.166 -0.0198  0.2454 -0.2146
  717POPI   C4A10712  13.908  17.096   7.480 -0.1986 -0.0585 -0.1768
  717POPI   C1B10713  13.134  16.494   6.150  0.0022 -0.0937  0.0184
  717POPI   C2B10714  13.113  16.336   6.571  0.1347  0.0598  0.2769
  717POPI   C3B10715  12.997  16.385   6.950  0.2121  0.0210  0.2586
  717POPI   C4B10716  12.613  16.354   7.272 -0.0217  0.2131  0.1693
  718POPI    C110717   0.393   9.493   5.658 -0.1345 -0.1227 -0.1256
  718POPI    C210718   0.051   9.663   5.779 -0.0060 -0.0199  0.0995
  718POPI    C310719   0.156   9.677   5.393 -0.2845 -0.1055  0.0187
  718POPI   PO410720   0.524   9.341   5.864  0.0835  0.0201  0.1360
  718POPI   GL110721   0.651   9.584   6.156  0.2672 -0.1213  0.1126
  718POPI   GL210722   0.653   9.962   6.140  0.0902 -0.2444 -0.1533
  718POPI   C1A10723   0.746   9.636   6.557  0.2856  0.0490  0.0459
  718POPI   D2A10724   0.825   9.650   7.072  0.0687  0.0793  0.2533
  718POPI   C3A10725   0.591   9.435   7.397  0.0017  0.0906 -0.0685
  718POPI   C4A10726   0.530   9.107   7.637 -0.0258 -0.2230  0.0603
  718POPI   C1B10727   0.669  10.246   6.517  0.0879 -0.0829 -0.5388
  718POPI   C2B10728   0.573  10.118   6.945  0.0640  0.0282  0.2356
  718POPI   C3B10729   0.347   9.866   7.231 -0.2088 -0.0900  0.2311
  718POPI   C4B10730   0.488   9.871   7.717 -0.0700 -0.0226  0.0096
  719POPI    C110731  15.507   9.664   5.008  0.1885  0.0827 -0.1181
  719POPI    C210732  15.134   9.590   4.885  0.2138 -0.0372 -0.1238
  719POPI    C310733  15.318   9.928   4.774  0.0912  0.0438 -0.0834
  719POPI   PO410734  15.460   9.606   5.272  0.2501 -0.2093 -0.0306
  719POPI   GL110735  15.636   9.911   5.647  0.1816 -0.4635 -0.2506
  719POPI   GL210736  15.889   9.994   5.771  0.3295  0.1917  0.0526
  719POPI   C1A10737  15.494   9.995   6.083  0.1661  0.1071  0.0845
  719POPI   D2A10738  15.472  10.031   6.494  0.0685 -0.0735 -0.0806
  719POPI   C3A10739  15.593  10.478   6.740 -0.0298  0.0943  0.0429
  719POPI   C4A10740  15.747  10.568   7.073  0.1297  0.0673  0.1836
  719POPI   C1B10741  16.003  10.021   6.277 -0.0307  0.0831 -0.1778
  719POPI   C2B10742  16.031  10.152   6.654  0.1641  0.3263  0.2064
  719POPI   C3B10743  16.079  10.197   7.131 -0.1178 -0.0332 -0.0129
  719POPI   C4B10744  15.789  10.246   7.504  0.0625  0.0762  0.0367
  720POPI    C110745   9.230   6.523   5.897  0.1955  0.3959 -0.0570
  720POPI    C210746   9.498   6.523   5.600 -0.1057 -0.0505 -0.3414
  720POPI    C310747   9.107   6.505   5.517 -0.1997 -0.0715  0.0822
  720POPI   PO410748   9.455   6.583   6.106  0.3771  0.4044 -0.2637
  720POPI   GL110749   9.685   6.837   6.426 -0.2078  0.1118 -0.0172
  720POPI   GL210750   9.486   7.002   6.580  0.1648  0.0290  0.2986
  720POPI   C1A10751   9.606   6.547   6.742 -0.1838  0.2339  0.0145
  720POPI   D2A10752   9.582   6.434   7.256  0.1036  0.0873  0.3445
  720POPI   C3A10753   9.412   6.739   7.628  0.0462 -0.0061 -0.0128
  720POPI   C4A10754   9.095   6.872   7.655  0.0118 -0.1049 -0.0329
  720POPI   C1B10755   9.267   7.047   6.997 -0.2929 -0.0157 -0.0470
  720POPI   C2B10756   9.457   7.239   7.489 -0.0719 -0.0064  0.0399
  720POPI   C3B10757   9.601   7.412   7.994  0.0622 -0.2576 -0.2686
  720POPI   C4B10758   9.766   7.559   8.439  0.0340  0.1337  0.3399
  721POPI    C110759  18.290  10.539   5.617  0.1684 -0.1103  0.0514
  721POPI    C210760  18.036  10.709   5.359  0.2023  0.0991  0.1534
  721POPI    C310761  18.307  10.445   5.229  0.0742  0.0362  0.0108
  721POPI   PO410762  18.229  10.698   5.869 -0.1841  0.1969  0.0370
  721POPI   GL110763  18.195  10.741   6.298  0.1075  0.2902 -0.1675
  721POPI   GL210764  18.251  10.443   6.353  0.2590  0.1752 -0.1730
  721POPI   C1A10765  18.352  11.118   6.358  0.3674 -0.1629  0.1270
  721POPI   D2A10766  18.470  11.379   6.537 -0.2091  0.2421 -0.2072
  721POPI   C3A10767  18.570  11.224   6.962  0.2899 -0.1579 -0.0442
  721POPI   C4A10768  18.279  11.434   7.316 -0.0985 -0.2106 -0.1094
  721POPI   C1B10769  18.038  10.443   6.788  0.0033  0.1594  0.2124
  721POPI   C2B10770  17.837  10.499   7.136 -0.0846 -0.1042  0.1974
  721POPI   C3B10771  17.701  10.910   7.281  0.0816  0.0826  0.1997
  721POPI   C4B10772  17.445  11.228   7.659 -0.0822  0.0467  0.0126
  722POPI    C110773   6.413  13.642   5.580 -0.0245  0.0233 -0.1090
  722POPI    C210774   6.446  13.381   5.279  0.0134 -0.0171 -0.0698
  722POPI    C310775   6.774  13.513   5.466 -0.0029  0.0890 -0.1156
  722POPI   PO410776   6.201  13.705   5.569 -0.3310  0.0758 -0.0141
  722POPI   GL110777   5.902  13.604   5.916  0.2803  0.1250 -0.1622
  722POPI   GL210778   5.642  13.843   5.941  0.0311 -0.2835  0.1333
  722POPI   C1A10779   6.093  13.596   6.324 -0.1327 -0.0847  0.2563
  722POPI   D2A10780   6.322  13.521   6.622  0.0061  0.3708  0.1051
  722POPI   C3A10781   6.594  13.777   6.764 -0.3053 -0.0654  0.0352
  722POPI   C4A10782   6.648  14.216   6.644  0.0584 -0.2735 -0.0699
  722POPI   C1B10783   5.635  13.779   6.366  0.0527  0.1712 -0.1175
  722POPI   C2B10784   5.699  13.793   6.746  0.1880  0.1494  0.0089
  722POPI   C3B10785   5.714  13.795   7.257  0.2616 -0.0479 -0.0564
  722POPI   C4B10786   6.064  13.709   7.566  0.0777 -0.0964 -0.1010
  723POPI    C110787   6.696   1.570   5.312  0.2394 -0.0864 -0.1226
  723POPI    C210788   6.394   1.645   5.061  0.0732 -0.1941  0.0429
  723POPI    C310789   6.719   1.878   5.058 -0.1389  0.1082  0.0713
  723POPI   PO410790   6.618   1.303   5.420  0.0929  0.2085  0.3382
  723POPI   GL110791   6.574   1.138   5.827 -0.0714  0.0225 -0.3082
  723POPI   GL210792   6.319   1.340   5.867 -0.0788 -0.2538 -0.1526
  723POPI   C1A10793   6.792   1.301   6.179 -0.0503 -0.3092  0.2543
  723POPI   D2A10794   6.783   1.147   6.607  0.0912  0.2159  0.0214
  723POPI   C3A10795   7.005   1.246   6.957 -0.1001  0.0120  0.1364
  723POPI   C4A10796   7.074   1.207   7.428  0.0457  0.1231  0.1312
  723POPI   C1B10797   6.351   1.616   6.060  0.0944 -0.0558  0.0636
  723POPI   C2B10798   6.578   1.634   6.419  0.0784  0.4056 -0.1568
  723POPI   C3B10799   6.645   1.583   6.862 -0.0811  0.0271  0.0600
  723POPI   C4B10800   6.969   1.673   7.186 -0.0728  0.3264  0.0769
  724POPI    C110801  11.748  17.244   5.294  0.1187 -0.0660  0.0814
  724POPI    C210802  11.828  17.631   5.229 -0.1263 -0.0303 -0.0200
  724POPI    C310803  12.045  17.348   5.047  0.0740  0.0574  0.0786
  724POPI   PO410804  11.727  17.188   5.514 -0.1861  0.1777 -0.2616
  724POPI   GL110805  11.409  17.266   5.818  0.0028  0.1945  0.0259
  724POPI   GL210806  11.210  17.090   5.891  0.3113  0.0535 -0.2557
  724POPI   C1A10807  11.590  17.448   6.127  0.3000 -0.0283 -0.0509
  724POPI   D2A10808  11.819  17.662   6.378  0.1436 -0.1875 -0.2081
  724POPI   C3A10809  11.575  17.760   6.676 -0.0845 -0.1429  0.0060
  724POPI   C4A10810  11.422  17.450   7.100  0.0144  0.0994 -0.2326
  724POPI   C1B10811  11.034  17.361   6.192  0.2547  0.2536 -0.0750
  724POPI   C2B10812  10.791  17.380   6.623  0.0973  0.4639 -0.1763
  724POPI   C3B10813  10.964  17.159   6.958  0.1643  0.1813  0.3538
  724POPI   C4B10814  11.219  16.993   7.384 -0.1132 -0.2521 -0.1015
  725POPI    C110815   7.651  14.990   5.235  0.2000  0.0481  0.0460
  725POPI    C210816   7.585  14.710   4.958 -0.0282  0.0478  0.0988
  725POPI    C310817   7.758  15.056   4.855 -0.0393  0.0161 -0.0287
  725POPI   PO410818   7.475  14.951   5.491  0.2933  0.0202 -0.1139
  725POPI   GL110819   7.559  15.058   5.941 -0.0776  0.1674  0.1680
  725POPI   GL210820   7.537  14.730   5.940  0.1062 -0.0464 -0.0735
  725POPI   C1A10821   7.632  15.281   6.311 -0.4081 -0.1564 -0.0630
  725POPI   D2A10822   7.673  15.652   6.513 -0.0490  0.1506 -0.1418
  725POPI   C3A10823   7.766  15.801   6.880 -0.1985  0.0136 -0.1221
  725POPI   C4A10824   7.654  16.150   7.193  0.0014  0.0375  0.0672
  725POPI   C1B10825   7.535  14.719   6.324 -0.2002  0.3598  0.2645
  725POPI   C2B10826   7.719  14.548   6.754  0.3860  0.3537 -0.0230
  725POPI   C3B10827   7.572  14.385   7.051  0.0578 -0.1210  0.0097
  725POPI   C4B10828   7.535  13.997   7.188 -0.0552 -0.1313 -0.2388
  726POPI    C110829  18.710   0.839   5.301  0.0618 -0.1611  0.0381
  726POPI    C210830  18.766   0.493   5.110  0.0117 -0.0697 -0.1443
  726POPI    C310831  18.653   0.818   4.906  0.1614  0.0804  0.0089
  726POPI   PO410832  18.968   0.894   5.460 -0.0072  0.0022  0.1503
  726POPI   GL110833  18.882   0.955   5.938 -0.1681  0.1800 -0.0750
  726POPI   GL210834  18.660   1.069   6.130  0.0309 -0.1080  0.1500
  726POPI   C1A10835  19.089   0.827   6.342  0.0757  0.0589  0.2519
  726POPI   D2A10836  19.216   0.873   6.696  0.0702 -0.0524  0.0490
  726POPI   C3A10837  19.080   0.692   7.061 -0.2748 -0.0310 -0.1389
  726POPI   C4A10838  18.912   0.627   7.432  0.2084  0.0580  0.0240
  726POPI   C1B10839  18.788   1.204   6.549 -0.2076  0.0997  0.2113
  726POPI   C2B10840  18.761   1.398   6.971  0.4216  0.1208 -0.1665
  726POPI   C3B10841  18.838   1.170   7.361  0.1866 -0.1388 -0.2655
  726POPI   C4B10842  18.935   1.028   7.849 -0.0423  0.1628 -0.3284
  727POPI    C110843   5.898  16.581   5.596 -0.0218  0.2600 -0.0410
  727POPI    C210844   6.166  16.613   5.301  0.0845 -0.2086 -0.0034
  727POPI    C310845   5.808  16.451   5.228 -0.0355  0.0326  0.0413
  727POPI   PO410846   5.996  16.541   5.862  0.1221 -0.1954  0.1128
  727POPI   GL110847   6.059  16.592   6.358  0.1877  0.2888  0.0290
  727POPI   GL210848   5.804  16.307   6.245  0.1063  0.0230 -0.1165
  727POPI   C1A10849   6.215  16.699   6.717 -0.2216  0.0037 -0.0252
  727POPI   D2A10850   6.097  16.933   7.006  0.1146 -0.1751 -0.0793
  727POPI   C3A10851   6.308  17.018   7.330  0.1065  0.1123 -0.0532
  727POPI   C4A10852   6.176  17.202   7.708  0.0111 -0.3232 -0.1534
  727POPI   C1B10853   6.077  16.208   6.652  0.1771  0.1671  0.0039
  727POPI   C2B10854   6.290  16.287   6.971  0.2760 -0.2422  0.0139
  727POPI   C3B10855   6.362  16.520   7.263  0.3966  0.0903 -0.0154
  727POPI   C4B10856   6.357  16.623   7.710  0.0971 -0.1675 -0.2553
  728POPI    C110857   0.283  16.977   5.267 -0.0637  0.0076  0.0239
  728POPI    C210858   0.100  16.661   5.104  0.0481 -0.0640  0.0368
  728POPI    C310859   0.434  16.806   4.938 -0.1780  0.2464 -0.1557
  728POPI   PO410860   0.153  16.937   5.581  0.3279 -0.3961  0.1856
  728POPI   GL110861   0.241  16.813   5.909  0.2146 -0.3222 -0.0594
  728POPI   GL210862   0.452  16.866   5.990  0.2788  0.1417  0.1462
  728POPI   C1A10863   0.059  16.908   6.441 -0.1078  0.4911  0.1902
  728POPI   D2A10864  -0.204  17.124   6.775  0.2636 -0.2233 -0.1427
  728POPI   C3A10865  -0.228  17.108   7.251  0.1800  0.1071 -0.0743
  728POPI   C4A10866  -0.277  16.722   7.409 -0.1627 -0.0097 -0.1175
  728POPI   C1B10867   0.668  16.820   6.444 -0.1755  0.0820  0.3437
  728POPI   C2B10868   0.797  16.770   6.860  0.3154 -0.3330 -0.0492
  728POPI   C3B10869   1.191  16.595   6.825  0.1387 -0.1396 -0.4047
  728POPI   C4B10870   1.425  16.297   7.161  0.0651 -0.0582 -0.0310
  729POPI    C110871  18.035   4.041   5.445 -0.0430  0.0706  0.0666
  729POPI    C210872  17.723   4.282   5.378 -0.2620 -0.2173  0.0345
  729POPI    C310873  18.003   4.234   5.097 -0.2046  0.0162  0.0506
  729POPI   PO410874  18.112   4.139   5.650 -0.0795 -0.3377 -0.2074
  729POPI   GL110875  18.060   4.235   6.088 -0.2601  0.1076  0.2023
  729POPI   GL210876  18.303   4.421   6.047  0.0082  0.1040  0.0641
  729POPI   C1A10877  18.259   4.115   6.431  0.1421  0.0486  0.2309
  729POPI   D2A10878  18.664   4.271   6.543 -0.2684  0.1560  0.4809
  729POPI   C3A10879  18.777   4.383   6.975 -0.2955 -0.3278 -0.1467
  729POPI   C4A10880  18.883   4.203   7.446 -0.2574 -0.2173  0.0354
  729POPI   C1B10881  18.348   4.613   6.387 -0.2883  0.2370 -0.0530
  729POPI   C2B10882  18.608   4.813   6.635  0.1502 -0.1145  0.0373
  729POPI   C3B10883  18.526   4.889   7.102  0.2204  0.2877  0.3287
  729POPI   C4B10884  18.774   5.109   7.388  0.1673 -0.0279  0.3856
  730POPI    C110885  18.376   0.492   5.411  0.0704 -0.0019 -0.0095
  730POPI    C210886  18.720   0.445   5.610 -0.0026  0.0359  0.1263
  730POPI    C310887  18.549   0.132   5.428  0.1647  0.0414 -0.0427
  730POPI   PO410888  18.223   0.607   5.556  0.0121  0.0725 -0.1612
  730POPI   GL110889  18.233   0.460   5.944 -0.0596 -0.0370  0.0553
  730POPI   GL210890  18.238   0.794   6.035  0.2372  0.1496  0.0963
  730POPI   C1A10891  18.227   0.164   6.259  0.1583  0.2431 -0.0320
  730POPI   D2A10892  18.115   0.212   6.655  0.0531  0.4575 -0.2705
  730POPI   C3A10893  18.423   0.218   6.987  0.2396  0.2074  0.1148
  730POPI   C4A10894  18.736   0.237   7.244  0.2631  0.0662 -0.2905
  730POPI   C1B10895  18.186   0.833   6.339  0.1647  0.2239  0.0828
  730POPI   C2B10896  18.194   0.702   6.706  0.3771  0.6413 -0.1243
  730POPI   C3B10897  17.990   0.473   7.085  0.1379 -0.1271  0.1494
  730POPI   C4B10898  17.630   0.509   7.205 -0.3003  0.1225 -0.1542
  731POPI    C110899   5.611  10.231   5.806  0.1348  0.0983 -0.2143
  731POPI    C210900   5.697  10.132   5.428  0.2400 -0.1034 -0.1392
  731POPI    C310901   5.863   9.929   5.731  0.2954  0.1711  0.0181
  731POPI   PO410902   5.567  10.552   5.800 -0.1443 -0.0539  0.1580
  731POPI   GL110903   5.361  10.808   6.068 -0.2878  0.3008  0.1762
  731POPI   GL210904   5.372  11.079   5.948 -0.0506  0.0555  0.1904
  731POPI   C1A10905   5.272  10.848   6.458 -0.0092 -0.2136 -0.1488
  731POPI   D2A10906   5.256  10.941   6.903 -0.0707  0.2008 -0.1033
  731POPI   C3A10907   4.992  10.815   7.284  0.0443  0.1265 -0.0077
  731POPI   C4A10908   4.794  10.474   7.570 -0.4179 -0.2407  0.1295
  731POPI   C1B10909   5.380  11.310   6.356 -0.2832 -0.0368 -0.0844
  731POPI   C2B10910   5.360  11.404   6.718  0.1168  0.2486 -0.0108
  731POPI   C3B10911   5.605  11.252   7.082 -0.0723 -0.0581 -0.0555
  731POPI   C4B10912   5.957  11.139   7.210  0.2723 -0.0574 -0.2769
  732POPI    C110913   5.110   2.887   5.224 -0.0732 -0.1591 -0.0035
  732POPI    C210914   5.447   2.753   5.056  0.0205  0.0146  0.0434
  732POPI    C310915   5.272   3.084   4.916 -0.0990 -0.0426  0.0566
  732POPI   PO410916   5.131   2.775   5.541 -0.0812 -0.0888  0.3127
  732POPI   GL110917   4.892   2.733   5.937 -0.1221  0.3738 -0.0133
  732POPI   GL210918   4.724   2.528   5.789 -0.2251 -0.2103 -0.5175
  732POPI   C1A10919   4.867   2.660   6.374  0.3395  0.0314  0.3350
  732POPI   D2A10920   4.824   2.733   6.853  0.0364  0.0500 -0.1297
  732POPI   C3A10921   5.072   2.973   7.166 -0.3734  0.3524  0.0204
  732POPI   C4A10922   5.295   3.297   7.034 -0.4853 -0.4222  0.1640
  732POPI   C1B10923   4.446   2.659   6.160  0.2173 -0.0353  0.2625
  732POPI   C2B10924   4.507   2.443   6.576 -0.3432  0.2190 -0.0878
  732POPI   C3B10925   4.583   2.277   6.968 -0.0210 -0.2614  0.0027
  732POPI   C4B10926   4.782   1.950   7.067  0.1253 -0.3616  0.0654
  733POPI    C110927  15.960  15.249   5.798 -0.1126 -0.1483 -0.1681
  733POPI    C210928  16.028  15.387   5.429 -0.5478  0.0337 -0.1864
  733POPI    C310929  15.870  15.023   5.481 -0.1795 -0.1276 -0.1641
  733POPI   PO410930  15.782  15.410   5.977 -0.1204 -0.1235 -0.5007
  733POPI   GL110931  15.840  15.533   6.433  0.2027  0.2584  0.1132
  733POPI   GL210932  15.564  15.550   6.416  0.1740 -0.1948 -0.1814
  733POPI   C1A10933  16.120  15.604   6.812  0.1844 -0.0522  0.2795
  733POPI   D2A10934  16.303  15.474   7.182  0.2734 -0.0311  0.0106
  733POPI   C3A10935  16.225  15.607   7.576 -0.1996  0.0452 -0.0682
  733POPI   C4A10936  16.220  15.304   7.889  0.1436  0.0699  0.2884
  733POPI   C1B10937  15.546  15.406   6.839  0.0742 -0.0911 -0.1406
  733POPI   C2B10938  15.782  15.459   7.214 -0.1034 -0.0844 -0.1985
  733POPI   C3B10939  15.817  15.229   7.558 -0.0763 -0.0623 -0.1316
  733POPI   C4B10940  15.491  14.933   7.711  0.2393  0.0596  0.0441
  734POPI    C110941  17.913   3.212   5.540  0.0314  0.1490  0.0483
  734POPI    C210942  17.715   2.893   5.679  0.1352 -0.0335 -0.2142
  734POPI    C310943  17.734   2.961   5.286  0.3185  0.1636 -0.1735
  734POPI   PO410944  18.162   3.113   5.682 -0.0651  0.2008  0.5434
  734POPI   GL110945  18.409   3.255   5.993  0.2547 -0.1997  0.0045
  734POPI   GL210946  18.645   3.429   6.109 -0.0545  0.1573 -0.3528
  734POPI   C1A10947  18.641   2.913   6.182 -0.1007  0.1761 -0.2788
  734POPI   D2A10948  18.922   2.706   6.448 -0.1814  0.1374 -0.0958
  734POPI   C3A10949  19.022   2.977   6.739  0.2332 -0.3306  0.1689
  734POPI   C4A10950  18.969   3.374   6.998  0.2198 -0.0087  0.2343
  734POPI   C1B10951  18.608   3.244   6.535 -0.2563 -0.1918 -0.0182
  734POPI   C2B10952  18.456   3.300   6.776 -0.0231  0.0512 -0.1977
  734POPI   C3B10953  18.329   3.566   7.061 -0.2882 -0.0261  0.0222
  734POPI   C4B10954  18.603   3.837   7.411  0.1744 -0.1173 -0.2871
  735POPI    C110955   8.427  12.066   5.243 -0.1241  0.1496  0.1028
  735POPI    C210956   8.415  12.345   4.956 -0.1623  0.0765  0.0330
  735POPI    C310957   8.288  11.973   4.880  0.3739 -0.1014 -0.0312
  735POPI   PO410958   8.394  12.202   5.505  0.0135 -0.1751  0.2352
  735POPI   GL110959   8.278  11.908   5.730  0.0554 -0.0761  0.0939
  735POPI   GL210960   8.043  11.552   5.747  0.0146  0.1869  0.1898
  735POPI   C1A10961   8.335  11.948   6.139  0.1806  0.1192  0.0785
  735POPI   D2A10962   8.277  11.967   6.487  0.3608  0.1492  0.0787
  735POPI   C3A10963   8.351  11.736   6.890 -0.3196  0.1099 -0.1113
  735POPI   C4A10964   8.568  11.535   7.234 -0.1781  0.2392  0.2475
  735POPI   C1B10965   7.934  11.481   6.221  0.3024  0.1025  0.1782
  735POPI   C2B10966   7.915  11.529   6.666  0.0556 -0.3923  0.0002
  735POPI   C3B10967   8.027  11.377   7.157  0.1832  0.1066 -0.1063
  735POPI   C4B10968   8.154  11.346   7.527 -0.2962  0.3852  0.2745
  736POPI    C110969   9.004   5.915   5.505 -0.0890  0.2499  0.1087
  736POPI    C210970   9.338   6.061   5.671 -0.0101  0.0063  0.1683
  736POPI    C310971   9.342   5.700   5.497 -0.2234  0.0362  0.0987
  736POPI   PO410972   8.847   5.901   5.729 -0.0508  0.2477  0.2492
  736POPI   GL110973   8.824   5.911   6.151  0.0951 -0.2527 -0.0836
  736POPI   GL210974   9.128   6.035   6.124 -0.0897 -0.1498  0.3631
  736POPI   C1A10975   8.640   5.833   6.572 -0.0407  0.2116 -0.0449
  736POPI   D2A10976   8.335   5.737   6.802  0.2693 -0.2548 -0.1173
  736POPI   C3A10977   8.200   6.111   6.954  0.3455  0.2610  0.0891
  736POPI   C4A10978   8.188   6.222   7.288  0.1521 -0.0811  0.0848
  736POPI   C1B10979   9.101   6.095   6.472  0.1946 -0.0587  0.0316
  736POPI   C2B10980   9.233   6.144   6.961 -0.0944  0.0271  0.1205
  736POPI   C3B10981   9.101   5.877   7.402 -0.3227  0.2132  0.3328
  736POPI   C4B10982   8.871   5.587   7.567 -0.0714 -0.1946 -0.4730
  737POPI    C110983  15.415  15.311   5.666 -0.2368 -0.0503 -0.1096
  737POPI    C210984  15.305  15.602   5.917 -0.2727 -0.1499 -0.0089
  737POPI    C310985  15.261  15.651   5.522 -0.0088  0.0969 -0.0107
  737POPI   PO410986  15.415  15.050   5.853  0.1597  0.0448 -0.2452
  737POPI   GL110987  15.649  14.976   6.131  0.5645  0.3342 -0.0742
  737POPI   GL210988  15.661  14.605   6.199  0.1276 -0.1528  0.1105
  737POPI   C1A10989  15.616  15.058   6.462 -0.0506 -0.0102 -0.0235
  737POPI   D2A10990  15.420  14.924   6.874  0.0734 -0.0467 -0.0995
  737POPI   C3A10991  15.439  15.088   7.222  0.0543 -0.0285  0.3841
  737POPI   C4A10992  15.359  15.444   7.595  0.0697  0.2024  0.0290
  737POPI   C1B10993  16.031  14.533   6.465  0.0428  0.1044 -0.1595
  737POPI   C2B10994  16.332  14.547   6.811  0.0357  0.1354  0.2901
  737POPI   C3B10995  16.200  14.473   7.187 -0.2921 -0.0966  0.1694
  737POPI   C4B10996  16.154  14.606   7.640  0.3372  0.0992 -0.2757
  738POPI    C110997  11.313  12.529   5.357  0.1726  0.2754  0.0393
  738POPI    C210998  11.068  12.546   5.042  0.0524  0.1106  0.1218
  738POPI    C310999  11.461  12.498   4.987  0.0446  0.1846 -0.0051
  738POPI   PO411000  11.191  12.836   5.529 -0.1559  0.1762  0.2222
  738POPI   GL111001  10.797  12.866   5.817 -0.1527 -0.0512 -0.0927
  738POPI   GL211002  11.035  13.015   5.948  0.3076 -0.0998  0.1767
  738POPI   C1A11003  10.870  12.570   6.095  0.0326  0.2240  0.1850
  738POPI   D2A11004  11.077  12.764   6.451 -0.2159 -0.0978 -0.1459
  738POPI   C3A11005  11.507  12.627   6.653 -0.1749  0.2229 -0.2336
  738POPI   C4A11006  11.915  12.741   6.663  0.3254 -0.0737 -0.1207
  738POPI   C1B11007  11.263  13.247   6.232  0.2827 -0.2433  0.1194
  738POPI   C2B11008  11.190  13.176   6.693  0.0669 -0.2101 -0.0039
  738POPI   C3B11009  11.115  12.910   6.992 -0.0321 -0.4842 -0.1055
  738POPI   C4B11010  10.723  12.684   7.267  0.1263 -0.1067  0.0056
  739POPI    C111011   5.803   1.866   5.332 -0.0024  0.2270  0.0783
  739POPI    C211012   5.548   1.828   5.027 -0.0710  0.0615  0.1555
  739POPI    C311013   5.942   1.815   4.961 -0.0864 -0.0791  0.0866
  739POPI   PO411014   5.826   1.616   5.560 -0.1768 -0.3168  0.0885
  739POPI   GL111015   5.771   1.352   5.931 -0.0435 -0.0643 -0.1816
  739POPI   GL211016   5.816   1.657   6.057 -0.0792 -0.0924  0.3715
  739POPI   C1A11017   5.760   1.186   6.284  0.0237  0.2961  0.0591
  739POPI   D2A11018   5.945   1.125   6.728  0.2882  0.0529 -0.1991
  739POPI   C3A11019   6.242   1.034   7.004  0.0415 -0.1314  0.0328
  739POPI   C4A11020   6.590   1.120   7.172 -0.3107 -0.0113 -0.1710
  739POPI   C1B11021   5.601   1.652   6.449 -0.2143 -0.0710 -0.2162
  739POPI   C2B11022   5.684   1.560   6.795 -0.0567 -0.1013  0.0045
  739POPI   C3B11023   5.611   1.585   7.280 -0.0605  0.0523  0.1226
  739POPI   C4B11024   5.910   1.452   7.405 -0.1483  0.3188  0.1660
  740POPI    C111025  14.228   2.035   5.622  0.0156 -0.0585 -0.0337
  740POPI    C211026  14.030   1.926   5.292 -0.1945  0.1988  0.0041
  740POPI    C311027  14.355   2.158   5.264 -0.1800  0.1749 -0.0254
  740POPI   PO411028  14.291   1.821   5.777 -0.2734  0.0534  0.0901
  740POPI   GL111029  14.205   1.665   6.232 -0.1633 -0.0680 -0.1065
  740POPI   GL211030  14.041   1.479   6.224 -0.0762  0.3728  0.0972
  740POPI   C1A11031  14.552   1.475   6.509 -0.1766 -0.2042 -0.0503
  740POPI   D2A11032  14.838   1.705   6.818 -0.0258 -0.0389  0.2657
  740POPI   C3A11033  14.619   1.752   7.169 -0.1355  0.0885  0.2677
  740POPI   C4A11034  14.265   1.907   7.332  0.0469  0.1598  0.1286
  740POPI   C1B11035  13.931   1.480   6.647 -0.0705  0.0043  0.1334
  740POPI   C2B11036  13.815   1.141   6.919  0.4284 -0.0700  0.2363
  740POPI   C3B11037  13.788   0.752   6.824  0.1936 -0.1081  0.0247
  740POPI   C4B11038  13.497   0.461   6.948  0.1069 -0.0588  0.1238
  741POPS   CNO11039   1.372   8.491   5.722  0.0851  0.0903  0.1664
  741POPS   PO411040   1.703   8.503   5.824 -0.0045  0.0195  0.1032
  741POPS   GL111041   1.559   8.391   6.255  0.1934  0.1239  0.2601
  741POPS   GL211042   1.747   8.159   6.352 -0.0759  0.1233 -0.1555
  741POPS   C1A11043   1.310   8.609   6.581  0.2524  0.1373 -0.2648
  741POPS   D2A11044   1.179   8.720   6.958  0.0283  0.0592 -0.0076
  741POPS   C3A11045   1.450   8.711   7.367  0.0280  0.1661 -0.1406
  741POPS   C4A11046   1.656   8.562   7.774  0.0085 -0.1364  0.0352
  741POPS   C1B11047   1.536   8.159   6.660  0.0193  0.0436 -0.2570
  741POPS   C2B11048   1.429   8.327   7.043 -0.0224  0.0246 -0.0030
  741POPS   C3B11049   1.223   8.283   7.449 -0.1514 -0.1209 -0.2109
  741POPS   C4B11050   1.301   8.146   7.847 -0.2027  0.0850  0.0063
  742POPS   CNO11051  12.008   2.677   6.044  0.3606  0.2681 -0.0862
  742POPS   PO411052  11.590   2.977   5.957 -0.1534 -0.0170  0.0717
  742POPS   GL111053  11.401   2.968   6.331  0.0748 -0.3337 -0.1095
  742POPS   GL211054  11.198   2.682   6.272  0.0855 -0.0155 -0.0835
  742POPS   C1A11055  11.509   2.937   6.839  0.3621 -0.0889  0.0932
  742POPS   D2A11056  11.453   3.041   7.330 -0.0250  0.0816 -0.0458
  742POPS   C3A11057  11.392   2.658   7.566  0.1774  0.1642  0.4152
  742POPS   C4A11058  11.626   2.507   7.902  0.2549  0.2903 -0.2199
  742POPS   C1B11059  11.013   2.521   6.683  0.2647  0.2360  0.1715
  742POPS   C2B11060  11.023   2.778   7.031  0.0770  0.0066 -0.1500
  742POPS   C3B11061  10.945   2.976   7.440  0.3878 -0.0362  0.2893
  742POPS   C4B11062  10.955   3.035   7.856  0.0511  0.1468 -0.0944
  743POPS   CNO11063  14.340  11.511   4.873 -0.1682 -0.0460  0.0313
  743POPS   PO411064  14.130  11.347   5.262  0.1590  0.0013 -0.1001
  743POPS   GL111065  14.107  11.219   5.585 -0.3112 -0.2181 -0.2076
  743POPS   GL211066  14.334  11.181   5.838  0.2801 -0.0310 -0.0868
  743POPS   C1A11067  13.821  11.146   5.950  0.1192 -0.1364  0.1126
  743POPS   D2A11068  13.988  10.822   6.230  0.0460  0.1539  0.1346
  743POPS   C3A11069  13.987  10.997   6.651  0.0204 -0.0221  0.2128
  743POPS   C4A11070  13.796  11.030   6.989 -0.1120  0.0727 -0.1074
  743POPS   C1B11071  14.412  11.071   6.285  0.0775  0.4545  0.3065
  743POPS   C2B11072  14.336  11.380   6.669  0.0459 -0.2798  0.1136
  743POPS   C3B11073  13.911  11.501   6.847  0.1716 -0.0922  0.1230
  743POPS   C4B11074  13.496  11.381   6.827 -0.0297 -0.1478 -0.1210
  744POPS   CNO11075   8.241   3.966   5.389 -0.0930 -0.0151  0.0920
  744POPS   PO411076   8.201   4.292   5.640 -0.0183  0.0705  0.2545
  744POPS   GL111077   8.467   4.153   5.927 -0.2815 -0.2529  0.0003
  744POPS   GL211078   8.720   4.381   6.080 -0.3212  0.1597  0.1092
  744POPS   C1A11079   8.495   3.776   6.264 -0.0202 -0.0094 -0.3360
  744POPS   D2A11080   8.490   3.735   6.670 -0.1430 -0.0572 -0.1076
  744POPS   C3A11081   8.509   3.298   6.800 -0.0146 -0.1676 -0.2467
  744POPS   C4A11082   8.737   3.118   7.112  0.0270  0.1522  0.0238
  744POPS   C1B11083   8.726   4.143   6.475  0.0073 -0.2799  0.1069
  744POPS   C2B11084   8.630   4.187   6.919  0.0933 -0.0830 -0.0677
  744POPS   C3B11085   8.614   4.170   7.342  0.0412  0.1050  0.0512
  744POPS   C4B11086   8.478   4.206   7.825 -0.1350 -0.2352  0.1201
  745POPS   CNO11087   1.725  11.671   5.441 -0.0608 -0.0289  0.0147
  745POPS   PO411088   2.021  11.493   5.651 -0.1357  0.1327 -0.2573
  745POPS   GL111089   2.075  11.602   6.078 -0.0170 -0.0778  0.1246
  745POPS   GL211090   1.869  11.862   6.225 -0.0555 -0.1560 -0.2782
  745POPS   C1A11091   2.329  11.739   6.465  0.2200 -0.1307  0.1751
  745POPS   D2A11092   2.418  11.583   6.863  0.1756 -0.0209 -0.1386
  745POPS   C3A11093   2.551  11.942   7.156 -0.0828 -0.1159 -0.0348
  745POPS   C4A11094   2.362  11.834   7.527  0.1494 -0.1680  0.3355
  745POPS   C1B11095   1.718  12.203   6.515 -0.0856  0.0441 -0.0206
  745POPS   C2B11096   1.712  12.347   6.923  0.3696  0.1132  0.0683
  745POPS   C3B11097   1.603  12.757   7.068 -0.0250 -0.1588  0.1126
  745POPS   C4B11098   1.420  13.147   7.083 -0.4067  0.0939 -0.0008
  746POPS   CNO11099  11.937  18.478   5.349 -0.3586 -0.2453  0.2161
  746POPS   PO411100  11.637  18.663   5.588 -0.0397  0.1013 -0.0161
  746POPS   GL111101  11.538  18.653   6.036 -0.1114  0.0026  0.2276
  746POPS   GL211102  11.717  18.817   6.303 -0.3847 -0.1993  0.3524
  746POPS   C1A11103  11.254  18.436   6.334  0.1604  0.3411 -0.2414
  746POPS   D2A11104  11.061  18.153   6.266 -0.2370  0.2408 -0.1569
  746POPS   C3A11105  11.092  17.765   6.507 -0.0960 -0.2099 -0.0985
  746POPS   C4A11106  11.284  17.365   6.613 -0.1333  0.1896  0.1295
  746POPS   C1B11107  11.800  19.145   6.575 -0.1129 -0.1652 -0.1169
  746POPS   C2B11108  11.826  19.233   7.002  0.0289  0.0557  0.0843
  746POPS   C3B11109  12.025  19.153   7.300  0.1245  0.0678  0.1203
  746POPS   C4B11110  12.433  18.945   7.294  0.1448  0.1829  0.1663
  747POPS   CNO11111   6.902  18.667   5.599  0.0076 -0.1897  0.0529
  747POPS   PO411112   6.436  18.766   5.620  0.0283  0.0206  0.0951
  747POPS   GL111113   6.528  18.603   6.038  0.0326 -0.0312 -0.0453
  747POPS   GL211114   6.313  18.406   6.111 -0.1708  0.1775  0.1263
  747POPS   C1A11115   6.741  18.576   6.355  0.0759  0.0298  0.0474
  747POPS   D2A11116   6.754  18.951   6.686 -0.2843  0.0061 -0.0012
  747POPS   C3A11117   7.066  19.195   6.592  0.3450 -0.3095  0.1623
  747POPS   C4A11118   7.257  19.226   6.159  0.2165  0.2133 -0.0576
  747POPS   C1B11119   6.332  18.314   6.451 -0.2541 -0.1654 -0.0830
  747POPS   C2B11120   6.537  18.314   6.811  0.0428  0.0553  0.0431
  747POPS   C3B11121   6.729  18.588   7.062  0.2479  0.0487 -0.0764
  747POPS   C4B11122   6.646  18.928   7.361 -0.0827 -0.2137  0.3579
  748POPS   CNO11123   2.483   3.205   5.759 -0.1917  0.2172  0.3676
  748POPS   PO411124   2.820   3.415   5.809 -0.0457  0.0676  0.2779
  748POPS   GL111125   2.896   3.092   6.099 -0.2240  0.2084 -0.2765
  748POPS   GL211126   2.847   3.178   6.478  0.0353 -0.0527  0.0635
  748POPS   C1A11127   3.314   3.017   6.421 -0.0272 -0.3613 -0.0187
  748POPS   D2A11128   3.483   3.122   6.752 -0.1676  0.0056  0.2068
  748POPS   C3A11129   3.397   3.071   7.129  0.0142  0.0119  0.0056
  748POPS   C4A11130   3.438   3.070   7.625 -0.1697 -0.0920 -0.1688
  748POPS   C1B11131   2.775   3.302   6.890  0.3205  0.0828 -0.1250
  748POPS   C2B11132   2.805   3.216   7.257 -0.0182  0.3096 -0.0936
  748POPS   C3B11133   2.940   3.219   7.680 -0.0621  0.1214 -0.2541
  748POPS   C4B11134   3.171   3.184   8.047  0.0713  0.3332  0.3273
  749POPS   CNO11135  10.596   3.247   5.162  0.2217  0.0944 -0.0709
  749POPS   PO411136  10.769   2.948   5.439 -0.1515 -0.2488  0.2404
  749POPS   GL111137  10.759   3.202   5.718 -0.1333 -0.2355  0.0299
  749POPS   GL211138  11.063   3.267   5.965  0.1214  0.1669  0.0516
  749POPS   C1A11139  10.539   3.237   6.210  0.1727  0.3607 -0.2438
  749POPS   D2A11140  10.453   3.462   6.544  0.2074  0.0961  0.0987
  749POPS   C3A11141  10.237   3.318   6.757  0.0298  0.1673  0.0176
  749POPS   C4A11142  10.044   3.365   7.166 -0.0878 -0.1369  0.0973
  749POPS   C1B11143  11.002   3.187   6.388 -0.2377 -0.1272  0.0329
  749POPS   C2B11144  10.831   3.263   6.783  0.2164  0.1381 -0.0023
  749POPS   C3B11145  10.576   3.287   7.158  0.1518  0.1788 -0.0691
  749POPS   C4B11146  10.465   3.088   7.574 -0.2817 -0.2190  0.0756
  750POPS   CNO11147  16.384   0.738   5.551  0.5885  0.0622  0.1878
  750POPS   PO411148  16.019   0.570   5.620 -0.1187  0.1173 -0.0279
  750POPS   GL111149  16.203   0.463   6.026  0.0317  0.1177  0.0065
  750POPS   GL211150  15.899   0.414   6.083  0.0462 -0.0884  0.1410
  750POPS   C1A11151  16.366   0.501   6.426  0.2858 -0.2546 -0.1858
  750POPS   D2A11152  16.230   0.425   6.858 -0.0786  0.2462 -0.1586
  750POPS   C3A11153  16.513   0.686   7.062  0.3002  0.0737 -0.1667
  750POPS   C4A11154  16.914   0.934   7.066  0.0423 -0.0134 -0.2064
  750POPS   C1B11155  15.835   0.465   6.525  0.1360 -0.0341  0.1426
  750POPS   C2B11156  15.708   0.495   7.030  0.2342  0.1886 -0.0688
  750POPS   C3B11157  15.669   0.663   7.397 -0.1480  0.0957 -0.1536
  750POPS   C4B11158  15.662   0.592   7.860  0.2289 -0.0603  0.0842
  751POPS   CNO11159   5.047   0.968   5.308 -0.1157  0.1080 -0.3874
  751POPS   PO411160   4.639   0.824   5.491 -0.1380 -0.0008 -0.0111
  751POPS   GL111161   4.362   0.761   5.702 -0.1749 -0.0889 -0.0502
  751POPS   GL211162   4.452   0.846   6.052 -0.0212  0.0203  0.0613
  751POPS   C1A11163   3.952   0.511   5.852  0.1504  0.0083 -0.0244
  751POPS   D2A11164   3.702   0.608   6.092  0.1326 -0.4565  0.0382
  751POPS   C3A11165   3.641   0.626   6.542  0.1098 -0.0641 -0.1895
  751POPS   C4A11166   3.604   0.696   7.068 -0.1078  0.1755  0.1780
  751POPS   C1B11167   4.108   0.670   6.362  0.3045 -0.1689  0.2863
  751POPS   C2B11168   4.041   0.777   6.846 -0.2588 -0.1475 -0.0300
  751POPS   C3B11169   4.074   0.561   7.223  0.2616 -0.2028 -0.0989
  751POPS   C4B11170   3.828   0.493   7.594  0.2438  0.2188  0.2286
  752POPS   CNO11171  10.361  16.583   5.710  0.0511  0.1442  0.0974
  752POPS   PO411172  10.781  16.407   5.690 -0.0583 -0.2463  0.1476
  752POPS   GL111173  11.020  16.273   5.960 -0.4040  0.0120  0.3290
  752POPS   GL211174  10.946  15.958   5.987  0.4501 -0.4066  0.0026
  752POPS   C1A11175  10.988  16.226   6.355 -0.0396  0.0895  0.3717
  752POPS   D2A11176  10.940  16.296   6.801  0.2267  0.2970  0.0493
  752POPS   C3A11177  10.741  16.617   7.009 -0.2674 -0.1334 -0.0825
  752POPS   C4A11178  10.494  16.961   7.204 -0.2706  0.2603 -0.3081
  752POPS   C1B11179  10.878  15.701   6.342 -0.2674 -0.1168 -0.1219
  752POPS   C2B11180  10.685  15.722   6.790 -0.5820  0.2117 -0.1203
  752POPS   C3B11181  10.337  15.808   7.127  0.3440 -0.2771 -0.0651
  752POPS   C4B11182  10.163  15.982   7.524  0.0482  0.0335 -0.0818
  753POPS   CNO11183  14.408  14.451   5.740 -0.3028  0.1915  0.2646
  753POPS   PO411184  14.121  14.851   5.763  0.4481 -0.1386  0.0452
  753POPS   GL111185  14.058  14.719   6.120  0.1578 -0.2364  0.2286
  753POPS   GL211186  13.748  14.756   6.112 -0.1175  0.0165  0.1124
  753POPS   C1A11187  14.044  14.592   6.475  0.3553 -0.2089  0.2031
  753POPS   D2A11188  13.847  14.376   6.737  0.3886  0.4451  0.0200
  753POPS   C3A11189  14.081  14.058   6.964  0.0571  0.0191  0.3117
  753POPS   C4A11190  14.316  13.629   6.923  0.3662 -0.0867  0.1258
  753POPS   C1B11191  13.492  14.531   6.357 -0.1238 -0.1052  0.0953
  753POPS   C2B11192  13.375  14.529   6.756 -0.2849 -0.2762  0.1724
  753POPS   C3B11193  13.304  14.421   7.193 -0.1070 -0.1869 -0.0093
  753POPS   C4B11194  13.057  14.410   7.430 -0.2368 -0.1422 -0.0420
  754POPS   CNO11195   8.694   5.005   5.247 -0.0757  0.2713  0.0030
  754POPS   PO411196   8.371   5.001   5.385 -0.0297  0.0078 -0.1167
  754POPS   GL111197   8.415   5.017   5.899  0.2176  0.1322 -0.3255
  754POPS   GL211198   8.184   5.095   6.109  0.0209  0.0874  0.0719
  754POPS   C1A11199   8.598   4.821   6.265 -0.2309 -0.0220  0.0879
  754POPS   D2A11200   8.656   4.621   6.641  0.0012 -0.2016 -0.0225
  754POPS   C3A11201   8.880   4.749   6.991  0.0320  0.3091  0.0648
  754POPS   C4A11202   8.856   4.928   7.353  0.1489 -0.0344 -0.1067
  754POPS   C1B11203   8.189   4.912   6.495 -0.2479  0.1098  0.0751
  754POPS   C2B11204   8.321   4.813   6.964 -0.0461  0.3060  0.4785
  754POPS   C3B11205   8.429   4.621   7.410 -0.1597  0.0480 -0.1413
  754POPS   C4B11206   8.177   4.715   7.791 -0.1954 -0.0427 -0.1747
  755POPS   CNO11207  13.212  13.281   5.148  0.1977  0.0992 -0.2513
  755POPS   PO411208  13.583  13.239   5.414  0.2422 -0.0474 -0.0235
  755POPS   GL111209  13.524  13.472   5.796 -0.2485  0.1469  0.2369
  755POPS   GL211210  13.331  13.717   5.854 -0.0207 -0.2678 -0.1582
  755POPS   C1A11211  13.536  13.418   6.268  0.3291  0.0555  0.0583
  755POPS   D2A11212  13.475  13.322   6.788 -0.0304  0.2260  0.3289
  755POPS   C3A11213  13.154  13.419   7.071  0.2412 -0.0491  0.1553
  755POPS   C4A11214  13.203  13.897   7.267 -0.5447 -0.3360 -0.3168
  755POPS   C1B11215  13.171  13.875   6.152  0.1727 -0.2087 -0.0005
  755POPS   C2B11216  13.040  13.783   6.548 -0.0419  0.0545  0.2768
  755POPS   C3B11217  12.795  13.801   6.975 -0.0257  0.2518 -0.1263
  755POPS   C4B11218  12.694  13.773   7.381 -0.1793  0.1423  0.0843
  756POPS   CNO11219   4.815   3.527   5.652  0.0731  0.1860  0.1328
  756POPS   PO411220   5.121   3.253   5.662 -0.3504  0.0624 -0.0122
  756POPS   GL111221   5.137   3.263   6.144 -0.0504  0.1656 -0.2226
  756POPS   GL211222   5.406   3.431   6.223  0.3422  0.3250 -0.4315
  756POPS   C1A11223   5.005   3.159   6.594  0.0685 -0.2928 -0.0458
  756POPS   D2A11224   4.747   3.212   6.953 -0.0511 -0.1022  0.1035
  756POPS   C3A11225   4.711   3.168   7.406  0.3640 -0.1169 -0.2368
  756POPS   C4A11226   4.472   2.870   7.657 -0.0344 -0.0321 -0.2113
  756POPS   C1B11227   5.455   3.279   6.557  0.2230 -0.2962 -0.2741
  756POPS   C2B11228   5.795   2.995   6.780  0.1257  0.1803 -0.1758
  756POPS   C3B11229   5.887   3.008   7.140 -0.0091  0.0980  0.1678
  756POPS   C4B11230   6.264   2.957   7.421  0.1676 -0.0620 -0.0322
  757POPS   CNO11231   8.667  18.544   4.828 -0.2491  0.1556 -0.0596
  757POPS   PO411232   8.679  18.141   5.039  0.1098  0.0269 -0.1296
  757POPS   GL111233   8.615  18.156   5.542 -0.0852  0.0884  0.0238
  757POPS   GL211234   8.304  18.187   5.666  0.1034  0.1019 -0.2721
  757POPS   C1A11235   8.864  18.294   5.832 -0.1663  0.1428  0.2858
  757POPS   D2A11236   8.793  18.588   6.275  0.1466 -0.1682 -0.0671
  757POPS   C3A11237   9.031  18.668   6.559  0.1894 -0.0714  0.3071
  757POPS   C4A11238   9.135  18.435   6.901  0.0710  0.1090  0.2434
  757POPS   C1B11239   8.525  18.091   6.059  0.0336  0.3621 -0.1702
  757POPS   C2B11240   8.578  18.075   6.401 -0.0976  0.0320 -0.1557
  757POPS   C3B11241   8.691  18.250   6.763  0.2374 -0.1024  0.0417
  757POPS   C4B11242   8.963  17.978   6.888 -0.1592  0.1597  0.0602
  758POPS   CNO11243  11.960   1.288   5.545  0.1655  0.0123 -0.1444
  758POPS   PO411244  11.642   1.519   5.696 -0.0713  0.0155  0.0121
  758POPS   GL111245  11.669   1.384   6.103 -0.0404  0.3321 -0.2154
  758POPS   GL211246  11.475   1.566   6.215  0.0538  0.0773  0.1717
  758POPS   C1A11247  11.937   1.457   6.426  0.0472  0.0390 -0.2478
  758POPS   D2A11248  11.882   1.633   6.822 -0.1847  0.2506  0.0212
  758POPS   C3A11249  12.133   1.691   7.063  0.0389  0.1408 -0.2579
  758POPS   C4A11250  12.556   1.507   7.208  0.2814  0.1675 -0.2409
  758POPS   C1B11251  11.425   1.562   6.690 -0.1502  0.1166  0.0977
  758POPS   C2B11252  11.283   1.478   7.061  0.0479 -0.0872  0.1880
  758POPS   C3B11253  11.459   1.450   7.458  0.2900  0.0852 -0.1760
  758POPS   C4B11254  11.349   1.794   7.720  0.1200  0.0988  0.0983
  759POPS   CNO11255   4.077   2.169   5.147 -0.2162  0.0684 -0.2824
  759POPS   PO411256   4.353   2.381   5.443  0.0031  0.0070 -0.0239
  759POPS   GL111257   4.374   2.163   5.843 -0.2106 -0.3099  0.2510
  759POPS   GL211258   4.102   2.344   5.931 -0.1619  0.2390  0.1549
  759POPS   C1A11259   4.303   1.791   6.034 -0.1621 -0.0689  0.1271
  759POPS   D2A11260   4.266   1.400   6.119 -0.0469 -0.0857  0.1238
  759POPS   C3A11261   4.411   1.178   6.510  0.0324 -0.0786  0.0204
  759POPS   C4A11262   4.842   1.191   6.644 -0.1499  0.0923 -0.0921
  759POPS   C1B11263   4.190   2.222   6.304  0.0891 -0.2359  0.1174
  759POPS   C2B11264   4.180   2.053   6.668  0.2909  0.0373  0.0110
  759POPS   C3B11265   4.151   1.864   7.067  0.3194  0.2532 -0.0868
  759POPS   C4B11266   4.389   1.930   7.400 -0.0392 -0.0523  0.0449
  760POPS   CNO11267   3.289  11.879   5.565  0.3157 -0.3439  0.0803
  760POPS   PO411268   2.886  12.046   5.496 -0.2346 -0.2493  0.3457
  760POPS   GL111269   2.721  12.010   5.855 -0.2069 -0.1716  0.0181
  760POPS   GL211270   2.655  11.716   6.002  0.1777  0.0172  0.1557
  760POPS   C1A11271   2.772  12.113   6.191  0.4175 -0.2055 -0.1542
  760POPS   D2A11272   2.626  12.106   6.626  0.2434  0.0496  0.1679
  760POPS   C3A11273   2.207  12.121   6.742  0.1742  0.0374 -0.0041
  760POPS   C4A11274   1.989  11.899   6.998 -0.0156 -0.0657  0.0468
  760POPS   C1B11275   2.823  11.497   6.426 -0.0651  0.0529  0.1507
  760POPS   C2B11276   2.898  11.548   6.827 -0.0496  0.1616 -0.1478
  760POPS   C3B11277   2.671  11.364   7.274  0.1135  0.0087 -0.1488
  760POPS   C4B11278   2.525  11.394   7.720  0.1983  0.2725  0.1720
  761POPS   CNO11279  17.237  16.889   5.195  0.0927 -0.3734 -0.2362
  761POPS   PO411280  17.440  16.627   5.572  0.2993  0.2264  0.3793
  761POPS   GL111281  17.409  16.766   5.979  0.0663  0.0436 -0.0225
  761POPS   GL211282  17.425  17.082   6.169  0.0107  0.3298  0.1418
  761POPS   C1A11283  17.718  16.618   6.302 -0.1847 -0.2515  0.1200
  761POPS   D2A11284  17.795  16.533   6.836 -0.3167  0.2147  0.1328
  761POPS   C3A11285  17.580  16.454   7.133  0.1205 -0.1509 -0.4399
  761POPS   C4A11286  17.546  16.415   7.525 -0.0070 -0.1193 -0.3171
  761POPS   C1B11287  17.712  17.084   6.512 -0.1651 -0.2941  0.1006
  761POPS   C2B11288  17.877  17.022   6.877  0.1692 -0.2992 -0.0098
  761POPS   C3B11289  17.988  16.920   7.271 -0.2953  0.2235 -0.0326
  761POPS   C4B11290  18.173  17.146   7.611 -0.0130 -0.2645 -0.2332
  762POPS   CNO11291   3.194   7.044   5.704  0.0646  0.0742 -0.0920
  762POPS   PO411292   3.632   6.917   5.680  0.2361 -0.2230 -0.0188
  762POPS   GL111293   3.599   7.170   6.018  0.2746  0.0388 -0.2397
  762POPS   GL211294   3.462   7.491   5.941 -0.1436  0.0422  0.2551
  762POPS   C1A11295   3.643   7.291   6.491  0.1487 -0.2527 -0.0379
  762POPS   D2A11296   3.524   7.375   6.926 -0.0627  0.1056 -0.2377
  762POPS   C3A11297   3.421   7.705   7.280  0.2101 -0.1809  0.1155
  762POPS   C4A11298   3.115   7.648   7.722 -0.0488  0.1052  0.1390
  762POPS   C1B11299   3.250   7.732   6.292  0.1009 -0.0314 -0.1830
  762POPS   C2B11300   3.214   7.853   6.793 -0.0785  0.0695 -0.0492
  762POPS   C3B11301   3.101   8.015   7.166  0.2017  0.1435 -0.0393
  762POPS   C4B11302   2.905   8.065   7.544 -0.2006  0.0010 -0.2019
  763POPS   CNO11303  14.826   8.417   5.394  0.2295  0.1019  0.0490
  763POPS   PO411304  14.764   8.826   5.309 -0.0261  0.0989 -0.2378
  763POPS   GL111305  14.850   8.905   5.630 -0.0621  0.1703 -0.1578
  763POPS   GL211306  14.681   9.063   5.748 -0.2566  0.1078  0.1681
  763POPS   C1A11307  15.166   8.921   5.951 -0.3235 -0.1055  0.0375
  763POPS   D2A11308  15.096   8.926   6.361 -0.0103  0.1183 -0.1491
  763POPS   C3A11309  15.182   8.983   6.734 -0.0807 -0.2206 -0.1063
  763POPS   C4A11310  15.250   8.909   7.148 -0.0672  0.0977 -0.0941
  763POPS   C1B11311  14.587   8.902   6.214  0.3119  0.1571  0.1386
  763POPS   C2B11312  14.574   8.692   6.572  0.2250 -0.0299 -0.1627
  763POPS   C3B11313  14.365   8.807   6.878  0.0920  0.1831 -0.0999
  763POPS   C4B11314  14.260   9.200   7.043 -0.0469 -0.0647 -0.1862
  764POPS   CNO11315   5.876  14.302   5.195 -0.2004 -0.0486 -0.2537
  764POPS   PO411316   5.810  14.175   5.662  0.1610 -0.1122  0.2529
  764POPS   GL111317   6.198  14.097   5.912  0.2725  0.0277 -0.0986
  764POPS   GL211318   6.334  14.454   5.829 -0.1120  0.1416  0.1462
  764POPS   C1A11319   6.315  14.057   6.361 -0.0340  0.2075  0.1409
  764POPS   D2A11320   6.235  14.098   6.855  0.1971  0.0423 -0.2342
  764POPS   C3A11321   6.174  13.785   7.112  0.0015  0.2066 -0.3620
  764POPS   C4A11322   6.405  13.478   7.128 -0.2278 -0.2553  0.0379
  764POPS   C1B11323   6.647  14.519   6.198  0.2673  0.3975 -0.1480
  764POPS   C2B11324   6.865  14.687   6.535 -0.1193 -0.1183 -0.0654
  764POPS   C3B11325   7.203  14.871   6.683 -0.1748 -0.3581 -0.0489
  764POPS   C4B11326   7.339  14.928   7.062 -0.0700  0.1151  0.1044
  765POPS   CNO11327  17.644   5.642   5.354  0.0088  0.0535  0.2918
  765POPS   PO411328  17.932   5.603   5.685  0.3025 -0.1299 -0.2728
  765POPS   GL111329  17.871   5.334   5.994 -0.1110 -0.0758 -0.1458
  765POPS   GL211330  17.725   5.036   6.008 -0.6285 -0.0489 -0.0844
  765POPS   C1A11331  17.665   5.360   6.395  0.1170  0.0173  0.2807
  765POPS   D2A11332  17.911   5.409   6.629 -0.3438 -0.0330 -0.1474
  765POPS   C3A11333  18.078   4.911   6.733  0.0451  0.1720 -0.2385
  765POPS   C4A11334  18.176   4.443   6.825 -0.0761 -0.1897  0.0801
  765POPS   C1B11335  17.890   4.692   6.263 -0.2971 -0.0973  0.1782
  765POPS   C2B11336  17.829   4.342   6.515  0.5274 -0.1531 -0.3282
  765POPS   C3B11337  17.645   4.232   6.936  0.0954 -0.0798 -0.3534
  765POPS   C4B11338  17.582   4.218   7.396 -0.1834  0.2423 -0.1647
  766POPS   CNO11339   7.345   4.955   5.644  0.1711  0.0111  0.2352
  766POPS   PO411340   6.947   4.909   5.911 -0.0972  0.1563  0.0548
  766POPS   GL111341   6.722   4.875   6.221  0.2067 -0.1471  0.0308
  766POPS   GL211342   6.821   5.107   6.318  0.0530 -0.0881 -0.3319
  766POPS   C1A11343   6.449   4.868   6.610 -0.2688 -0.2243 -0.2796
  766POPS   D2A11344   6.094   4.961   6.818 -0.1014 -0.2076  0.0060
  766POPS   C3A11345   6.153   4.918   7.226  0.1659  0.1540  0.0607
  766POPS   C4A11346   5.919   4.847   7.609  0.1290 -0.0815 -0.2752
  766POPS   C1B11347   6.906   5.134   6.726  0.1192  0.2734  0.1748
  766POPS   C2B11348   7.042   5.224   7.106 -0.3348 -0.2290  0.2737
  766POPS   C3B11349   7.114   5.332   7.545 -0.0268 -0.1266 -0.0735
  766POPS   C4B11350   6.998   5.069   7.975 -0.1059  0.1567  0.1177
  767POPS   CNO11351   5.264  10.803   5.472  0.1875  0.1723  0.0592
  767POPS   PO411352   4.754  10.706   5.443  0.1483  0.2138 -0.1126
  767POPS   GL111353   4.581  10.477   5.839 -0.1257  0.1635  0.3167
  767POPS   GL211354   4.412  10.654   6.051 -0.2737  0.1515  0.1480
  767POPS   C1A11355   4.330  10.203   6.227 -0.1231 -0.1883  0.2196
  767POPS   D2A11356   4.326  10.329   6.680 -0.0557  0.1919  0.2019
  767POPS   C3A11357   3.921  10.346   6.702 -0.0725  0.0884 -0.1180
  767POPS   C4A11358   3.528  10.054   6.757 -0.2023 -0.1540 -0.1480
  767POPS   C1B11359   4.175  10.688   6.370 -0.0145 -0.0959  0.0637
  767POPS   C2B11360   4.177  10.776   6.839 -0.1910 -0.2269  0.1226
  767POPS   C3B11361   4.072  10.519   7.170 -0.0716 -0.3601  0.2369
  767POPS   C4B11362   3.919  10.191   7.430  0.2578 -0.0831 -0.1730
  768POPS   CNO11363   9.547   2.691   5.244  0.3933 -0.0180 -0.1299
  768POPS   PO411364   9.811   2.496   5.493 -0.2438  0.0918  0.0118
  768POPS   GL111365   9.638   2.245   5.805  0.1902  0.0480 -0.1221
  768POPS   GL211366   9.347   2.279   5.862 -0.0505 -0.0898 -0.3588
  768POPS   C1A11367   9.723   2.346   6.223  0.2272  0.0428  0.0590
  768POPS   D2A11368   9.654   2.607   6.654  0.2212 -0.2927 -0.1392
  768POPS   C3A11369   9.616   2.483   7.158  0.2298 -0.0690 -0.0813
  768POPS   C4A11370   9.457   2.565   7.553 -0.3899 -0.2253 -0.0406
  768POPS   C1B11371   9.315   2.249   6.432  0.1941  0.1192 -0.0134
  768POPS   C2B11372   9.572   2.069   6.824  0.1814  0.0580  0.1518
  768POPS   C3B11373   9.832   2.058   7.093 -0.0766 -0.2536 -0.4737
  768POPS   C4B11374   9.929   2.340   7.520  0.2642 -0.1491  0.0611
  769POPS   CNO11375   5.718  15.406   5.814 -0.0460  0.0560  0.0388
  769POPS   PO411376   5.662  15.044   5.559  0.1416 -0.0891  0.0576
  769POPS   GL111377   5.649  14.899   6.035  0.0401 -0.1584  0.0538
  769POPS   GL211378   5.777  14.640   5.938  0.1234 -0.1981  0.0911
  769POPS   C1A11379   5.472  14.630   6.476  0.0780 -0.0257  0.1350
  769POPS   D2A11380   5.478  14.763   6.856 -0.0492 -0.1606  0.1082
  769POPS   C3A11381   5.241  14.959   7.139  0.1013 -0.0973 -0.3347
  769POPS   C4A11382   5.017  14.779   7.473  0.1595  0.2106 -0.0772
  769POPS   C1B11383   6.124  14.615   6.287  0.2722  0.1432 -0.4870
  769POPS   C2B11384   6.336  14.561   6.669  0.2459  0.0245 -0.1154
  769POPS   C3B11385   6.630  14.569   6.995  0.2671 -0.1572  0.3296
  769POPS   C4B11386   6.872  14.708   7.175  0.1503  0.0432 -0.0357
  770POPS   CNO11387   5.493   8.670   5.037 -0.1922 -0.2256 -0.3136
  770POPS   PO411388   5.638   8.651   5.408  0.0773 -0.3045 -0.2236
  770POPS   GL111389   5.743   8.472   5.778  0.0710  0.0723 -0.1145
  770POPS   GL211390   5.648   8.149   6.024  0.1886 -0.1485 -0.1278
  770POPS   C1A11391   5.760   8.572   6.221  0.0941 -0.1317 -0.2410
  770POPS   D2A11392   5.753   8.529   6.613 -0.2096 -0.0568 -0.1235
  770POPS   C3A11393   5.643   8.569   6.957 -0.1141  0.2204  0.1426
  770POPS   C4A11394   5.440   8.349   7.220 -0.1928  0.1805 -0.0536
  770POPS   C1B11395   5.478   8.150   6.386  0.1968  0.1530  0.3926
  770POPS   C2B11396   5.396   8.120   6.713  0.0547 -0.2816 -0.0631
  770POPS   C3B11397   5.023   8.318   6.927 -0.3605  0.1811 -0.2050
  770POPS   C4B11398   4.608   8.410   7.179 -0.2590 -0.1010  0.3308
  771POPS   CNO11399  13.806   1.641   5.820  0.0328 -0.2655  0.0280
  771POPS   PO411400  13.605   1.319   5.815 -0.1032 -0.1110  0.1602
  771POPS   GL111401  13.531   1.448   6.136 -0.0837 -0.2770 -0.3033
  771POPS   GL211402  13.222   1.338   6.168  0.0097 -0.1164  0.1536
  771POPS   C1A11403  13.414   1.477   6.606  0.3717  0.1421 -0.0872
  771POPS   D2A11404  13.427   1.477   7.021  0.1849  0.0842  0.0154
  771POPS   C3A11405  13.733   1.372   7.349 -0.1088 -0.3136 -0.0643
  771POPS   C4A11406  14.002   1.597   7.670 -0.0478 -0.0427 -0.0497
  771POPS   C1B11407  12.965   1.331   6.443 -0.1988  0.1072 -0.3194
  771POPS   C2B11408  12.945   1.490   6.886 -0.1228  0.5304 -0.1335
  771POPS   C3B11409  12.892   1.819   7.258 -0.1496  0.2590 -0.0391
  771POPS   C4B11410  13.136   1.861   7.548  0.2172  0.2006 -0.1376
  772POPS   CNO11411  14.639  11.248   5.184  0.0368  0.1375 -0.1286
  772POPS   PO411412  14.897  11.111   5.517 -0.1545  0.2221  0.0096
  772POPS   GL111413  14.882  11.162   5.931  0.1768  0.0881 -0.1070
  772POPS   GL211414  14.810  11.547   6.008  0.0692  0.1315 -0.1710
  772POPS   C1A11415  14.949  10.926   6.278  0.0635  0.0849 -0.1005
  772POPS   D2A11416  14.769  10.942   6.656  0.0643  0.0977  0.1909
  772POPS   C3A11417  14.377  10.907   6.978 -0.2881 -0.1794 -0.1669
  772POPS   C4A11418  14.389  10.918   7.435 -0.1692 -0.0335  0.0646
  772POPS   C1B11419  14.780  11.345   6.449 -0.2961 -0.2175  0.1060
  772POPS   C2B11420  15.002  11.298   6.842  0.0134 -0.1428 -0.0681
  772POPS   C3B11421  15.084  11.239   7.244  0.0145  0.0928 -0.0790
  772POPS   C4B11422  15.251  11.395   7.674 -0.0760 -0.3039 -0.0741
  773POPS   CNO11423   4.596   5.860   5.561 -0.0085 -0.2066  0.1222
  773POPS   PO411424   4.866   5.779   5.776  0.2245 -0.0120 -0.1465
  773POPS   GL111425   4.899   5.431   6.099 -0.1653 -0.0544  0.4814
  773POPS   GL211426   4.613   5.329   6.184  0.0426 -0.1334 -0.2144
  773POPS   C1A11427   5.280   5.411   6.271 -0.1393  0.1138 -0.0248
  773POPS   D2A11428   5.526   5.589   6.494 -0.1015 -0.0476 -0.2279
  773POPS   C3A11429   5.612   5.698   6.956 -0.2026  0.0104 -0.0321
  773POPS   C4A11430   5.664   5.659   7.311  0.2641 -0.1091  0.3013
  773POPS   C1B11431   4.320   5.396   6.447  0.0558  0.1828  0.1214
  773POPS   C2B11432   3.992   5.057   6.659  0.0593 -0.1125 -0.0612
  773POPS   C3B11433   3.553   4.975   6.527 -0.1860 -0.2909 -0.1354
  773POPS   C4B11434   3.164   4.754   6.351  0.3895 -0.1497  0.0313
  774POPS   CNO11435  12.494  13.855   5.394 -0.0075  0.3171 -0.2665
  774POPS   PO411436  12.637  14.279   5.242 -0.1455 -0.0981  0.2430
  774POPS   GL111437  12.603  14.285   5.663  0.0545 -0.2518  0.1076
  774POPS   GL211438  12.672  14.644   5.815 -0.1073  0.0569  0.1219
  774POPS   C1A11439  12.607  14.074   6.023  0.1654 -0.0715 -0.0834
  774POPS   D2A11440  12.617  14.069   6.472  0.1925  0.0288  0.1842
  774POPS   C3A11441  12.416  14.322   6.755 -0.0073 -0.2031  0.1767
  774POPS   C4A11442  12.477  14.729   7.010  0.0706  0.2764 -0.1918
  774POPS   C1B11443  12.849  14.848   6.150  0.0757 -0.1707  0.2195
  774POPS   C2B11444  13.083  14.855   6.576  0.2998  0.0665  0.1741
  774POPS   C3B11445  12.966  14.743   6.969  0.1613 -0.3396  0.1385
  774POPS   C4B11446  13.018  14.881   7.362  0.0740  0.0167 -0.1092
  775POPS   CNO11447   0.880  14.927   5.465 -0.0992  0.2611  0.2413
  775POPS   PO411448   1.004  14.586   5.531 -0.1192  0.0219  0.1097
  775POPS   GL111449   1.023  14.705   5.929  0.2413 -0.0274  0.1802
  775POPS   GL211450   1.113  14.930   5.909  0.2307 -0.2633 -0.3111
  775POPS   C1A11451   0.888  14.604   6.320  0.1183 -0.0754  0.1477
  775POPS   D2A11452   1.019  14.510   6.697  0.0270 -0.0533 -0.2605
  775POPS   C3A11453   0.730  14.227   6.981 -0.0519  0.3769 -0.1249
  775POPS   C4A11454   0.251  14.171   7.042  0.2387 -0.0670 -0.1834
  775POPS   C1B11455   1.279  14.887   6.324 -0.1612 -0.0261 -0.4562
  775POPS   C2B11456   1.293  14.887   6.846  0.0935 -0.1696 -0.0185
  775POPS   C3B11457   1.083  14.617   7.250  0.0755 -0.0180  0.3770
  775POPS   C4B11458   0.884  14.285   7.508 -0.1457 -0.2897 -0.2076
  776POPS   CNO11459   1.030   4.792   6.091  0.2356  0.1401  0.0462
  776POPS   PO411460   1.004   5.215   5.878 -0.0326  0.1952  0.0815
  776POPS   GL111461   0.960   5.381   6.226 -0.2080 -0.2099  0.2671
  776POPS   GL211462   0.727   5.207   6.418 -0.0935  0.1449  0.2189
  776POPS   C1A11463   0.919   5.589   6.601 -0.2460 -0.1179 -0.1495
  776POPS   D2A11464   0.948   5.792   7.045 -0.0189 -0.1453 -0.1821
  776POPS   C3A11465   0.657   5.751   7.308  0.1352 -0.0003  0.0744
  776POPS   C4A11466   0.293   5.592   7.538  0.0168  0.2164 -0.2592
  776POPS   C1B11467   0.818   5.051   6.722 -0.0789  0.0853 -0.0547
  776POPS   C2B11468   0.879   4.827   7.014  0.2061  0.0095  0.3510
  776POPS   C3B11469   0.939   4.552   7.426 -0.1043  0.2040 -0.0228
  776POPS   C4B11470   1.157   4.298   7.667 -0.1871  0.0686  0.1724
  777POPS   CNO11471   3.014  16.263   5.293 -0.3354 -0.1972  0.1087
  777POPS   PO411472   3.173  16.059   5.685  0.3837  0.1963  0.0198
  777POPS   GL111473   3.299  16.094   6.096 -0.2882  0.0838  0.1528
  777POPS   GL211474   3.633  16.076   6.307  0.0423 -0.1749 -0.0298
  777POPS   C1A11475   3.098  15.993   6.495 -0.0600  0.1632 -0.0184
  777POPS   D2A11476   3.120  15.953   6.816 -0.0459 -0.0766  0.1351
  777POPS   C3A11477   2.935  16.226   7.100  0.0801 -0.1341 -0.1448
  777POPS   C4A11478   3.090  16.563   7.265  0.1748  0.3214  0.0908
  777POPS   C1B11479   3.664  16.066   6.742  0.0125 -0.2235 -0.1512
  777POPS   C2B11480   3.548  16.069   7.155  0.1371 -0.2204  0.0746
  777POPS   C3B11481   3.302  16.142   7.580 -0.1467  0.0631 -0.1327
  777POPS   C4B11482   2.889  16.159   7.780  0.1442  0.0813 -0.4431
  778POPS   CNO11483   3.276   2.532   5.008 -0.1030  0.0588  0.0019
  778POPS   PO411484   3.509   2.266   5.222 -0.0769  0.0018  0.1091
  778POPS   GL111485   3.472   2.234   5.670  0.0578  0.1389  0.2399
  778POPS   GL211486   3.293   2.050   5.839  0.1337  0.0564  0.0111
  778POPS   C1A11487   3.679   2.206   6.142 -0.0559 -0.1410 -0.2332
  778POPS   D2A11488   3.655   2.127   6.542 -0.0114 -0.0129 -0.1625
  778POPS   C3A11489   3.513   1.731   6.628  0.0888  0.2686 -0.0909
  778POPS   C4A11490   3.584   1.647   6.988 -0.2930 -0.2527  0.0054
  778POPS   C1B11491   3.215   1.977   6.280 -0.3453  0.1239 -0.1723
  778POPS   C2B11492   3.115   2.112   6.739 -0.1767 -0.0490  0.2196
  778POPS   C3B11493   3.333   2.136   7.025 -0.2428 -0.4513 -0.1111
  778POPS   C4B11494   3.705   2.158   7.025  0.0990  0.0756 -0.1618
  779POPS   CNO11495  10.708   8.231   5.839 -0.1139 -0.1546  0.0067
  779POPS   PO411496  10.989   7.999   5.578  0.2306  0.1131  0.1740
  779POPS   GL111497  11.000   7.892   6.121  0.1093 -0.5559 -0.0233
  779POPS   GL211498  10.702   7.874   6.212  0.0237 -0.2465  0.1468
  779POPS   C1A11499  11.099   7.787   6.588  0.4180 -0.1086  0.1690
  779POPS   D2A11500  11.413   7.746   6.898 -0.1936 -0.2772 -0.1974
  779POPS   C3A11501  11.252   8.084   7.129 -0.1218 -0.0235 -0.3475
  779POPS   C4A11502  11.419   8.426   7.114  0.4480 -0.0622  0.0542
  779POPS   C1B11503  10.600   7.925   6.578  0.3141  0.0240 -0.0332
  779POPS   C2B11504  10.766   8.051   6.923  0.3523  0.6581  0.1017
  779POPS   C3B11505  10.838   8.002   7.372  0.2153  0.2297 -0.1246
  779POPS   C4B11506  10.744   8.011   7.772 -0.3306 -0.1753  0.0522
  780POPS   CNO11507  16.976  14.992   5.445  0.0671  0.0766 -0.0560
  780POPS   PO411508  16.812  15.375   5.596 -0.2694 -0.1903 -0.2183
  780POPS   GL111509  16.874  15.372   6.061 -0.3207  0.2210  0.0007
  780POPS   GL211510  16.634  15.105   6.061 -0.0617 -0.0529  0.1677
  780POPS   C1A11511  17.037  15.178   6.408  0.1724  0.0687  0.0183
  780POPS   D2A11512  17.029  15.126   6.780  0.1129  0.0789  0.2688
  780POPS   C3A11513  16.833  14.824   7.084  0.3798  0.0866 -0.0064
  780POPS   C4A11514  16.625  14.621   7.330  0.2174 -0.2291 -0.3223
  780POPS   C1B11515  16.564  15.337   6.475 -0.2228 -0.1906 -0.2429
  780POPS   C2B11516  16.643  15.578   6.834  0.0822 -0.0875  0.0008
  780POPS   C3B11517  16.677  15.844   7.130  0.1463 -0.0696 -0.1330
  780POPS   C4B11518  16.734  15.752   7.537 -0.2422  0.3434  0.1131
  781POPS   CNO11519   4.795   4.609   5.532  0.1885  0.1715  0.3777
  781POPS   PO411520   4.794   4.545   6.006 -0.0353  0.0940  0.1088
  781POPS   GL111521   4.581   4.521   6.360 -0.0073 -0.4345 -0.0030
  781POPS   GL211522   4.255   4.742   6.396 -0.1411 -0.2005  0.0798
  781POPS   C1A11523   4.697   4.730   6.676 -0.1022 -0.0692  0.2426
  781POPS   D2A11524   4.816   4.937   7.121  0.1520 -0.2891  0.2886
  781POPS   C3A11525   4.818   5.386   7.344 -0.1294  0.1383  0.1634
  781POPS   C4A11526   5.032   5.753   7.607 -0.0253  0.2221 -0.0264
  781POPS   C1B11527   4.189   4.510   6.774  0.0013  0.1957  0.2051
  781POPS   C2B11528   4.319   4.705   7.174 -0.0410  0.1107 -0.2461
  781POPS   C3B11529   4.369   5.088   7.393  0.1464 -0.0798  0.0265
  781POPS   C4B11530   4.436   5.290   7.840 -0.1668 -0.2511 -0.0897
  782POPS   CNO11531   5.113  12.433   5.067  0.2643 -0.1438 -0.1306
  782POPS   PO411532   5.345  12.849   5.196  0.0847 -0.1466  0.0889
  782POPS   GL111533   5.472  13.051   5.579  0.1921  0.2100 -0.2285
  782POPS   GL211534   5.487  13.392   5.701  0.0596 -0.0221  0.1990
  782POPS   C1A11535   5.732  13.070   5.933  0.1228  0.2678 -0.3804
  782POPS   D2A11536   5.964  13.106   6.303  0.1230  0.4399 -0.1692
  782POPS   C3A11537   5.909  13.211   6.715 -0.2311 -0.1023 -0.0600
  782POPS   C4A11538   5.962  13.141   7.161 -0.0753  0.4042 -0.0678
  782POPS   C1B11539   5.116  13.153   5.991  0.0618 -0.0416 -0.1927
  782POPS   C2B11540   5.033  13.095   6.417  0.0807  0.0368  0.0347
  782POPS   C3B11541   4.974  13.174   6.951 -0.1963 -0.3746  0.0706
  782POPS   C4B11542   4.817  13.458   7.300 -0.0873 -0.3105 -0.2728
  783POPS   CNO11543   8.603   1.594   5.399  0.0243  0.0441 -0.4038
  783POPS   PO411544   8.737   1.169   5.331 -0.1637 -0.1080 -0.2108
  783POPS   GL111545   8.880   0.925   5.635 -0.2984 -0.0801  0.2614
  783POPS   GL211546   8.646   0.828   5.854  0.1417  0.0473 -0.1609
  783POPS   C1A11547   9.253   0.680   5.766 -0.0252 -0.0160 -0.2129
  783POPS   D2A11548   9.476   0.309   5.757 -0.1458  0.2619  0.3811
  783POPS   C3A11549   9.200  -0.083   5.728  0.0134  0.0062  0.5306
  783POPS   C4A11550   9.403  -0.540   5.758  0.0762  0.0466 -0.1169
  783POPS   C1B11551   8.533   0.791   6.278 -0.0408  0.0352  0.2058
  783POPS   C2B11552   8.485   0.824   6.690  0.4210  0.2947  0.0639
  783POPS   C3B11553   8.404   0.517   7.030  0.0452  0.3653 -0.2418
  783POPS   C4B11554   8.470   0.317   7.388  0.1177  0.0125  0.0729
  784POPS   CNO11555   8.156  17.385   5.045 -0.0006 -0.1091  0.0435
  784POPS   PO411556   7.786  17.315   5.201  0.1479 -0.0066  0.3221
  784POPS   GL111557   7.806  17.328   5.625 -0.2231  0.2461  0.2042
  784POPS   GL211558   7.995  17.661   5.847 -0.2621 -0.1791 -0.1376
  784POPS   C1A11559   7.851  16.932   5.855  0.1953  0.0764 -0.3753
  784POPS   D2A11560   8.047  16.649   5.715 -0.0787  0.3096 -0.0542
  784POPS   C3A11561   8.026  16.303   5.944 -0.0309 -0.1709 -0.0554
  784POPS   C4A11562   7.985  16.073   6.360  0.2673  0.0188 -0.0382
  784POPS   C1B11563   8.131  17.727   6.254 -0.3621 -0.0174  0.0416
  784POPS   C2B11564   8.353  17.719   6.646 -0.1195  0.1421  0.0086
  784POPS   C3B11565   8.457  17.872   7.025  0.2463  0.1048  0.1377
  784POPS   C4B11566   8.656  18.040   7.373 -0.2618  0.1886  0.0517
  785POPS   CNO11567   8.465  13.869   4.986 -0.2587 -0.0794  0.0228
  785POPS   PO411568   8.581  13.603   5.339  0.2725 -0.1554 -0.0525
  785POPS   GL111569   8.621  13.572   5.751 -0.1356  0.0798 -0.2058
  785POPS   GL211570   8.795  13.435   5.768 -0.1306  0.0020  0.1202
  785POPS   C1A11571   8.363  13.777   6.043  0.0969  0.1082 -0.0407
  785POPS   D2A11572   8.150  13.940   6.319  0.1712  0.0803  0.0539
  785POPS   C3A11573   8.251  13.779   6.716 -0.0566 -0.2405 -0.1793
  785POPS   C4A11574   8.455  13.533   7.036  0.0240  0.1357  0.0366
  785POPS   C1B11575   8.972  13.424   6.176 -0.0512 -0.0401  0.4691
  785POPS   C2B11576   9.219  13.274   6.445  0.0309 -0.1197  0.0071
  785POPS   C3B11577   9.289  13.119   6.811 -0.0566 -0.0405  0.1224
  785POPS   C4B11578   9.265  12.869   7.166 -0.0190 -0.0508  0.0015
  786POPS   CNO11579  11.295   5.239   5.444 -0.2333 -0.0158  0.3114
  786POPS   PO411580  11.602   5.561   5.405  0.0877 -0.1316 -0.1391
  786POPS   GL111581  11.539   5.447   5.938  0.2433  0.1208 -0.2009
  786POPS   GL211582  11.914   5.523   6.154 -0.1299 -0.1730  0.2287
  786POPS   C1A11583  11.413   5.272   6.347 -0.2275 -0.1712  0.1492
  786POPS   D2A11584  11.642   5.055   6.693 -0.0857 -0.3690  0.0417
  786POPS   C3A11585  11.349   4.930   7.001  0.0177 -0.0835  0.1961
  786POPS   C4A11586  11.338   4.803   7.447  0.1045 -0.0190  0.1388
  786POPS   C1B11587  11.930   5.561   6.613  0.3913 -0.1357  0.0898
  786POPS   C2B11588  11.974   5.340   6.950  0.0448  0.1141  0.0413
  786POPS   C3B11589  11.766   5.110   7.248 -0.0346  0.0673 -0.0477
  786POPS   C4B11590  11.813   4.589   7.484  0.1175 -0.3858 -0.0135
  787POPS   CNO11591   0.609   6.096   5.788  0.1343 -0.0271  0.2257
  787POPS   PO411592   0.993   6.273   5.784  0.3597  0.1592  0.4070
  787POPS   GL111593   1.133   6.230   6.093 -0.0754 -0.0331 -0.0009
  787POPS   GL211594   1.015   5.965   6.216 -0.0799  0.1851  0.0592
  787POPS   C1A11595   1.412   6.420   6.381  0.0795  0.0625 -0.0570
  787POPS   D2A11596   1.652   6.459   6.686  0.3135  0.3634 -0.0955
  787POPS   C3A11597   2.048   6.304   6.757 -0.1446 -0.0286 -0.1028
  787POPS   C4A11598   2.541   6.253   6.677 -0.0859  0.0611  0.0492
  787POPS   C1B11599   1.209   5.994   6.628 -0.2012  0.0972  0.0887
  787POPS   C2B11600   1.296   6.139   6.991 -0.1087  0.0086  0.0655
  787POPS   C3B11601   1.407   5.916   7.392 -0.2633  0.0215 -0.0254
  787POPS   C4B11602   1.540   5.802   7.765  0.0593 -0.3060  0.3455
  788POPS   CNO11603   6.672   5.392   5.823 -0.1263 -0.0854 -0.1985
  788POPS   PO411604   6.246   5.513   5.811  0.2097  0.1377 -0.0197
  788POPS   GL111605   6.479   5.522   6.228 -0.0580  0.3506 -0.2603
  788POPS   GL211606   6.364   5.336   6.484 -0.1866 -0.2470  0.2441
  788POPS   C1A11607   6.780   5.629   6.593 -0.2025  0.0338 -0.3210
  788POPS   D2A11608   6.923   5.654   6.913  0.1644  0.2537  0.1550
  788POPS   C3A11609   6.657   5.603   7.218  0.1445 -0.2245  0.0425
  788POPS   C4A11610   6.497   5.698   7.579 -0.0653  0.0922 -0.0570
  788POPS   C1B11611   6.448   5.252   6.905 -0.1558 -0.1960  0.0605
  788POPS   C2B11612   6.684   4.924   7.131 -0.0241  0.3689  0.1035
  788POPS   C3B11613   7.049   4.795   7.373  0.2528 -0.3879 -0.1313
  788POPS   C4B11614   7.336   4.882   7.682 -0.0439  0.1032  0.0867
  789POPS   CNO11615   9.395  13.337   5.671  0.0206  0.0041  0.1741
  789POPS   PO411616   9.616  13.043   5.480  0.0258  0.2569 -0.0159
  789POPS   GL111617   9.502  12.848   5.920 -0.1071 -0.0064  0.2159
  789POPS   GL211618   9.456  13.050   6.145 -0.0110 -0.0099  0.0242
  789POPS   C1A11619   9.304  12.553   5.953 -0.0945 -0.1669  0.0234
  789POPS   D2A11620   9.169  12.332   6.220  0.0991  0.1080  0.1523
  789POPS   C3A11621   8.921  11.906   6.321 -0.2448  0.3181  0.0112
  789POPS   C4A11622   9.089  11.578   6.260 -0.3328  0.1349 -0.2685
  789POPS   C1B11623   9.447  12.830   6.455 -0.2434 -0.3272 -0.1667
  789POPS   C2B11624   9.204  12.513   6.696  0.0596 -0.1079  0.1687
  789POPS   C3B11625   9.119  12.176   6.732  0.2477 -0.2505 -0.1382
  789POPS   C4B11626   8.922  11.892   6.937 -0.1734  0.2215  0.0213
  790POPS   CNO11627  10.506   1.691   5.353  0.1736 -0.2067  0.1097
  790POPS   PO411628  10.770   1.473   5.586 -0.0651 -0.0439  0.0639
  790POPS   GL111629  10.452   1.430   5.882  0.0967 -0.1588 -0.2188
  790POPS   GL211630  10.262   1.310   5.725 -0.4739 -0.3989 -0.0336
  790POPS   C1A11631  10.293   1.378   6.303 -0.1664  0.0848 -0.1934
  790POPS   D2A11632  10.128   1.338   6.635  0.1621  0.1327 -0.0964
  790POPS   C3A11633  10.235   1.273   7.042 -0.0673  0.0182  0.0593
  790POPS   C4A11634  10.257   1.242   7.490 -0.1926  0.1914 -0.2295
  790POPS   C1B11635   9.902   1.264   6.000  0.4792 -0.1404  0.0051
  790POPS   C2B11636   9.684   1.245   6.391 -0.2316 -0.2614  0.0973
  790POPS   C3B11637   9.416   1.096   6.727 -0.0809  0.0007 -0.3101
  790POPS   C4B11638   9.413   0.738   7.095 -0.2650  0.0164  0.0125
  791POPS   CNO11639  17.113   6.532   5.290  0.2341 -0.0098 -0.1659
  791POPS   PO411640  17.405   6.450   5.615  0.2811  0.1743  0.0140
  791POPS   GL111641  17.395   6.328   6.070 -0.1275 -0.1996 -0.1006
  791POPS   GL211642  17.092   6.169   6.211  0.1724  0.2719  0.2251
  791POPS   C1A11643  17.483   6.507   6.488  0.0960  0.0248 -0.1796
  791POPS   D2A11644  17.544   6.562   6.943  0.3358  0.0567  0.1809
  791POPS   C3A11645  17.310   6.318   7.205 -0.0480  0.1567 -0.0131
  791POPS   C4A11646  16.993   6.244   7.466  0.0031 -0.2157  0.3824
  791POPS   C1B11647  17.090   6.149   6.730  0.1674 -0.3408  0.0834
  791POPS   C2B11648  17.027   5.798   7.011  0.0432  0.0136 -0.1472
  791POPS   C3B11649  17.069   5.677   7.444 -0.2542  0.0893  0.4271
  791POPS   C4B11650  16.855   5.344   7.533  0.1173 -0.2929 -0.0025
  792POPS   CNO11651   9.980   1.873   4.889  0.0048  0.1188 -0.0031
  792POPS   PO411652   9.551   1.643   5.119 -0.0379 -0.0928 -0.0293
  792POPS   GL111653   9.631   1.474   5.435  0.0713  0.1183  0.3130
  792POPS   GL211654   9.706   1.615   5.770  0.2754 -0.2228 -0.0980
  792POPS   C1A11655   9.520   1.083   5.732 -0.1620 -0.2608 -0.0539
  792POPS   D2A11656   9.357   1.094   6.042 -0.0113  0.1542  0.3836
  792POPS   C3A11657   9.048   0.783   6.246  0.1414 -0.2749 -0.0579
  792POPS   C4A11658   9.098   0.658   6.723  0.2826  0.2780  0.3037
  792POPS   C1B11659   9.433   1.588   6.116 -0.3395 -0.0070 -0.1637
  792POPS   C2B11660   9.306   1.690   6.553 -0.1510 -0.1566 -0.0435
  792POPS   C3B11661   9.249   1.641   6.888 -0.1832 -0.1408  0.2501
  792POPS   C4B11662   9.328   1.688   7.213  0.3499 -0.2882  0.1601
  793POPS   CNO11663  13.640  18.391   5.237  0.1375 -0.4485 -0.0655
  793POPS   PO411664  13.904  18.418   5.516  0.4088 -0.2364 -0.1492
  793POPS   GL111665  13.580  18.443   5.783 -0.1935 -0.0553 -0.3433
  793POPS   GL211666  13.858  18.505   6.021 -0.2371  0.1824 -0.0067
  793POPS   C1A11667  13.421  18.074   6.051  0.2086  0.1798  0.0493
  793POPS   D2A11668  13.637  17.910   6.446 -0.2509  0.1110 -0.0574
  793POPS   C3A11669  14.058  18.043   6.509  0.2246  0.2043 -0.0714
  793POPS   C4A11670  14.193  18.394   6.411 -0.0187  0.2606  0.2914
  793POPS   C1B11671  13.728  18.412   6.385  0.0854 -0.1508 -0.3554
  793POPS   C2B11672  13.610  18.253   6.800 -0.0728 -0.0636  0.2688
  793POPS   C3B11673  13.629  18.236   7.256 -0.1600  0.0106 -0.1692
  793POPS   C4B11674  13.550  18.406   7.528 -0.0623 -0.3285 -0.1381
  794POPS   CNO11675  15.780  15.846   5.526  0.2400 -0.0296  0.0467
  794POPS   PO411676  16.134  15.988   5.679  0.0455  0.2370  0.2289
  794POPS   GL111677  16.197  16.068   6.156 -0.1494 -0.1151 -0.0555
  794POPS   GL211678  16.167  15.786   6.184  0.0022 -0.1498  0.1363
  794POPS   C1A11679  16.580  16.314   6.346 -0.1846  0.0890 -0.0035
  794POPS   D2A11680  16.983  16.241   6.180 -0.0070  0.0072 -0.5139
  794POPS   C3A11681  17.272  16.454   6.379  0.1169  0.2889 -0.2440
  794POPS   C4A11682  17.382  16.756   6.623 -0.5660  0.0141  0.4013
  794POPS   C1B11683  16.473  15.885   6.520  0.0297  0.0878 -0.1794
  794POPS   C2B11684  16.885  16.079   6.699 -0.5121  0.1040 -0.1535
  794POPS   C3B11685  17.109  16.327   6.863 -0.0151 -0.1520  0.0199
  794POPS   C4B11686  17.186  16.171   7.244  0.0007 -0.0680  0.1352
  795POPS   CNO11687   5.419   6.038   5.609  0.2484 -0.0671 -0.1207
  795POPS   PO411688   5.809   5.769   5.703 -0.1625 -0.1252  0.1025
  795POPS   GL111689   5.798   5.806   6.116 -0.0569 -0.3244 -0.1201
  795POPS   GL211690   5.970   5.656   6.325 -0.1844  0.1236  0.4103
  795POPS   C1A11691   5.703   6.011   6.500  0.4581 -0.3370 -0.2246
  795POPS   D2A11692   5.389   6.284   6.625  0.1861 -0.0966  0.0409
  795POPS   C3A11693   5.495   6.724   6.595  0.0780 -0.1801  0.4010
  795POPS   C4A11694   5.522   7.208   6.543  0.0405 -0.0503  0.5017
  795POPS   C1B11695   5.920   5.406   6.749  0.0487  0.1753 -0.0748
  795POPS   C2B11696   5.783   5.256   7.042  0.2815  0.4493 -0.2015
  795POPS   C3B11697   5.617   5.007   7.206  0.0067  0.2639  0.0341
  795POPS   C4B11698   5.366   4.875   7.565  0.0193  0.1103  0.1426
  796POPS   CNO11699  16.657  11.584   5.558  0.2246  0.0669 -0.0851
  796POPS   PO411700  16.788  12.006   5.579 -0.2217 -0.0406  0.1700
  796POPS   GL111701  17.046  11.959   5.893 -0.0656  0.0502  0.2164
  796POPS   GL211702  17.053  11.643   5.880 -0.0303 -0.1060  0.0797
  796POPS   C1A11703  17.183  12.271   6.175  0.1333  0.0828 -0.0461
  796POPS   D2A11704  17.040  12.398   6.583  0.0489  0.1728 -0.1853
  796POPS   C3A11705  16.697  12.287   6.911  0.2001 -0.0202  0.0550
  796POPS   C4A11706  16.367  12.081   6.918 -0.1325 -0.1440  0.2706
  796POPS   C1B11707  17.041  11.702   6.319  0.2510  0.2069 -0.3208
  796POPS   C2B11708  16.773  11.870   6.646 -0.2210  0.0467  0.1008
  796POPS   C3B11709  16.783  11.858   7.139  0.0101  0.0126 -0.3168
  796POPS   C4B11710  16.731  11.801   7.518 -0.0329  0.1294  0.1849
  797POPS   CNO11711  18.155  16.126   5.358 -0.0985 -0.1880  0.0200
  797POPS   PO411712  18.260  16.285   5.811  0.2889  0.3496 -0.1939
  797POPS   GL111713  18.021  16.142   6.152 -0.5017 -0.0277 -0.0636
  797POPS   GL211714  17.631  16.111   6.199  0.1845  0.1398 -0.0736
  797POPS   C1A11715  18.019  16.147   6.537  0.1461  0.1094 -0.3089
  797POPS   D2A11716  18.040  16.121   6.858  0.0543 -0.0818  0.2098
  797POPS   C3A11717  18.000  16.297   7.283  0.1378  0.1101  0.0294
  797POPS   C4A11718  18.013  16.398   7.782 -0.1044 -0.0280  0.2795
  797POPS   C1B11719  17.490  16.116   6.647 -0.0463  0.3836 -0.3827
  797POPS   C2B11720  17.653  15.979   7.150 -0.0475 -0.0469 -0.1243
  797POPS   C3B11721  18.071  15.817   7.273 -0.0990  0.1363 -0.0802
  797POPS   C4B11722  18.276  15.647   7.519 -0.0111 -0.3062 -0.1206
  798POPS   CNO11723  16.973   0.112   5.131  0.1909  0.0820  0.2744
  798POPS   PO411724  16.859  -0.091   5.507  0.0320 -0.0766 -0.0132
  798POPS   GL111725  16.836   0.090   5.945 -0.2184  0.2656 -0.0577
  798POPS   GL211726  16.684  -0.180   6.077  0.1038 -0.0943 -0.0126
  798POPS   C1A11727  16.724   0.204   6.354 -0.0060 -0.0029 -0.1935
  798POPS   D2A11728  16.730   0.385   6.739  0.0214  0.1918  0.1022
  798POPS   C3A11729  16.623   0.207   7.035  0.0858 -0.1091 -0.2354
  798POPS   C4A11730  16.206   0.122   7.271  0.2186  0.0584  0.2229
  798POPS   C1B11731  16.877  -0.285   6.440 -0.0265  0.2160  0.1128
  798POPS   C2B11732  16.891  -0.203   6.847 -0.0157  0.2666  0.0555
  798POPS   C3B11733  17.022  -0.562   7.253 -0.0596 -0.4849 -0.0909
  798POPS   C4B11734  16.961  -0.441   7.652  0.1480  0.1729 -0.2370
  799POPS   CNO11735   9.862   6.139   5.630  0.1883  0.1034 -0.2839
  799POPS   PO411736  10.211   6.010   5.843  0.0206 -0.0006 -0.1185
  799POPS   GL111737  10.247   5.929   6.321  0.1098 -0.0782  0.2219
  799POPS   GL211738  10.322   5.676   6.354  0.0832  0.3257 -0.0010
  799POPS   C1A11739  10.296   6.070   6.756  0.0883 -0.2448 -0.1225
  799POPS   D2A11740  10.454   5.880   7.099  0.0381  0.1656 -0.4841
  799POPS   C3A11741  10.755   6.090   7.234  0.1359 -0.0844  0.2508
  799POPS   C4A11742  11.098   5.925   7.494  0.0290  0.3999  0.1745
  799POPS   C1B11743  10.241   5.538   6.755 -0.1542  0.4380 -0.0709
  799POPS   C2B11744  10.358   5.287   7.118  0.2060 -0.1709 -0.1053
  799POPS   C3B11745  10.532   5.289   7.469 -0.1530 -0.0756  0.0755
  799POPS   C4B11746  10.626   5.702   7.576  0.1183 -0.1436 -0.1253
  800POPS   CNO11747   6.165   6.567   5.429  0.0785  0.0292 -0.0830
  800POPS   PO411748   6.476   6.337   5.589  0.3037  0.3718  0.3741
  800POPS   GL111749   6.478   6.457   6.010  0.0622 -0.1328 -0.1379
  800POPS   GL211750   6.216   6.692   5.992  0.1757 -0.0124 -0.1845
  800POPS   C1A11751   6.380   6.456   6.469 -0.0860 -0.1481  0.2220
  800POPS   D2A11752   6.312   6.646   6.888  0.0097  0.1830  0.0903
  800POPS   C3A11753   6.058   6.455   7.169  0.0400 -0.1319 -0.0103
  800POPS   C4A11754   5.752   6.463   7.501 -0.1474 -0.1529 -0.0153
  800POPS   C1B11755   6.231   6.942   6.362 -0.1031  0.3974  0.0740
  800POPS   C2B11756   5.953   6.942   6.634  0.3957  0.1976 -0.1999
  800POPS   C3B11757   5.892   6.983   7.002 -0.0684  0.0692  0.0237
  800POPS   C4B11758   5.604   6.875   7.203 -0.1311 -0.1544 -0.1339
  801POPS   CNO11759   1.506  18.292   5.042  0.0270 -0.1650  0.0091
  801POPS   PO411760   1.951  18.486   5.272 -0.2992 -0.1246  0.0889
  801POPS   GL111761   2.165  18.304   5.711  0.2830 -0.0667 -0.1312
  801POPS   GL211762   2.192  18.032   5.637 -0.1705 -0.3705 -0.3881
  801POPS   C1A11763   2.213  18.408   6.114  0.0753  0.0148  0.0475
  801POPS   D2A11764   2.193  18.263   6.638  0.0481  0.0555 -0.0228
  801POPS   C3A11765   2.312  18.123   7.015 -0.0341 -0.1551  0.0714
  801POPS   C4A11766   2.587  18.143   7.356  0.0485  0.0399  0.0309
  801POPS   C1B11767   2.439  17.975   5.973  0.0938 -0.4018 -0.1991
  801POPS   C2B11768   2.288  17.834   6.422 -0.1652 -0.0270  0.1950
  801POPS   C3B11769   2.373  17.610   6.771 -0.2014 -0.1843  0.0793
  801POPS   C4B11770   2.638  17.620   7.121 -0.2748 -0.3032 -0.2513
  802POPS   CNO11771   7.933  18.605   5.007 -0.2639 -0.1880  0.0200
  802POPS   PO411772   7.910  18.598   5.453 -0.1660 -0.0417 -0.0424
  802POPS   GL111773   7.924  18.857   5.769 -0.1539 -0.2522 -0.0247
  802POPS   GL211774   8.173  19.029   5.788 -0.0136 -0.0251 -0.3152
  802POPS   C1A11775   7.970  18.845   6.161 -0.1397 -0.0113 -0.0993
  802POPS   D2A11776   8.167  19.131   6.522 -0.1310 -0.0226 -0.1891
  802POPS   C3A11777   7.929  18.999   7.007  0.0102 -0.2629  0.0712
  802POPS   C4A11778   7.549  19.056   7.293 -0.1439  0.1838  0.1145
  802POPS   C1B11779   8.495  19.032   6.165 -0.2146 -0.2197 -0.0476
  802POPS   C2B11780   8.710  19.095   6.542  0.0599 -0.0282  0.0614
  802POPS   C3B11781   8.808  18.902   6.993  0.0035 -0.0486 -0.1097
  802POPS   C4B11782   8.977  18.650   7.333  0.3600 -0.2161  0.0776
  803POPS   CNO11783   7.614  16.521   4.955 -0.1238  0.0027  0.1691
  803POPS   PO411784   7.322  16.612   5.212  0.3809 -0.0776 -0.1325
  803POPS   GL111785   7.374  16.675   5.749  0.1279 -0.3774  0.1299
  803POPS   GL211786   7.381  17.056   5.908  0.2872  0.1918  0.1642
  803POPS   C1A11787   7.626  16.535   6.097 -0.4737 -0.0711  0.2251
  803POPS   D2A11788   7.924  16.659   6.319  0.0584 -0.0251  0.0322
  803POPS   C3A11789   8.174  16.979   6.305 -0.2776 -0.1846 -0.1579
  803POPS   C4A11790   8.537  17.133   6.560  0.0131 -0.0071 -0.1413
  803POPS   C1B11791   7.593  17.007   6.324  0.1343  0.0051 -0.0801
  803POPS   C2B11792   7.832  16.908   6.726  0.0065  0.0949 -0.0323
  803POPS   C3B11793   7.894  16.655   7.012  0.1003  0.0141 -0.0103
  803POPS   C4B11794   8.000  16.295   6.831  0.1740  0.0616  0.0499
  804POPS   CNO11795  18.507  10.068   5.620 -0.1481 -0.0685  0.2240
  804POPS   PO411796  18.221   9.670   5.895 -0.3648 -0.1433  0.1273
  804POPS   GL111797  18.378   9.802   6.279 -0.0177 -0.2114 -0.0034
  804POPS   GL211798  18.074   9.923   6.419 -0.2852  0.1366 -0.0583
  804POPS   C1A11799  18.426   9.598   6.622 -0.1160 -0.0606  0.0636
  804POPS   D2A11800  18.627   9.692   7.064 -0.1263  0.2041 -0.0991
  804POPS   C3A11801  18.761   9.395   7.359 -0.0308  0.1455  0.3954
  804POPS   C4A11802  18.819   9.003   7.346 -0.2576  0.0125  0.1531
  804POPS   C1B11803  18.402  10.092   6.727 -0.1317 -0.0695 -0.0702
  804POPS   C2B11804  18.726  10.171   7.044 -0.2103 -0.2688 -0.0106
  804POPS   C3B11805  18.977  10.372   7.246 -0.1436 -0.4236 -0.3272
  804POPS   C4B11806  19.027  10.316   7.678  0.0642  0.0388  0.0443
  805POPS   CNO11807   3.984   4.549   5.511 -0.0025  0.3438 -0.0116
  805POPS   PO411808   4.031   4.158   5.558 -0.0764 -0.1609 -0.0469
  805POPS   GL111809   3.904   4.242   6.001  0.0838  0.0541  0.0365
  805POPS   GL211810   4.131   4.076   6.302  0.2902 -0.1873 -0.2509
  805POPS   C1A11811   3.693   3.931   6.321  0.2214  0.2126 -0.3587
  805POPS   D2A11812   3.437   3.953   6.628  0.0163  0.2783  0.0203
  805POPS   C3A11813   3.562   4.023   7.072  0.3684  0.1588  0.0309
  805POPS   C4A11814   3.564   3.831   7.453 -0.2610  0.1074 -0.1839
  805POPS   C1B11815   3.967   4.068   6.735 -0.0712  0.0624  0.0110
  805POPS   C2B11816   4.098   3.829   7.131  0.0826  0.0754  0.2850
  805POPS   C3B11817   4.099   3.792   7.595 -0.3506 -0.1538 -0.1044
  805POPS   C4B11818   4.064   4.012   8.072 -0.2214 -0.0028  0.4948
  806POPS   CNO11819   8.074   9.030   5.622 -0.3588 -0.2457  0.1830
  806POPS   PO411820   7.677   9.140   5.494  0.0212  0.0447  0.2291
  806POPS   GL111821   7.506   9.235   5.964  0.0838 -0.1920  0.0985
  806POPS   GL211822   7.738   9.237   6.141  0.0129  0.0656  0.1625
  806POPS   C1A11823   7.171   9.104   6.303 -0.1432 -0.1452 -0.1250
  806POPS   D2A11824   7.130   9.198   6.704 -0.0073 -0.4048  0.1746
  806POPS   C3A11825   7.406   9.240   7.024 -0.0259 -0.1701  0.4746
  806POPS   C4A11826   7.536   9.288   7.418  0.3074  0.2256 -0.1830
  806POPS   C1B11827   7.699   9.153   6.602  0.1196 -0.1033  0.2514
  806POPS   C2B11828   7.969   9.341   7.026 -0.2817 -0.0577  0.4063
  806POPS   C3B11829   7.944   9.605   7.420  0.1484  0.0629  0.1450
  806POPS   C4B11830   7.960  10.008   7.598 -0.0064  0.1667 -0.0625
  807POPS   CNO11831  14.874  13.252   5.703  0.0620 -0.1928 -0.3555
  807POPS   PO411832  15.260  13.410   5.496  0.0028  0.0355 -0.0333
  807POPS   GL111833  15.244  13.548   5.985  0.2435  0.0734  0.3851
  807POPS   GL211834  14.926  13.735   6.086  0.0460  0.0022 -0.0187
  807POPS   C1A11835  15.122  13.468   6.427 -0.2120  0.2614 -0.3430
  807POPS   D2A11836  14.977  13.612   6.840  0.3568  0.1283  0.0075
  807POPS   C3A11837  14.732  13.511   7.273 -0.3040  0.0522  0.0735
  807POPS   C4A11838  14.468  13.617   7.572  0.2336 -0.0661  0.0237
  807POPS   C1B11839  14.638  13.642   6.451  0.0040 -0.1523  0.1089
  807POPS   C2B11840  14.680  13.272   6.671 -0.1092  0.2710 -0.4468
  807POPS   C3B11841  14.456  13.177   7.072 -0.0442 -0.0651 -0.0330
  807POPS   C4B11842  14.277  13.119   7.461 -0.1691 -0.0018  0.1091
  808POPS   CNO11843   7.052  17.688   5.425 -0.1565  0.0524  0.1392
  808POPS   PO411844   6.858  17.780   5.773  0.2872  0.0091 -0.0558
  808POPS   GL111845   7.174  17.766   6.072  0.0229 -0.0886  0.1390
  808POPS   GL211846   7.350  17.615   5.880 -0.0140  0.0341  0.2043
  808POPS   C1A11847   7.259  17.742   6.489  0.4654  0.2705 -0.0936
  808POPS   D2A11848   7.628  17.974   6.724 -0.2403  0.2436  0.1780
  808POPS   C3A11849   7.890  17.890   7.133 -0.1275  0.2610 -0.2344
  808POPS   C4A11850   8.190  17.809   7.551 -0.2493  0.1023  0.2172
  808POPS   C1B11851   7.670  17.465   6.195 -0.1913  0.1374  0.0983
  808POPS   C2B11852   7.864  17.459   6.644 -0.0742  0.0943 -0.1233
  808POPS   C3B11853   8.211  17.438   7.069 -0.0373 -0.1788 -0.0614
  808POPS   C4B11854   8.434  17.082   7.159 -0.0087  0.0394 -0.1155
  809POPS   CNO11855   1.600   0.578   5.565  0.1691 -0.4668 -0.1116
  809POPS   PO411856   1.411   0.336   5.705 -0.3908  0.0892 -0.1530
  809POPS   GL111857   1.319   0.328   6.084 -0.2960 -0.3259  0.0536
  809POPS   GL211858   1.348   0.073   6.143 -0.0489 -0.1599 -0.1834
  809POPS   C1A11859   1.153   0.418   6.535 -0.2333 -0.2544 -0.1077
  809POPS   D2A11860   1.280   0.377   7.001  0.0614 -0.0797  0.0463
  809POPS   C3A11861   1.597   0.541   7.224  0.2862 -0.0315  0.0879
  809POPS   C4A11862   1.632   0.798   7.670  0.0704 -0.2900 -0.2236
  809POPS   C1B11863   1.374   0.001   6.596  0.0608 -0.0821  0.3678
  809POPS   C2B11864   1.449  -0.079   7.050  0.3016  0.1170 -0.1454
  809POPS   C3B11865   1.502  -0.303   7.365  0.1415 -0.2533 -0.1008
  809POPS   C4B11866   1.276  -0.372   7.717 -0.2922  0.2960 -0.3402
  810POPS   CNO11867  14.309  12.753   5.095  0.1313 -0.1486  0.0675
  810POPS   PO411868  14.249  12.992   5.563  0.4633 -0.0690  0.1774
  810POPS   GL111869  14.174  12.753   5.916  0.0736 -0.1681 -0.0581
  810POPS   GL211870  14.005  12.418   5.808 -0.0393  0.0488  0.3243
  810POPS   C1A11871  14.174  12.643   6.315  0.1593  0.0222  0.3991
  810POPS   D2A11872  13.874  12.404   6.616  0.0079  0.2472 -0.1637
  810POPS   C3A11873  13.709  12.340   7.040 -0.0259 -0.1345  0.1250
  810POPS   C4A11874  13.415  12.442   7.304 -0.0904 -0.3102  0.1945
  810POPS   C1B11875  13.982  12.105   6.183 -0.2712  0.3962 -0.0172
  810POPS   C2B11876  14.105  11.890   6.609  0.0822  0.0031  0.3721
  810POPS   C3B11877  14.180  11.818   7.058 -0.2135  0.2529 -0.0320
  810POPS   C4B11878  14.097  11.341   7.276 -0.2051 -0.0018  0.2918
  811YOPS   CNO11879   4.907  11.726   5.491 -0.1002  0.3598  0.0165
  811YOPS   PO411880   4.521  11.640   5.712 -0.0178  0.2000  0.0518
  811YOPS   GL111881   4.687  11.850   6.024  0.0481 -0.0754 -0.0720
  811YOPS   GL211882   4.628  12.111   6.002 -0.3202 -0.0947  0.0115
  811YOPS   C1A11883   4.984  11.778   6.429 -0.0906  0.0603  0.0696
  811YOPS   D2A11884   5.074  11.835   6.821  0.2675  0.1111  0.0796
  811YOPS   C3A11885   5.142  12.096   7.132  0.0735 -0.2441  0.0431
  811YOPS   C4A11886   5.135  12.208   7.585  0.0966  0.2057  0.0955
  811YOPS   C1B11887   4.680  12.213   6.379  0.3702  0.0601 -0.2483
  811YOPS   C2B11888   4.715  12.114   6.733 -0.0135  0.1331  0.0249
  811YOPS   D3B11889   4.624  12.187   7.091 -0.1593 -0.1658 -0.0448
  811YOPS   C4B11890   4.400  12.165   7.568  0.0243  0.2408  0.3262
  812YOPS   CNO11891  17.179   8.684   5.829  0.0067  0.1715  0.1273
  812YOPS   PO411892  17.636   8.804   5.744 -0.0530  0.3109  0.3334
  812YOPS   GL111893  17.736   8.823   6.205 -0.0059  0.2007  0.1581
  812YOPS   GL211894  17.529   9.152   6.408  0.2793 -0.2833  0.1314
  812YOPS   C1A11895  17.856   8.846   6.623 -0.1325  0.0108  0.2766
  812YOPS   D2A11896  17.819   9.159   7.073  0.2598 -0.2951  0.2205
  812YOPS   C3A11897  17.468   9.100   7.386 -0.0011  0.0916  0.1885
  812YOPS   C4A11898  17.464   9.450   7.665  0.3212 -0.4312 -0.2939
  812YOPS   C1B11899  17.420   8.886   6.826  0.3227  0.1053 -0.1319
  812YOPS   C2B11900  17.730   8.645   7.051  0.1998 -0.0763  0.2742
  812YOPS   D3B11901  18.080   8.332   7.061  0.2283  0.0213 -0.0853
  812YOPS   C4B11902  18.094   7.982   6.901 -0.0611 -0.2951  0.0134
  813YOPS   CNO11903   4.041  15.333   5.089 -0.1605  0.0322 -0.0396
  813YOPS   PO411904   3.734  15.530   5.402  0.0672 -0.1196  0.2324
  813YOPS   GL111905   3.474  15.312   5.748  0.0522  0.0223  0.2739
  813YOPS   GL211906   3.159  15.544   5.801 -0.2193 -0.0880 -0.3024
  813YOPS   C1A11907   3.252  15.124   6.088  0.0087 -0.0177 -0.1208
  813YOPS   D2A11908   3.354  14.998   6.390  0.1927  0.3594  0.0583
  813YOPS   C3A11909   3.279  15.080   6.751 -0.1375 -0.1939 -0.0608
  813YOPS   C4A11910   3.690  14.960   6.959  0.0147 -0.1968 -0.2679
  813YOPS   C1B11911   3.082  15.591   6.208 -0.0767 -0.0974  0.3386
  813YOPS   C2B11912   3.108  15.513   6.628 -0.1624  0.0002 -0.1473
  813YOPS   D3B11913   3.037  15.382   7.080 -0.2418  0.2833  0.2810
  813YOPS   C4B11914   3.418  15.225   7.360 -0.2526 -0.0146  0.2168
  814YOPS   CNO11915   2.975   7.543   5.744  0.3055 -0.2454  0.0408
  814YOPS   PO411916   2.763   7.280   5.542 -0.1124 -0.1732 -0.0037
  814YOPS   GL111917   2.767   7.166   6.012 -0.0690  0.0913 -0.0114
  814YOPS   GL211918   2.512   7.199   6.257  0.1344 -0.4506  0.1175
  814YOPS   C1A11919   2.994   7.304   6.314  0.1585  0.1115 -0.2088
  814YOPS   D2A11920   2.977   7.389   6.724 -0.2052  0.1116  0.2994
  814YOPS   C3A11921   3.015   7.443   7.095 -0.0054 -0.1895 -0.1181
  814YOPS   C4A11922   2.723   7.593   7.358  0.0417  0.1075  0.0176
  814YOPS   C1B11923   2.352   7.284   6.694 -0.1687 -0.1461 -0.1099
  814YOPS   C2B11924   2.519   7.276   7.023 -0.1494  0.3124  0.0212
  814YOPS   D3B11925   2.784   7.095   7.383  0.0873 -0.3068  0.1343
  814YOPS   C4B11926   2.553   6.867   7.687 -0.0975 -0.1314 -0.3788
  815YOPS   CNO11927  18.015   1.666   6.053 -0.3925 -0.0031  0.1797
  815YOPS   PO411928  18.268   1.432   5.861  0.0109  0.0153  0.1202
  815YOPS   GL111929  18.316   1.379   6.384  0.2068 -0.0851  0.0535
  815YOPS   GL211930  18.060   1.513   6.633 -0.1284  0.0047 -0.0775
  815YOPS   C1A11931  18.390   1.137   6.778  0.1075 -0.2134 -0.3117
  815YOPS   D2A11932  18.358   1.236   7.248  0.1411 -0.4759  0.2903
  815YOPS   C3A11933  18.310   1.031   7.610 -0.0883  0.1303  0.1649
  815YOPS   C4A11934  18.486   1.167   8.012  0.1814 -0.2042  0.0960
  815YOPS   C1B11935  17.937   1.634   7.027  0.1463  0.0579 -0.1993
  815YOPS   C2B11936  17.723   1.827   7.225  0.1201 -0.1475 -0.0308
  815YOPS   D3B11937  17.383   1.819   7.494  0.0742 -0.0757  0.1179
  815YOPS   C4B11938  17.096   2.196   7.470 -0.0418 -0.1599 -0.0024
  816YOPS   CNO11939   0.929   7.225   5.041  0.2106  0.2953 -0.1551
  816YOPS   PO411940   1.113   6.946   5.415  0.0519 -0.3832 -0.1625
  816YOPS   GL111941   1.265   7.125   5.898  0.0404  0.1333 -0.4325
  816YOPS   GL211942   1.025   7.269   6.081  0.1608  0.2266 -0.1835
  816YOPS   C1A11943   1.432   7.058   6.254 -0.3562 -0.0748 -0.2836
  816YOPS   D2A11944   1.437   6.867   6.586 -0.0885  0.1116 -0.1798
  816YOPS   C3A11945   1.595   6.851   7.080  0.2066 -0.0638 -0.1205
  816YOPS   C4A11946   1.710   6.842   7.538  0.2186 -0.1949 -0.2418
  816YOPS   C1B11947   0.950   7.639   6.421  0.1687  0.0382  0.1246
  816YOPS   C2B11948   1.061   7.958   6.683 -0.1653  0.2261  0.0724
  816YOPS   D3B11949   0.830   8.234   7.012  0.1794  0.1607 -0.0676
  816YOPS   C4B11950   0.719   8.614   6.917  0.0539  0.0391 -0.0934
  817YOPS   CNO11951   6.935   3.758   5.071 -0.4657 -0.0734  0.0179
  817YOPS   PO411952   7.044   3.968   5.483 -0.0441  0.3362  0.0285
  817YOPS   GL111953   7.278   3.800   5.800 -0.0150  0.1368 -0.0719
  817YOPS   GL211954   7.466   3.499   5.851 -0.0543  0.1631 -0.1348
  817YOPS   C1A11955   7.389   3.941   6.201  0.2792 -0.1675 -0.0243
  817YOPS   D2A11956   7.224   3.951   6.732  0.0604  0.1737  0.3451
  817YOPS   C3A11957   7.134   3.823   7.163 -0.1864  0.1302 -0.2883
  817YOPS   C4A11958   6.756   3.480   7.082  0.5501  0.0543 -0.0877
  817YOPS   C1B11959   7.481   3.447   6.295  0.2135  0.0236 -0.0449
  817YOPS   C2B11960   7.587   3.278   6.755  0.2280  0.0523 -0.1010
  817YOPS   D3B11961   7.414   3.432   7.186 -0.0570  0.2071  0.2365
  817YOPS   C4B11962   7.515   3.318   7.569 -0.2458  0.1056 -0.1333
  818YOPS   CNO11963   4.798   9.564   5.675 -0.0243  0.2951 -0.1628
  818YOPS   PO411964   5.106   9.322   5.918 -0.0479 -0.2576  0.1264
  818YOPS   GL111965   5.050   9.135   6.328 -0.1022  0.2950  0.2995
  818YOPS   GL211966   4.887   8.894   6.211  0.1289  0.0816 -0.1440
  818YOPS   C1A11967   5.102   9.189   6.694 -0.1198  0.0720  0.0842
  818YOPS   D2A11968   5.119   9.223   7.123  0.1226  0.2078 -0.2223
  818YOPS   C3A11969   5.041   9.530   7.415 -0.3424  0.0171  0.1893
  818YOPS   C4A11970   4.699   9.604   7.700 -0.1785 -0.1124  0.3341
  818YOPS   C1B11971   4.733   8.813   6.654 -0.2183 -0.1446 -0.3943
  818YOPS   C2B11972   4.700   8.900   7.096 -0.1485 -0.1032  0.2115
  818YOPS   D3B11973   4.413   8.925   7.413 -0.0239 -0.3419 -0.1788
  818YOPS   C4B11974   4.167   8.518   7.599  0.0018 -0.0038 -0.0336
  819YOPS   CNO11975   3.448  14.188   5.080  0.1979  0.0033 -0.3244
  819YOPS   PO411976   3.662  13.844   5.080  0.0469 -0.0998 -0.0561
  819YOPS   GL111977   3.403  13.665   5.450 -0.1872  0.0450 -0.1269
  819YOPS   GL211978   3.538  13.456   5.622  0.0069  0.0838 -0.0076
  819YOPS   C1A11979   3.153  13.750   5.868 -0.0076 -0.2596  0.2209
  819YOPS   D2A11980   2.930  13.991   6.083 -0.1568  0.2681 -0.1377
  819YOPS   C3A11981   2.845  14.147   6.562  0.0455 -0.0535 -0.1050
  819YOPS   C4A11982   3.175  14.081   6.841  0.1645  0.0837 -0.1023
  819YOPS   C1B11983   3.464  13.391   6.060 -0.0475 -0.3181  0.0064
  819YOPS   C2B11984   3.264  13.414   6.594 -0.0369  0.0099  0.3793
  819YOPS   D3B11985   3.188  13.512   7.076 -0.3136 -0.0854  0.3307
  819YOPS   C4B11986   3.554  13.735   7.197 -0.2332  0.2051  0.0249
  820YOPS   CNO11987   2.653   5.763   5.600  0.1618  0.2006 -0.1548
  820YOPS   PO411988   2.426   5.537   5.749 -0.4304  0.0311 -0.2143
  820YOPS   GL111989   2.372   5.509   6.250 -0.1916  0.0713  0.2229
  820YOPS   GL211990   2.057   5.527   6.339  0.1051  0.1661 -0.1435
  820YOPS   C1A11991   2.398   5.313   6.710 -0.2697  0.2274  0.5481
  820YOPS   D2A11992   2.518   5.297   7.194 -0.0322  0.0609 -0.0315
  820YOPS   C3A11993   2.365   4.948   7.496 -0.0736 -0.2355 -0.0981
  820YOPS   C4A11994   2.409   4.510   7.392  0.0035  0.1295  0.2692
  820YOPS   C1B11995   2.205   5.817   6.557 -0.2300  0.2482 -0.2146
  820YOPS   C2B11996   2.325   5.801   6.977  0.1639 -0.0681 -0.2952
  820YOPS   D3B11997   2.446   5.767   7.460 -0.0508 -0.1257 -0.3111
  820YOPS   C4B11998   2.775   5.398   7.654 -0.0862  0.2596 -0.2406
  821YOPS   CNO11999   7.389  12.339   5.495  0.0207  0.0627  0.1925
  821YOPS   PO412000   7.040  12.042   5.540 -0.1258  0.3323  0.0150
  821YOPS   GL112001   7.150  11.925   5.923  0.1943 -0.2560 -0.1054
  821YOPS   GL212002   7.215  11.618   5.954 -0.2914 -0.0645 -0.0900
  821YOPS   C1A12003   7.171  12.131   6.315 -0.4394  0.0896 -0.1103
  821YOPS   D2A12004   7.177  12.300   6.696 -0.0887  0.0035 -0.1404
  821YOPS   C3A12005   7.000  12.368   7.090 -0.1170 -0.1617  0.1618
  821YOPS   C4A12006   7.311  12.326   7.451  0.1886 -0.1481 -0.1693
  821YOPS   C1B12007   7.238  11.622   6.363 -0.2330 -0.1236  0.2664
  821YOPS   C2B12008   7.416  11.529   6.732  0.0738 -0.2241 -0.0449
  821YOPS   D3B12009   7.069  11.526   7.015  0.0210 -0.1543  0.0015
  821YOPS   C4B12010   7.068  11.599   7.465 -0.2296 -0.1402 -0.3411
  822YOPS   CNO12011  11.106  13.913   4.872 -0.2956  0.3317 -0.0022
  822YOPS   PO412012  11.028  13.795   5.260 -0.1529 -0.1563  0.2541
  822YOPS   GL112013  10.994  13.763   5.720  0.2025  0.4065  0.0584
  822YOPS   GL212014  11.189  13.869   5.826 -0.0997  0.0780  0.0114
  822YOPS   C1A12015  10.870  13.536   6.091 -0.1460 -0.0462 -0.0989
  822YOPS   D2A12016  10.812  13.485   6.479  0.1051  0.1579 -0.3145
  822YOPS   C3A12017  10.915  13.514   6.944 -0.0716  0.0873 -0.0227
  822YOPS   C4A12018  11.338  13.410   7.082 -0.0623  0.0185  0.1392
  822YOPS   C1B12019  11.225  13.892   6.206 -0.0309  0.0899  0.1991
  822YOPS   C2B12020  11.219  13.723   6.603 -0.0736 -0.1884 -0.0039
  822YOPS   D3B12021  11.333  13.896   7.014  0.0048  0.0259  0.0856
  822YOPS   C4B12022  11.019  14.172   7.177 -0.1391  0.3510  0.1623
  823YOPS   CNO12023   0.918  10.370   5.413 -0.1671  0.1433 -0.2042
  823YOPS   PO412024   0.697  10.348   5.780  0.1597 -0.1311 -0.1618
  823YOPS   GL112025   0.868  10.506   6.108  0.0345  0.0513 -0.2761
  823YOPS   GL212026   0.846  10.953   6.139 -0.1893 -0.0006 -0.1683
  823YOPS   C1A12027   1.300  10.585   6.291  0.1215  0.0825 -0.1762
  823YOPS   D2A12028   1.456  10.448   6.668 -0.0119  0.2958 -0.0155
  823YOPS   C3A12029   1.342  10.535   7.131  0.1593 -0.2434  0.1792
  823YOPS   C4A12030   1.175  10.941   7.142 -0.4114 -0.0505  0.2328
  823YOPS   C1B12031   0.681  11.016   6.601 -0.0881 -0.1642 -0.4296
  823YOPS   C2B12032   0.668  11.160   7.002 -0.1468 -0.0344 -0.0690
  823YOPS   D3B12033   0.722  11.108   7.428 -0.0099 -0.4801  0.1193
  823YOPS   C4B12034   0.485  10.751   7.607  0.0906 -0.0492 -0.0098
  824YOPS   CNO12035  12.187  11.282   4.929 -0.0336 -0.1622 -0.0043
  824YOPS   PO412036  12.398  11.662   5.054  0.1373 -0.1992 -0.1071
  824YOPS   GL112037  12.358  11.858   5.495  0.0093 -0.0860 -0.1508
  824YOPS   GL212038  12.075  12.018   5.565 -0.1841  0.0243  0.1403
  824YOPS   C1A12039  12.528  11.763   5.873 -0.1480 -0.0621  0.4597
  824YOPS   D2A12040  12.729  11.551   6.219 -0.0118 -0.2609 -0.1364
  824YOPS   C3A12041  12.654  11.225   6.565 -0.0761  0.1475 -0.0684
  824YOPS   C4A12042  13.022  11.141   6.741 -0.3284 -0.1828  0.0225
  824YOPS   C1B12043  12.046  11.759   5.932  0.0455  0.1378 -0.0441
  824YOPS   C2B12044  12.245  11.427   6.134 -0.0889 -0.0079 -0.0844
  824YOPS   D3B12045  12.620  11.155   5.968 -0.1949  0.1420 -0.0831
  824YOPS   C4B12046  13.016  11.103   6.266  0.0442  0.0887  0.0830
  825YOPS   CNO12047   8.836   9.471   5.744  0.0998 -0.1056  0.0121
  825YOPS   PO412048   9.260   9.503   5.921 -0.2435 -0.4004 -0.0402
  825YOPS   GL112049   9.069   9.401   6.205 -0.3159  0.1830 -0.2249
  825YOPS   GL212050   8.794   9.575   6.220 -0.0276 -0.3417 -0.0497
  825YOPS   C1A12051   9.154   9.222   6.583  0.3486  0.1976  0.1421
  825YOPS   D2A12052   9.159   9.138   6.983  0.3076 -0.1092 -0.0435
  825YOPS   C3A12053   8.945   9.108   7.435  0.1092 -0.1154  0.2074
  825YOPS   C4A12054   8.690   8.930   7.541  0.1092  0.1656  0.0596
  825YOPS   C1B12055   8.987   9.702   6.587  0.1125  0.1403  0.0553
  825YOPS   C2B12056   8.989   9.573   7.008  0.0557 -0.4009  0.2452
  825YOPS   D3B12057   8.931   9.701   7.448 -0.3669  0.0238  0.0246
  825YOPS   C4B12058   8.762   9.467   7.733  0.0812 -0.3218  0.2037
  826YOPS   CNO12059   3.148  12.999   5.115 -0.4805 -0.1115  0.1612
  826YOPS   PO412060   3.231  13.051   5.574  0.0897  0.2010 -0.0780
  826YOPS   GL112061   3.396  12.821   6.017  0.0178  0.1203  0.2568
  826YOPS   GL212062   3.693  12.584   5.945  0.0857  0.0215  0.3193
  826YOPS   C1A12063   3.199  13.014   6.328 -0.2530 -0.0186  0.0150
  826YOPS   D2A12064   2.978  13.090   6.778 -0.0211  0.2651  0.4243
  826YOPS   C3A12065   3.013  13.032   7.181 -0.0213  0.0485 -0.0793
  826YOPS   C4A12066   2.706  13.055   7.520 -0.0245 -0.0438  0.0610
  826YOPS   C1B12067   3.756  12.579   6.318 -0.0794  0.0355 -0.0923
  826YOPS   C2B12068   3.659  12.700   6.743  0.1804 -0.0605  0.0836
  826YOPS   D3B12069   3.498  13.100   6.968  0.0239 -0.0228  0.0951
  826YOPS   C4B12070   3.578  13.234   7.413 -0.1144 -0.0464 -0.0949
  827YOPS   CNO12071  11.772   7.749   5.569 -0.2888 -0.0113  0.1007
  827YOPS   PO412072  11.792   7.351   5.869  0.3703 -0.1739  0.0911
  827YOPS   GL112073  11.696   7.140   6.281  0.1414  0.0071  0.2063
  827YOPS   GL212074  11.499   7.415   6.403 -0.0531  0.0929  0.1909
  827YOPS   C1A12075  11.476   6.844   6.538 -0.0520  0.2264 -0.1314
  827YOPS   D2A12076  11.581   6.618   6.819  0.1817  0.0777 -0.0033
  827YOPS   C3A12077  11.834   6.633   7.228  0.0049  0.0438 -0.2258
  827YOPS   C4A12078  11.969   6.213   7.345  0.0857 -0.1267 -0.0177
  827YOPS   C1B12079  11.482   7.242   6.799  0.0019 -0.0817  0.0565
  827YOPS   C2B12080  11.412   6.914   7.252  0.1710  0.2467 -0.0684
  827YOPS   D3B12081  11.357   6.704   7.536  0.3322 -0.1807  0.1827
  827YOPS   C4B12082  11.036   6.480   7.616 -0.0468 -0.0444 -0.0366
  828YOPS   CNO12083   4.911   6.251   5.405 -0.0606 -0.2624  0.0264
  828YOPS   PO412084   4.439   6.378   5.492 -0.1543  0.1855  0.1780
  828YOPS   GL112085   4.594   6.305   5.950 -0.1751  0.2203 -0.1779
  828YOPS   GL212086   4.946   6.248   5.961 -0.1659 -0.1080  0.0120
  828YOPS   C1A12087   4.564   6.175   6.422  0.3171  0.0496 -0.2218
  828YOPS   D2A12088   4.785   6.238   6.697 -0.0711  0.0083  0.2820
  828YOPS   C3A12089   4.797   6.445   7.091 -0.0143  0.0966  0.2004
  828YOPS   C4A12090   4.867   6.212   7.494  0.0361  0.3174 -0.4408
  828YOPS   C1B12091   4.887   6.539   6.312 -0.3791 -0.0629  0.2093
  828YOPS   C2B12092   5.059   6.940   6.462  0.2529 -0.1662 -0.0299
  828YOPS   D3B12093   5.051   7.289   6.684 -0.1269 -0.5288 -0.1526
  828YOPS   C4B12094   4.972   7.354   7.093 -0.0421  0.0500 -0.2544
  829YOPS   CNO12095   0.151   2.486   5.402 -0.0822 -0.2610 -0.1251
  829YOPS   PO412096  -0.061   2.413   5.652  0.0964  0.0983 -0.0661
  829YOPS   GL112097  -0.151   2.427   6.077  0.0557  0.0563 -0.1084
  829YOPS   GL212098  -0.006   2.147   6.330 -0.1602  0.0250  0.0279
  829YOPS   C1A12099  -0.271   2.528   6.527  0.4524 -0.2112 -0.2473
  829YOPS   D2A12100  -0.183   2.852   6.889  0.0525  0.2132 -0.0962
  829YOPS   C3A12101   0.031   2.722   7.213 -0.1266 -0.2579 -0.0977
  829YOPS   C4A12102   0.122   2.782   7.652 -0.7123  0.0798  0.2543
  829YOPS   C1B12103   0.124   2.278   6.711  0.2136 -0.3372 -0.0037
  829YOPS   C2B12104  -0.108   2.317   6.989 -0.1759  0.2618 -0.3544
  829YOPS   D3B12105  -0.109   2.343   7.472  0.2248 -0.1814 -0.1478
  829YOPS   C4B12106  -0.044   2.010   7.682  0.0009 -0.2102  0.2621
  830YOPS   CNO12107   4.475   5.790   6.069  0.2994  0.0101  0.0220
  830YOPS   PO412108   4.140   5.492   5.847  0.1420 -0.0518  0.2277
  830YOPS   GL112109   3.970   5.791   6.252 -0.1949  0.5448  0.3088
  830YOPS   GL212110   3.752   6.010   6.391  0.3875  0.2750 -0.0186
  830YOPS   C1A12111   4.197   5.877   6.484 -0.1820 -0.1823 -0.0850
  830YOPS   D2A12112   4.398   5.933   6.931 -0.0264 -0.0476 -0.0771
  830YOPS   C3A12113   4.740   5.897   7.162  0.1377  0.0744 -0.2390
  830YOPS   C4A12114   5.181   5.955   7.081 -0.1858  0.2148  0.1493
  830YOPS   C1B12115   3.872   5.954   6.800  0.0960 -0.1593 -0.2878
  830YOPS   C2B12116   4.004   5.886   7.227 -0.2370 -0.1980 -0.4025
  830YOPS   D3B12117   3.815   6.037   7.484  0.1488  0.2916 -0.1871
  830YOPS   C4B12118   3.961   6.374   7.483  0.3918 -0.3510 -0.0485
  831YOPS   CNO12119   3.289  10.590   5.456  0.2540 -0.0462 -0.1053
  831YOPS   PO412120   3.103  10.588   5.867 -0.1085  0.3892 -0.2701
  831YOPS   GL112121   3.106  10.423   6.206 -0.1022  0.2485 -0.0891
  831YOPS   GL212122   3.413  10.265   6.122  0.0207 -0.0326 -0.2532
  831YOPS   C1A12123   2.984  10.464   6.606  0.1112 -0.0262 -0.0830
  831YOPS   D2A12124   3.021  10.475   7.044 -0.1202 -0.2792 -0.0987
  831YOPS   C3A12125   3.071  10.355   7.422  0.1307 -0.0424 -0.1225
  831YOPS   C4A12126   2.957  10.576   7.837  0.0216  0.1412  0.1748
  831YOPS   C1B12127   3.551  10.542   6.397 -0.1825 -0.2735 -0.1546
  831YOPS   C2B12128   3.498  10.614   6.803  0.2848  0.0941  0.1010
  831YOPS   D3B12129   3.565  10.447   7.174 -0.1644  0.1711 -0.2524
  831YOPS   C4B12130   3.747  10.678   7.506 -0.1883  0.1610 -0.2075
  832YOPS   CNO12131   2.046   6.340   5.072  0.0628  0.0698 -0.3232
  832YOPS   PO412132   1.744   6.273   5.416 -0.0329  0.0824 -0.0219
  832YOPS   GL112133   1.802   6.421   5.869 -0.0199 -0.3292 -0.3237
  832YOPS   GL212134   1.684   6.161   6.023 -0.0080 -0.2332  0.1602
  832YOPS   C1A12135   1.809   6.684   6.276  0.1817  0.3386  0.0269
  832YOPS   D2A12136   2.239   6.720   6.431 -0.0653  0.0714 -0.1053
  832YOPS   C3A12137   2.298   6.732   6.838 -0.2672  0.3199 -0.0300
  832YOPS   C4A12138   2.072   6.686   7.192 -0.1643  0.0516  0.0993
  832YOPS   C1B12139   1.750   6.009   6.441  0.1423 -0.2143 -0.1952
  832YOPS   C2B12140   1.725   5.960   6.943 -0.0433 -0.1348  0.1314
  832YOPS   D3B12141   1.927   5.846   7.287 -0.2387 -0.1325  0.3826
  832YOPS   C4B12142   2.038   5.992   7.672 -0.2061  0.0865  0.1274
  833YOPS   CNO12143  18.079  13.823   5.087  0.0872  0.0183 -0.1492
  833YOPS   PO412144  18.099  13.614   5.519  0.1383  0.1860  0.1993
  833YOPS   GL112145  18.187  13.788   5.865  0.2045 -0.0209 -0.0563
  833YOPS   GL212146  17.931  13.625   5.979 -0.0170  0.0808 -0.3484
  833YOPS   C1A12147  18.313  13.970   6.294  0.1704  0.0927  0.3913
  833YOPS   D2A12148  18.232  14.199   6.633  0.2234  0.0901 -0.1125
  833YOPS   C3A12149  18.164  14.495   6.739 -0.1169  0.0637  0.2022
  833YOPS   C4A12150  18.184  14.390   7.155  0.2406  0.3915 -0.0480
  833YOPS   C1B12151  17.781  13.839   6.286 -0.0225 -0.3086 -0.0086
  833YOPS   C2B12152  17.524  13.778   6.656  0.2028 -0.0521  0.0502
  833YOPS   D3B12153  17.079  13.660   6.589  0.0975 -0.1474  0.3441
  833YOPS   C4B12154  16.650  13.916   6.728  0.1682 -0.3587  0.2368
  834YOPS   CNO12155   7.703  12.189   4.792  0.1584  0.2350  0.1611
  834YOPS   PO412156   7.896  12.283   5.279  0.0879 -0.0277  0.1822
  834YOPS   GL112157   7.898  12.459   5.665  0.0143 -0.1696 -0.0579
  834YOPS   GL212158   8.080  12.389   5.831 -0.0615  0.2574  0.3272
  834YOPS   C1A12159   7.614  12.465   6.017 -0.0948 -0.1281  0.1163
  834YOPS   D2A12160   7.559  12.426   6.424  0.0986 -0.2082  0.0992
  834YOPS   C3A12161   7.604  12.456   6.877  0.1024  0.0761  0.0445
  834YOPS   C4A12162   7.867  12.672   7.182  0.2014 -0.4498 -0.3010
  834YOPS   C1B12163   8.113  12.427   6.186  0.0748 -0.0703 -0.0770
  834YOPS   C2B12164   8.086  12.430   6.527 -0.1425  0.1613  0.1917
  834YOPS   D3B12165   8.068  12.289   6.855  0.2557 -0.0117 -0.1820
  834YOPS   C4B12166   8.096  12.284   7.324  0.1619  0.0442  0.1056
  835YOPS   CNO12167  13.268   3.596   5.656  0.2425 -0.1471  0.0487
  835YOPS   PO412168  12.885   3.681   5.638  0.3362 -0.1476  0.2264
  835YOPS   GL112169  12.990   3.738   6.054 -0.0510  0.1145  0.2415
  835YOPS   GL212170  13.190   3.508   6.156 -0.1526 -0.0450  0.1057
  835YOPS   C1A12171  12.855   3.731   6.473 -0.3349 -0.1293  0.2253
  835YOPS   D2A12172  12.986   3.672   6.868  0.1458  0.1696 -0.1678
  835YOPS   C3A12173  12.965   3.811   7.362  0.1505 -0.1241 -0.3443
  835YOPS   C4A12174  13.331   4.014   7.579  0.2613  0.1275 -0.0850
  835YOPS   C1B12175  13.263   3.349   6.506 -0.0156 -0.2421 -0.1758
  835YOPS   C2B12176  13.305   3.310   6.990 -0.1510 -0.0300 -0.1991
  835YOPS   D3B12177  12.996   3.215   7.327 -0.2754 -0.0976 -0.0481
  835YOPS   C4B12178  12.804   3.489   7.727  0.3466  0.1791  0.0487
  836YOPS   CNO12179   8.593   6.334   5.515 -0.0621 -0.4067  0.0229
  836YOPS   PO412180   8.769   6.405   5.874  0.0001 -0.1741  0.3187
  836YOPS   GL112181   8.820   6.501   6.287 -0.2100 -0.1346  0.0130
  836YOPS   GL212182   9.069   6.723   6.452  0.1092  0.1498 -0.0548
  836YOPS   C1A12183   8.560   6.801   6.489  0.0906  0.1355  0.1049
  836YOPS   D2A12184   8.204   6.828   6.686 -0.1859 -0.2246  0.0141
  836YOPS   C3A12185   8.127   6.830   7.100  0.1407 -0.0371  0.2047
  836YOPS   C4A12186   8.542   6.585   7.263 -0.0842  0.0160  0.1742
  836YOPS   C1B12187   8.987   6.605   6.908  0.2297 -0.1657  0.0213
  836YOPS   C2B12188   9.087   6.467   7.340  0.0735 -0.2558  0.1214
  836YOPS   D3B12189   9.174   6.317   7.695 -0.2617 -0.0416 -0.1017
  836YOPS   C4B12190   9.037   5.961   7.876 -0.1056 -0.3256 -0.1395
  837YOPS   CNO12191   7.963   4.749   5.549  0.1338  0.0201 -0.1411
  837YOPS   PO412192   7.621   4.584   5.413  0.2001  0.1262 -0.0197
  837YOPS   GL112193   7.717   4.529   5.921 -0.1569  0.1413 -0.0029
  837YOPS   GL212194   7.710   4.331   6.004  0.2117  0.3198 -0.1278
  837YOPS   C1A12195   7.704   4.754   6.341 -0.1239 -0.1773  0.2426
  837YOPS   D2A12196   7.853   4.711   6.762  0.3728 -0.1526 -0.0672
  837YOPS   C3A12197   7.952   4.678   7.213  0.2050 -0.1160  0.0555
  837YOPS   C4A12198   7.702   4.611   7.478  0.0786 -0.1191 -0.0703
  837YOPS   C1B12199   7.626   4.308   6.435 -0.0764 -0.1649  0.1483
  837YOPS   C2B12200   7.570   4.322   6.847 -0.1280 -0.0814 -0.0407
  837YOPS   D3B12201   7.504   4.201   7.191 -0.1616 -0.2830  0.0232
  837YOPS   C4B12202   7.292   4.206   7.534 -0.2997 -0.0946 -0.0395
  838YOPS   CNO12203   2.791   6.763   5.552  0.0972  0.2528 -0.0170
  838YOPS   PO412204   2.444   6.541   5.795  0.0386 -0.0965 -0.0019
  838YOPS   GL112205   2.625   6.709   6.089  0.0251  0.1140  0.1447
  838YOPS   GL212206   2.835   6.510   6.106 -0.0462  0.0417 -0.0684
  838YOPS   C1A12207   2.804   6.889   6.546 -0.0190  0.1406 -0.0125
  838YOPS   D2A12208   2.724   6.836   6.938  0.0456  0.3071 -0.2834
  838YOPS   C3A12209   2.691   6.613   7.228 -0.0510 -0.2142 -0.2385
  838YOPS   C4A12210   2.365   6.236   7.197  0.2127 -0.0859  0.0125
  838YOPS   C1B12211   2.994   6.373   6.548  0.1844  0.0035 -0.2281
  838YOPS   C2B12212   3.073   6.377   6.947  0.1655 -0.0531 -0.0316
  838YOPS   D3B12213   3.165   6.245   7.310  0.0441  0.0005 -0.1550
  838YOPS   C4B12214   3.251   6.211   7.712 -0.0185 -0.1427  0.0463
  839YOPS   CNO12215  12.215   9.240   5.107 -0.6009 -0.0876 -0.1062
  839YOPS   PO412216  12.351   9.163   5.523  0.0457  0.0291 -0.3308
  839YOPS   GL112217  12.344   9.347   6.075 -0.0251 -0.0373 -0.1002
  839YOPS   GL212218  12.684   9.433   6.076  0.0284 -0.0781  0.3869
  839YOPS   C1A12219  12.029   9.363   6.329  0.1410  0.4280  0.0186
  839YOPS   D2A12220  11.876   9.273   6.728 -0.1813 -0.1987 -0.0354
  839YOPS   C3A12221  12.010   9.282   7.061  0.3177  0.0708 -0.0525
  839YOPS   C4A12222  12.415   9.296   6.947 -0.2567 -0.0533  0.0933
  839YOPS   C1B12223  13.109   9.449   6.350 -0.0372  0.3606 -0.4156
  839YOPS   C2B12224  13.304   9.204   6.702  0.1450  0.0635 -0.1859
  839YOPS   D3B12225  13.310   9.159   7.107  0.2351 -0.2613 -0.1449
  839YOPS   C4B12226  13.360   9.484   7.425 -0.1301 -0.0104 -0.3544
  840YOPS   CNO12227   4.893   0.463   5.206  0.3199  0.0402 -0.0276
  840YOPS   PO412228   5.189   0.215   5.520  0.2141 -0.1177  0.2491
  840YOPS   GL112229   5.534   0.274   5.918  0.0222 -0.0669  0.1480
  840YOPS   GL212230   5.709   0.522   5.896 -0.0313  0.1206  0.2248
  840YOPS   C1A12231   5.579   0.145   6.307  0.1252  0.0855  0.2527
  840YOPS   D2A12232   5.746   0.149   6.831  0.1063  0.2019  0.0003
  840YOPS   C3A12233   5.870   0.216   7.269 -0.3412 -0.0533 -0.1910
  840YOPS   C4A12234   6.205   0.198   7.512 -0.3684 -0.1262 -0.1286
  840YOPS   C1B12235   5.432   0.864   6.086 -0.2469 -0.1547 -0.2037
  840YOPS   C2B12236   5.223   1.236   6.248  0.2479  0.0086 -0.0107
  840YOPS   D3B12237   5.109   1.539   6.513 -0.1634 -0.2764  0.1826
  840YOPS   C4B12238   5.312   1.956   6.708  0.0696  0.0465  0.1539
  841POPE   NH312239  14.670   4.189   5.539  0.0481 -0.0885  0.2501
  841POPE   PO412240  15.147   4.310   5.425 -0.1153 -0.1234 -0.0899
  841POPE   GL112241  15.080   4.449   5.849 -0.0996  0.0399  0.0638
  841POPE   GL212242  15.431   4.368   5.910 -0.1227 -0.1519  0.3708
  841POPE   C1A12243  14.736   4.601   6.139  0.0518 -0.1986 -0.0328
  841POPE   D2A12244  14.480   4.778   6.473 -0.1582  0.0934 -0.1573
  841POPE   C3A12245  14.146   5.043   6.442  0.0285  0.1125  0.2489
  841POPE   C4A12246  14.040   5.389   6.292 -0.0190 -0.0659 -0.0426
  841POPE   C1B12247  15.265   4.597   6.350 -0.1764  0.1038  0.1267
  841POPE   C2B12248  14.899   4.541   6.679 -0.0762  0.2020 -0.1526
  841POPE   C3B12249  14.521   4.436   6.874 -0.3338  0.1842 -0.0008
  841POPE   C4B12250  14.336   4.229   7.218  0.2568  0.0919  0.1859
  842POPE   NH312251  17.434  11.992   5.582  0.2038 -0.3629 -0.0818
  842POPE   PO412252  17.523  12.365   5.612  0.1150 -0.1961 -0.0613
  842POPE   GL112253  17.693  12.350   6.032 -0.5129  0.0983 -0.0420
  842POPE   GL212254  18.036  12.352   6.131  0.0347 -0.0406 -0.1953
  842POPE   C1A12255  17.546  12.441   6.441  0.0284 -0.2626  0.0348
  842POPE   D2A12256  17.573  12.430   6.837  0.2663  0.1057 -0.2681
  842POPE   C3A12257  17.495  12.694   7.140  0.0630  0.1659 -0.0972
  842POPE   C4A12258  17.684  12.944   7.337  0.1976 -0.1506 -0.0993
  842POPE   C1B12259  18.018  12.594   6.490  0.2224 -0.0482 -0.0441
  842POPE   C2B12260  18.065  12.641   6.891  0.2288 -0.1705 -0.0833
  842POPE   C3B12261  18.174  12.853   7.353 -0.1345  0.1168 -0.0147
  842POPE   C4B12262  17.965  12.728   7.720 -0.0879  0.2954 -0.0262
  843POPE   NH312263  15.563  14.586   5.695  0.0108  0.0100 -0.0401
  843POPE   PO412264  15.076  14.679   5.609 -0.0970 -0.1832  0.0004
  843POPE   GL112265  15.153  14.656   6.008 -0.2614  0.2065  0.2085
  843POPE   GL212266  14.879  14.524   6.111 -0.0167 -0.0392 -0.0626
  843POPE   C1A12267  15.148  14.826   6.442  0.1354 -0.0129 -0.0473
  843POPE   D2A12268  14.956  14.830   6.737  0.0817 -0.2789  0.3706
  843POPE   C3A12269  15.006  14.393   6.818 -0.1912 -0.1638  0.0056
  843POPE   C4A12270  14.996  14.024   6.546  0.0446  0.2170 -0.5005
  843POPE   C1B12271  14.571  14.591   6.458  0.1283 -0.2337 -0.0293
  843POPE   C2B12272  14.463  14.607   6.922 -0.2246  0.0896 -0.0606
  843POPE   C3B12273  14.412  14.806   7.287 -0.5316 -0.1291 -0.1600
  843POPE   C4B12274  14.490  15.016   7.725 -0.1431 -0.0454  0.1286
  844POPE   NH312275  18.094   5.426   5.251 -0.0565 -0.0774 -0.1322
  844POPE   PO412276  18.483   5.599   5.499  0.2620 -0.0171  0.3603
  844POPE   GL112277  18.514   5.653   5.942 -0.3706 -0.4165 -0.0768
  844POPE   GL212278  18.230   5.812   6.163  0.0379 -0.0540  0.0934
  844POPE   C1A12279  18.526   5.467   6.447 -0.0869 -0.3191  0.1406
  844POPE   D2A12280  18.536   5.374   6.848  0.1310  0.2286 -0.1751
  844POPE   C3A12281  18.559   5.603   7.215  0.0523 -0.2825  0.0533
  844POPE   C4A12282  18.489   5.721   7.562  0.0811 -0.0745 -0.0532
  844POPE   C1B12283  18.227   5.875   6.606 -0.1013 -0.2722 -0.1014
  844POPE   C2B12284  18.204   5.753   6.934  0.0070  0.2345  0.0991
  844POPE   C3B12285  18.002   5.779   7.314  0.2059 -0.1028  0.0277
  844POPE   C4B12286  18.045   5.546   7.734  0.1484 -0.0899  0.1547
  845POPE   NH312287  11.225   0.190   5.702 -0.1951  0.0593  0.1356
  845POPE   PO412288  11.226   0.637   5.687 -0.0455  0.2710 -0.0658
  845POPE   GL112289  11.260   0.787   6.124  0.0530 -0.1700 -0.0354
  845POPE   GL212290  11.235   1.142   6.093 -0.1137  0.1722 -0.1357
  845POPE   C1A12291  11.299   0.624   6.558 -0.2504  0.0447  0.1905
  845POPE   D2A12292  11.293   0.459   6.928 -0.2441  0.0405 -0.0746
  845POPE   C3A12293  11.517   0.516   7.377 -0.1474  0.1734 -0.0425
  845POPE   C4A12294  11.726   0.098   7.504  0.1803  0.0318 -0.1661
  845POPE   C1B12295  11.162   1.086   6.556  0.0389  0.0186 -0.1586
  845POPE   C2B12296  11.233   1.048   6.873  0.2819 -0.1993  0.1770
  845POPE   C3B12297  11.281   0.906   7.197  0.1424  0.1126 -0.3187
  845POPE   C4B12298  11.127   1.038   7.627 -0.3585  0.1574 -0.0246
  846POPE   NH312299  15.516   1.432   5.482  0.2149 -0.0708  0.4384
  846POPE   PO412300  15.504   1.079   5.563 -0.2029 -0.1131 -0.0600
  846POPE   GL112301  15.650   0.922   5.967 -0.0446 -0.3633  0.3919
  846POPE   GL212302  16.006   0.946   5.998  0.3148 -0.0723 -0.0746
  846POPE   C1A12303  15.492   0.911   6.333  0.0925  0.1047  0.2615
  846POPE   D2A12304  15.489   0.938   6.706  0.0465  0.2734 -0.1184
  846POPE   C3A12305  15.220   0.677   6.977 -0.0574 -0.0914 -0.0243
  846POPE   C4A12306  15.054   0.813   7.334 -0.0439  0.0421  0.1622
  846POPE   C1B12307  15.951   0.924   6.423 -0.0679 -0.1868 -0.0787
  846POPE   C2B12308  15.982   0.900   6.872 -0.1847  0.2041  0.0413
  846POPE   C3B12309  16.072   0.804   7.245  0.0666  0.0026  0.0290
  846POPE   C4B12310  16.191   0.591   7.581 -0.1969 -0.0176  0.1068
  847POPE   NH312311  10.765  15.127   5.579  0.1869 -0.2305  0.0522
  847POPE   PO412312  10.752  14.723   5.406  0.0366 -0.0788  0.1601
  847POPE   GL112313  10.894  14.635   5.790 -0.4718  0.2386 -0.0204
  847POPE   GL212314  10.975  14.923   5.965 -0.2314  0.1585 -0.2624
  847POPE   C1A12315  10.809  14.444   6.301 -0.0967 -0.0606  0.3006
  847POPE   D2A12316  11.035  14.192   6.610 -0.0188  0.0854 -0.1620
  847POPE   C3A12317  11.406  14.360   6.864  0.1199 -0.2626  0.0656
  847POPE   C4A12318  11.469  14.361   7.298 -0.1508  0.3004 -0.1175
  847POPE   C1B12319  10.782  14.925   6.400  0.0645 -0.0162 -0.0345
  847POPE   C2B12320  10.583  14.983   6.749 -0.0311 -0.0247  0.2428
  847POPE   C3B12321  10.604  15.332   7.112  0.1317 -0.0448 -0.2218
  847POPE   C4B12322  10.476  15.365   7.534 -0.1021  0.2240 -0.0278
  848POPE   NH312323  11.709   6.800   5.865  0.0011  0.3205 -0.0042
  848POPE   PO412324  11.492   6.355   5.918 -0.0226 -0.2915 -0.1719
  848POPE   GL112325  11.513   6.289   6.403  0.0329  0.0599  0.1002
  848POPE   GL212326  11.518   5.949   6.325 -0.1138 -0.0477  0.1160
  848POPE   C1A12327  11.660   6.134   6.777 -0.1449  0.0986  0.0443
  848POPE   D2A12328  11.707   5.848   7.122  0.2353  0.0295 -0.2064
  848POPE   C3A12329  11.951   5.555   7.444 -0.1384 -0.0439  0.1310
  848POPE   C4A12330  12.164   5.512   7.766 -0.0963  0.1668 -0.0665
  848POPE   C1B12331  11.434   5.657   6.639 -0.0199 -0.0993  0.2618
  848POPE   C2B12332  11.468   5.458   6.940 -0.1010 -0.0244  0.1018
  848POPE   C3B12333  11.458   5.442   7.461  0.3167 -0.1761 -0.0375
  848POPE   C4B12334  11.556   5.599   7.810  0.0518  0.4062 -0.2106
  849POPE   NH312335   9.894  16.563   5.428 -0.2369 -0.2237 -0.1652
  849POPE   PO412336   9.829  16.069   5.322  0.0675 -0.1223 -0.3252
  849POPE   GL112337   9.776  16.156   5.727  0.2134 -0.2705  0.0211
  849POPE   GL212338   9.565  16.186   5.998 -0.2217  0.2125 -0.1434
  849POPE   C1A12339  10.079  16.317   6.038 -0.4056  0.2156 -0.0148
  849POPE   D2A12340  10.521  16.398   6.158  0.0540 -0.3053 -0.0353
  849POPE   C3A12341  10.619  16.557   6.512  0.0467  0.1261  0.1126
  849POPE   C4A12342  10.549  16.942   6.619  0.0175 -0.0993  0.1204
  849POPE   C1B12343   9.350  16.030   6.415 -0.3398 -0.3235  0.0903
  849POPE   C2B12344   9.333  15.802   6.862  0.0541  0.1360  0.2406
  849POPE   C3B12345   9.352  15.622   7.267  0.1116 -0.0764  0.0902
  849POPE   C4B12346   9.517  15.510   7.640 -0.0943 -0.2514 -0.0376
  850POPE   NH312347  18.314   7.589   5.628  0.0958  0.0614 -0.1028
  850POPE   PO412348  18.223   8.024   5.634  0.1202 -0.3109  0.2477
  850POPE   GL112349  17.948   7.877   5.903  0.0829  0.0185  0.1374
  850POPE   GL212350  18.097   7.644   6.083 -0.0262 -0.0157 -0.1372
  850POPE   C1A12351  17.660   7.885   6.172 -0.1208  0.4696 -0.2240
  850POPE   D2A12352  17.529   7.499   6.397 -0.2137 -0.1621  0.1707
  850POPE   C3A12353  17.275   7.580   6.692 -0.0806  0.1579 -0.0429
  850POPE   C4A12354  17.172   7.265   7.023  0.4809 -0.0803  0.2364
  850POPE   C1B12355  17.995   7.690   6.513 -0.2896  0.1198 -0.1088
  850POPE   C2B12356  17.686   7.853   6.679 -0.1460  0.0154 -0.1327
  850POPE   C3B12357  17.650   8.035   7.121 -0.0669  0.0339  0.0257
  850POPE   C4B12358  17.766   8.323   7.473 -0.2487  0.3270  0.1832
  851POPE   NH312359   1.602   2.130   5.904  0.3726  0.0895  0.0232
  851POPE   PO412360   1.199   2.312   5.705  0.0321 -0.0225  0.2972
  851POPE   GL112361   1.254   2.380   6.159 -0.0218  0.3128 -0.1156
  851POPE   GL212362   1.163   2.016   6.216  0.0073  0.0265 -0.1546
  851POPE   C1A12363   1.133   2.341   6.599  0.1214 -0.0235 -0.1600
  851POPE   D2A12364   1.225   2.215   6.973  0.1440 -0.1052 -0.1838
  851POPE   C3A12365   1.042   2.260   7.406  0.1307  0.0018  0.0256
  851POPE   C4A12366   0.998   2.251   7.802 -0.0774  0.4823 -0.1634
  851POPE   C1B12367   1.402   1.881   6.608 -0.2275 -0.0464 -0.0104
  851POPE   C2B12368   1.716   1.804   6.848  0.0602 -0.0246  0.0066
  851POPE   C3B12369   1.986   1.685   7.213  0.2760 -0.0520 -0.3177
  851POPE   C4B12370   2.264   2.089   7.456 -0.2170  0.3278  0.0458
  852POPE   NH312371   6.907  14.987   5.384 -0.0490  0.1210 -0.0884
  852POPE   PO412372   6.711  15.389   5.480 -0.0895  0.1037  0.0690
  852POPE   GL112373   6.563  15.470   5.900  0.1379  0.1743 -0.0989
  852POPE   GL212374   6.232  15.556   6.075  0.0338  0.0846  0.0157
  852POPE   C1A12375   6.638  15.556   6.362 -0.3879  0.4913 -0.2072
  852POPE   D2A12376   6.546  15.646   6.781  0.2846 -0.0985  0.1181
  852POPE   C3A12377   6.940  15.718   6.995  0.0353 -0.1832 -0.1401
  852POPE   C4A12378   7.240  16.083   6.886  0.0099  0.2532  0.0214
  852POPE   C1B12379   5.956  15.302   6.235 -0.1100 -0.0066  0.2172
  852POPE   C2B12380   5.868  14.969   6.537 -0.0229  0.1746 -0.5690
  852POPE   C3B12381   6.035  14.924   6.932 -0.0115  0.2075  0.2251
  852POPE   C4B12382   6.188  14.759   7.332  0.1043 -0.2273 -0.1499
  853POPE   NH312383  10.307  18.529   5.563 -0.2093 -0.2297  0.1272
  853POPE   PO412384  10.263  18.059   5.441  0.0941  0.1546  0.1005
  853POPE   GL112385  10.048  18.165   5.752  0.1017  0.0319 -0.1206
  853POPE   GL212386  10.231  18.356   6.035 -0.2358 -0.2148  0.2294
  853POPE   C1A12387   9.827  18.171   6.181  0.0578 -0.0672 -0.3217
  853POPE   D2A12388   9.975  18.240   6.520 -0.0082 -0.3489  0.2239
  853POPE   C3A12389   9.646  18.126   6.928  0.2787 -0.1719  0.1035
  853POPE   C4A12390   9.313  18.025   7.259  0.1022  0.2601  0.0383
  853POPE   C1B12391  10.517  18.222   6.421 -0.3419 -0.0702 -0.1641
  853POPE   C2B12392  10.565  18.123   6.892  0.0902  0.1359 -0.0353
  853POPE   C3B12393  10.769  18.100   7.310  0.1363 -0.1932  0.1370
  853POPE   C4B12394  11.045  18.232   7.610 -0.1480 -0.0677 -0.2982
  854POPE   NH312395  16.331  14.326   5.884 -0.2516 -0.0563  0.0614
  854POPE   PO412396  15.853  14.217   5.852  0.0611  0.2083 -0.0811
  854POPE   GL112397  15.755  14.092   6.384  0.2230  0.0650 -0.1340
  854POPE   GL212398  15.480  13.854   6.541  0.2367 -0.0065  0.0089
  854POPE   C1A12399  15.535  14.429   6.614  0.2352  0.1407  0.2473
  854POPE   D2A12400  15.651  14.471   6.971  0.1293  0.0314  0.2525
  854POPE   C3A12401  15.362  14.491   7.254  0.1968  0.0596  0.1301
  854POPE   C4A12402  14.955  14.755   7.221 -0.0441  0.4109 -0.2235
  854POPE   C1B12403  15.332  14.021   6.960  0.1915 -0.2025 -0.0920
  854POPE   C2B12404  15.116  13.980   7.290  0.3410  0.1607  0.0831
  854POPE   C3B12405  14.962  14.019   7.603  0.0632  0.0440 -0.2698
  854POPE   C4B12406  15.017  13.904   8.015 -0.3936  0.1734  0.0533
  855POPE   NH312407  18.340   5.213   5.820 -0.0522 -0.2354  0.0096
  855POPE   PO412408  18.588   4.877   5.840 -0.1321 -0.0329  0.0876
  855POPE   GL112409  18.753   5.049   6.209  0.1804  0.3688 -0.2404
  855POPE   GL212410  18.877   5.393   6.159 -0.1143  0.2552  0.0291
  855POPE   C1A12411  19.021   5.046   6.604  0.1816 -0.2242  0.2562
  855POPE   D2A12412  19.099   4.900   7.026 -0.1638 -0.0141  0.0225
  855POPE   C3A12413  19.249   5.123   7.331  0.0978 -0.0980 -0.2435
  855POPE   C4A12414  19.373   5.351   7.779  0.0521 -0.0726 -0.1597
  855POPE   C1B12415  19.091   5.538   6.534 -0.3298  0.1509  0.0146
  855POPE   C2B12416  19.277   5.425   6.914  0.0807 -0.0592 -0.1425
  855POPE   C3B12417  19.655   5.337   7.170 -0.2050 -0.1120  0.0824
  855POPE   C4B12418  19.810   5.536   7.517  0.1120 -0.0555  0.2316
  856POPE   NH312419  14.707   1.930   5.538 -0.0603 -0.2041  0.1761
  856POPE   PO412420  14.608   2.331   5.704 -0.2674  0.2054  0.1221
  856POPE   GL112421  14.613   2.123   6.042  0.1090 -0.0780  0.2400
  856POPE   GL212422  14.958   2.007   6.057 -0.2774 -0.0409 -0.0298
  856POPE   C1A12423  14.585   1.994   6.394  0.1942 -0.2492  0.2708
  856POPE   D2A12424  14.292   1.814   6.772  0.2347  0.5548 -0.2109
  856POPE   C3A12425  14.219   1.403   7.030  0.3824  0.4863  0.0488
  856POPE   C4A12426  14.303   1.215   7.448  0.1026 -0.0634 -0.2766
  856POPE   C1B12427  15.193   1.795   6.450  0.1519 -0.0345  0.0171
  856POPE   C2B12428  15.394   1.812   6.909 -0.0629  0.0840 -0.0459
  856POPE   C3B12429  15.149   1.881   7.292 -0.2576  0.2536 -0.1118
  856POPE   C4B12430  14.831   2.122   7.534  0.1206  0.3644  0.0806
  857POPE   NH312431   2.576   3.736   5.543 -0.1470  0.1716  0.2051
  857POPE   PO412432   2.217   3.868   5.799 -0.1976  0.1841 -0.0266
  857POPE   GL112433   2.311   3.578   6.060  0.2361  0.1206  0.1076
  857POPE   GL212434   2.600   3.619   6.222 -0.0728  0.0736 -0.0347
  857POPE   C1A12435   2.171   3.554   6.443 -0.1248  0.1554  0.2692
  857POPE   D2A12436   1.778   3.302   6.564  0.2069 -0.1797  0.3199
  857POPE   C3A12437   1.759   3.510   6.937 -0.2494  0.2415  0.1838
  857POPE   C4A12438   1.995   3.673   7.268 -0.1992  0.1091 -0.1748
  857POPE   C1B12439   2.659   3.883   6.617 -0.1569  0.2938  0.0579
  857POPE   C2B12440   2.949   3.898   6.835  0.0768 -0.2039  0.0140
  857POPE   C3B12441   3.017   4.109   7.129 -0.0906  0.0017 -0.2994
  857POPE   C4B12442   2.687   4.109   7.490 -0.2230  0.2346  0.0052
  858POPE   NH312443  14.340   9.816   5.247  0.4275 -0.0782 -0.0897
  858POPE   PO412444  14.829   9.816   5.289  0.2611 -0.0718  0.0947
  858POPE   GL112445  15.033   9.888   5.653 -0.0577  0.0334  0.0421
  858POPE   GL212446  15.238   9.627   5.695  0.3928 -0.1049  0.2571
  858POPE   C1A12447  15.011   9.935   6.107 -0.0296 -0.0165 -0.1660
  858POPE   D2A12448  15.084   9.826   6.370 -0.1211 -0.0968  0.1569
  858POPE   C3A12449  15.186   9.484   6.583 -0.1741  0.3318 -0.3315
  858POPE   C4A12450  15.341   9.421   6.973  0.0539 -0.0571 -0.0437
  858POPE   C1B12451  15.214   9.407   6.092 -0.0488  0.0804  0.1408
  858POPE   C2B12452  15.563   9.119   6.343  0.1462 -0.3081 -0.3481
  858POPE   C3B12453  15.703   9.086   6.730  0.1590  0.1274  0.1552
  858POPE   C4B12454  15.720   8.991   7.153  0.2491 -0.0678  0.0039
  859POPE   NH312455   3.725   1.742   5.267  0.0537 -0.1863 -0.0894
  859POPE   PO412456   4.013   1.426   5.545  0.0445  0.3579 -0.1567
  859POPE   GL112457   3.636   1.512   5.746  0.0736 -0.2002  0.0096
  859POPE   GL212458   3.634   1.698   5.912  0.2454 -0.1150 -0.0965
  859POPE   C1A12459   3.380   1.138   5.917 -0.0797  0.1260 -0.3175
  859POPE   D2A12460   3.213   0.693   6.192 -0.0133 -0.3557  0.0859
  859POPE   C3A12461   2.872   0.561   6.460  0.1480  0.1073  0.0989
  859POPE   C4A12462   2.772   0.616   6.845 -0.1161 -0.1080 -0.2680
  859POPE   C1B12463   3.865   1.749   6.252  0.0153  0.0022 -0.2692
  859POPE   C2B12464   4.115   1.585   6.539  0.2240 -0.5971 -0.0639
  859POPE   C3B12465   4.082   1.365   6.897  0.2141 -0.0002  0.0947
  859POPE   C4B12466   3.870   1.108   7.269  0.1322  0.0659  0.3434
  860POPE   NH312467   5.723   0.263   5.463 -0.1045 -0.1268 -0.0496
  860POPE   PO412468   5.595  -0.170   5.685 -0.0458 -0.1510  0.0518
  860POPE   GL112469   5.315  -0.262   6.111 -0.0284 -0.1645  0.2177
  860POPE   GL212470   5.217  -0.582   6.016 -0.0520  0.0212 -0.0288
  860POPE   C1A12471   5.264  -0.258   6.536 -0.1251 -0.0123  0.0958
  860POPE   D2A12472   5.173  -0.226   7.007  0.2316  0.1423 -0.0492
  860POPE   C3A12473   5.533  -0.099   7.191  0.0412 -0.1712 -0.1324
  860POPE   C4A12474   5.807  -0.310   7.496  0.1857 -0.1490  0.0821
  860POPE   C1B12475   4.992  -0.707   6.327 -0.2134 -0.1577 -0.0706
  860POPE   C2B12476   4.906  -0.684   6.791 -0.2639 -0.0761 -0.2270
  860POPE   C3B12477   4.850  -0.995   7.082 -0.1362  0.2722  0.0096
  860POPE   C4B12478   5.052  -0.998   7.543  0.2541  0.0593 -0.2681
  861POPE   NH312479  13.132   4.744   5.369 -0.1977 -0.0288 -0.2585
  861POPE   PO412480  13.348   4.537   5.655 -0.0722  0.1110  0.2418
  861POPE   GL112481  13.239   4.465   6.019 -0.0577 -0.0650  0.1429
  861POPE   GL212482  12.949   4.265   6.129 -0.0143 -0.1215 -0.1274
  861POPE   C1A12483  13.553   4.498   6.314  0.0088  0.2423  0.2419
  861POPE   D2A12484  13.619   4.434   6.846 -0.1112 -0.1048  0.1951
  861POPE   C3A12485  13.858   4.276   7.018 -0.1157 -0.2570 -0.0042
  861POPE   C4A12486  13.762   4.125   7.374 -0.0288 -0.2030 -0.1490
  861POPE   C1B12487  13.005   4.157   6.541  0.0965 -0.0604 -0.1372
  861POPE   C2B12488  13.075   4.274   7.050 -0.1893  0.2061  0.1278
  861POPE   C3B12489  13.318   4.444   7.276 -0.0751 -0.2398 -0.0241
  861POPE   C4B12490  13.260   4.785   7.485 -0.1262 -0.0373  0.1946
  862POPE   NH312491  13.543   8.152   5.371 -0.0674 -0.0220 -0.3989
  862POPE   PO412492  13.931   8.409   5.235 -0.1012 -0.1403 -0.3378
  862POPE   GL112493  13.897   8.370   5.681  0.1464 -0.1711 -0.0123
  862POPE   GL212494  13.755   8.664   5.757  0.0984  0.1993 -0.3139
  862POPE   C1A12495  13.847   8.234   6.094 -0.3302 -0.1190 -0.2593
  862POPE   D2A12496  13.974   8.258   6.539 -0.0775  0.0917  0.0561
  862POPE   C3A12497  13.844   8.596   6.942 -0.0982  0.1994  0.2327
  862POPE   C4A12498  13.497   8.730   7.219  0.1136 -0.0953 -0.0550
  862POPE   C1B12499  13.603   8.701   6.203 -0.1204 -0.1035 -0.0315
  862POPE   C2B12500  13.622   8.829   6.593 -0.3587 -0.0792 -0.0570
  862POPE   C3B12501  13.766   9.067   6.844  0.1506 -0.0943 -0.2020
  862POPE   C4B12502  13.780   9.302   7.238  0.2305  0.0638 -0.0493
  863POPE   NH312503   8.544   8.885   5.647 -0.1644 -0.1494  0.1658
  863POPE   PO412504   8.852   8.598   5.787 -0.2594  0.0095  0.1172
  863POPE   GL112505   8.915   8.597   6.212 -0.1322  0.3081 -0.4262
  863POPE   GL212506   8.854   8.292   6.251  0.0416  0.2002 -0.2022
  863POPE   C1A12507   9.064   8.727   6.573 -0.1674 -0.2720 -0.2467
  863POPE   D2A12508   8.865   8.729   6.978 -0.0043 -0.0599 -0.0202
  863POPE   C3A12509   8.962   8.459   7.274  0.0282 -0.2146  0.2021
  863POPE   C4A12510   8.692   8.285   7.422  0.0726 -0.2989  0.0923
  863POPE   C1B12511   8.826   8.251   6.652  0.2939 -0.1271 -0.0560
  863POPE   C2B12512   8.969   8.032   6.897 -0.0062  0.2115 -0.3012
  863POPE   C3B12513   9.123   7.978   7.306 -0.1019 -0.0511  0.1846
  863POPE   C4B12514   9.478   7.762   7.429  0.2031 -0.0989  0.3335
  864POPE   NH312515   1.260   8.966   5.864 -0.5639  0.1412  0.2135
  864POPE   PO412516   0.807   8.833   5.817 -0.1576 -0.0690  0.1745
  864POPE   GL112517   0.553   8.837   6.202 -0.1984 -0.0988  0.0285
  864POPE   GL212518   0.471   9.106   6.326 -0.2898 -0.0075  0.0058
  864POPE   C1A12519   0.278   8.800   6.601 -0.1255  0.0594  0.3025
  864POPE   D2A12520   0.045   8.747   6.966 -0.3025 -0.2907  0.1322
  864POPE   C3A12521  -0.140   8.475   7.206 -0.2233 -0.1301 -0.0653
  864POPE   C4A12522  -0.375   8.397   7.503  0.0336  0.2096  0.1015
  864POPE   C1B12523   0.655   9.110   6.721  0.0211  0.2616 -0.3919
  864POPE   C2B12524   0.578   9.018   7.088 -0.0066  0.3519 -0.2769
  864POPE   C3B12525   0.438   8.653   7.348  0.2798  0.4275 -0.0932
  864POPE   C4B12526   0.206   8.593   7.642  0.0926  0.0535  0.1131
  865POPE   NH312527   6.330  10.761   5.654  0.1662 -0.0555 -0.3843
  865POPE   PO412528   6.647  10.466   5.613 -0.1352 -0.0935 -0.3980
  865POPE   GL112529   6.720  10.739   5.977  0.4381  0.2851 -0.3102
  865POPE   GL212530   6.799  11.039   5.832  0.0585 -0.2809  0.4889
  865POPE   C1A12531   6.698  10.828   6.414  0.1238 -0.1164 -0.0216
  865POPE   D2A12532   6.355  10.960   6.613  0.0572  0.2050 -0.0952
  865POPE   C3A12533   6.404  11.063   7.093 -0.2019  0.1890  0.1643
  865POPE   C4A12534   6.428  11.234   7.525  0.1749 -0.2516 -0.2383
  865POPE   C1B12535   6.939  11.236   6.169 -0.0490  0.3262 -0.0639
  865POPE   C2B12536   7.116  11.062   6.601  0.1707 -0.1994  0.3076
  865POPE   C3B12537   7.253  11.055   7.024  0.0065  0.3787  0.0136
  865POPE   C4B12538   7.345  11.126   7.440  0.2861 -0.1412  0.0785
  866POPE   NH312539   1.628  15.745   5.762 -0.1320 -0.1413  0.1813
  866POPE   PO412540   1.529  16.191   5.648 -0.1359  0.2086 -0.1005
  866POPE   GL112541   1.546  16.173   6.021  0.2726 -0.1947  0.2007
  866POPE   GL212542   1.496  16.456   6.106  0.1532 -0.1062  0.3386
  866POPE   C1A12543   1.807  15.948   6.373 -0.0649 -0.0086 -0.1022
  866POPE   D2A12544   1.785  15.627   6.742 -0.0220 -0.2488  0.0732
  866POPE   C3A12545   1.543  15.657   7.217  0.1023 -0.0459  0.1181
  866POPE   C4A12546   1.400  15.847   7.616  0.0399 -0.1215  0.4095
  866POPE   C1B12547   1.456  16.349   6.500 -0.0047  0.0165  0.0927
  866POPE   C2B12548   1.733  16.127   6.825 -0.1166  0.0276 -0.2247
  866POPE   C3B12549   1.960  16.015   7.213  0.0010  0.1474 -0.0890
  866POPE   C4B12550   2.001  15.840   7.581  0.0383 -0.0245 -0.1117
  867POPE   NH312551   1.964  13.500   5.341 -0.0339  0.0809 -0.1086
  867POPE   PO412552   2.407  13.480   5.412 -0.1711 -0.0737 -0.4487
  867POPE   GL112553   2.641  13.407   5.794  0.0865 -0.1040 -0.0895
  867POPE   GL212554   2.702  13.078   5.953 -0.0405  0.3285 -0.1868
  867POPE   C1A12555   2.898  13.478   6.187  0.1864  0.1755  0.3491
  867POPE   D2A12556   2.731  13.494   6.622  0.2268 -0.1527  0.3999
  867POPE   C3A12557   2.722  13.767   6.892  0.0223 -0.1201  0.0571
  867POPE   C4A12558   2.634  14.221   6.999 -0.3789 -0.4278 -0.2816
  867POPE   C1B12559   2.624  13.070   6.414 -0.0749  0.1945  0.0721
  867POPE   C2B12560   2.251  13.059   6.650  0.0024  0.0835  0.2285
  867POPE   C3B12561   2.072  12.717   6.967  0.0224  0.2099  0.1454
  867POPE   C4B12562   2.363  12.413   7.096  0.0191  0.4059 -0.0524
  868POPE   NH312563  15.168  18.485   5.198 -0.2423  0.0950 -0.0161
  868POPE   PO412564  15.435  18.910   5.204 -0.2398 -0.1041 -0.1287
  868POPE   GL112565  15.252  18.787   5.560  0.0870 -0.4318 -0.3669
  868POPE   GL212566  15.489  18.719   5.751 -0.2120 -0.0489 -0.2752
  868POPE   C1A12567  14.962  18.766   5.845 -0.0198 -0.3048 -0.3011
  868POPE   D2A12568  14.897  19.086   6.201 -0.0572  0.0158  0.3713
  868POPE   C3A12569  14.877  19.008   6.690 -0.0921  0.3916  0.0593
  868POPE   C4A12570  14.723  19.301   6.972  0.0174 -0.0144 -0.0721
  868POPE   C1B12571  15.621  18.730   6.189 -0.1079 -0.4092 -0.1339
  868POPE   C2B12572  15.705  18.715   6.658 -0.6455 -0.0557  0.2067
  868POPE   C3B12573  15.894  18.631   6.993 -0.0482  0.1775  0.1250
  868POPE   C4B12574  16.101  18.366   7.403 -0.3507 -0.1539 -0.0419
  869POPE   NH312575  12.528   3.896   5.902  0.0550 -0.2269 -0.0944
  869POPE   PO412576  12.158   4.236   5.886 -0.0353 -0.3139  0.0519
  869POPE   GL112577  12.001   4.279   6.317 -0.0934  0.2740 -0.2532
  869POPE   GL212578  11.826   4.001   6.353 -0.1916  0.1657 -0.0977
  869POPE   C1A12579  12.162   4.545   6.641 -0.1476  0.0990 -0.2685
  869POPE   D2A12580  12.044   4.717   7.012 -0.1152 -0.2938 -0.0675
  869POPE   C3A12581  12.363   4.597   7.325  0.0349 -0.0469  0.0725
  869POPE   C4A12582  12.472   4.432   7.758  0.1234 -0.1324  0.1184
  869POPE   C1B12583  11.945   4.097   6.821  0.1551 -0.0453 -0.0081
  869POPE   C2B12584  11.974   4.194   7.192 -0.3868  0.1044  0.1184
  869POPE   C3B12585  12.096   4.183   7.547 -0.3445  0.1100 -0.0334
  869POPE   C4B12586  12.145   4.082   7.944 -0.1102  0.0590  0.2649
  870POPE   NH312587  13.977  12.404   5.272 -0.0375 -0.1554 -0.0001
  870POPE   PO412588  13.561  12.390   5.172  0.1031 -0.2740  0.0475
  870POPE   GL112589  13.575  12.524   5.595 -0.1969  0.3165 -0.1236
  870POPE   GL212590  13.731  12.784   5.641 -0.2415  0.2111 -0.0815
  870POPE   C1A12591  13.615  12.490   6.059 -0.0371  0.0081 -0.3477
  870POPE   D2A12592  13.343  12.539   6.418  0.0762 -0.1153 -0.0681
  870POPE   C3A12593  13.088  12.188   6.579  0.2692  0.1129  0.0833
  870POPE   C4A12594  12.668  12.132   6.686 -0.0035 -0.0958 -0.0155
  870POPE   C1B12595  13.675  12.977   5.991  0.1996 -0.0781 -0.0761
  870POPE   C2B12596  13.752  12.947   6.435 -0.1789 -0.5043 -0.1037
  870POPE   C3B12597  13.630  12.863   6.827 -0.0395  0.4941  0.2118
  870POPE   C4B12598  13.368  12.979   7.181  0.3359 -0.4116  0.3520
  871YOPE   NH312599  11.816  14.872   5.514  0.0091  0.2597 -0.2408
  871YOPE   PO412600  12.005  14.629   5.138 -0.1062  0.1989 -0.0216
  871YOPE   GL112601  12.237  14.626   5.522  0.0507 -0.2215  0.0661
  871YOPE   GL212602  12.129  14.257   5.729 -0.1349 -0.3428  0.3188
  871YOPE   C1A12603  12.322  14.890   5.927 -0.3882  0.2321 -0.0253
  871YOPE   D2A12604  12.336  15.147   6.235 -0.2460  0.1087 -0.3022
  871YOPE   C3A12605  12.676  15.524   6.344  0.0830 -0.1384  0.3200
  871YOPE   C4A12606  13.037  15.879   6.336 -0.1230 -0.4431  0.0667
  871YOPE   C1B12607  12.216  14.458   6.075 -0.1453  0.0858  0.1340
  871YOPE   C2B12608  12.475  14.690   6.458 -0.0442  0.0762 -0.1868
  871YOPE   D3B12609  12.643  15.019   6.667 -0.4002  0.0724  0.4120
  871YOPE   C4B12610  12.835  15.221   7.028  0.0056 -0.0898  0.0842
  872YOPE   NH312611  15.760   6.612   5.412 -0.0977 -0.1352 -0.0492
  872YOPE   PO412612  15.585   7.052   5.444 -0.1469  0.2685  0.0775
  872YOPE   GL112613  15.322   7.018   5.806  0.2068 -0.2281 -0.1768
  872YOPE   GL212614  15.022   6.790   5.847 -0.0493  0.1176  0.0082
  872YOPE   C1A12615  15.202   7.039   6.286  0.1039 -0.1616 -0.1940
  872YOPE   D2A12616  14.851   7.037   6.529  0.0129  0.0509 -0.0770
  872YOPE   C3A12617  15.036   7.043   6.969  0.0848 -0.0024 -0.0053
  872YOPE   C4A12618  14.955   6.855   7.367  0.0278  0.2580 -0.1648
  872YOPE   C1B12619  15.140   6.534   6.180  0.0285 -0.3617 -0.0398
  872YOPE   C2B12620  15.097   6.565   6.605  0.1258 -0.1560 -0.0112
  872YOPE   D3B12621  15.137   6.572   6.967  0.2453  0.0655 -0.0470
  872YOPE   C4B12622  15.374   6.584   7.385 -0.2492  0.1618 -0.4631
  873YOPE   NH312623  13.675   3.421   5.433  0.1528  0.0053  0.0080
  873YOPE   PO412624  13.886   3.819   5.577 -0.1146 -0.0772 -0.3786
  873YOPE   GL112625  14.280   3.960   5.785 -0.2730  0.2564  0.2743
  873YOPE   GL212626  14.280   3.657   5.868 -0.0627  0.0016 -0.2575
  873YOPE   C1A12627  14.321   4.182   6.118 -0.0518  0.0526 -0.2538
  873YOPE   D2A12628  14.594   4.103   6.423 -0.2328 -0.2345  0.0247
  873YOPE   C3A12629  14.553   3.904   6.851 -0.0146  0.1036  0.0583
  873YOPE   C4A12630  14.598   3.809   7.221  0.1889  0.1235 -0.0821
  873YOPE   C1B12631  14.133   3.804   6.303  0.1379 -0.0127  0.0484
  873YOPE   C2B12632  14.014   3.855   6.692  0.0695  0.0622 -0.1737
  873YOPE   D3B12633  14.076   3.751   7.134 -0.2304 -0.0801  0.1509
  873YOPE   C4B12634  14.045   3.317   7.367  0.0587  0.0710  0.0372
  874YOPE   NH312635  10.219  11.764   5.678 -0.0973 -0.0116  0.2702
  874YOPE   PO412636  10.415  11.362   5.507  0.1287  0.1227  0.1254
  874YOPE   GL112637  10.422  11.135   5.924 -0.0662  0.1008 -0.0400
  874YOPE   GL212638  10.321  10.785   5.967 -0.1223 -0.1537  0.3817
  874YOPE   C1A12639  10.617  11.089   6.339 -0.1188 -0.0575 -0.2350
  874YOPE   D2A12640  10.911  11.068   6.714  0.2242 -0.1125 -0.1736
  874YOPE   C3A12641  10.894  11.229   7.088 -0.1264  0.1126  0.2090
  874YOPE   C4A12642  11.033  11.183   7.474 -0.0928 -0.0792 -0.0333
  874YOPE   C1B12643  10.240  10.692   6.315 -0.1279  0.3199 -0.1545
  874YOPE   C2B12644  10.240  10.414   6.643 -0.1135  0.1500  0.2850
  874YOPE   D3B12645  10.393  10.227   6.961 -0.3808 -0.1341  0.2366
  874YOPE   C4B12646  10.571   9.979   7.196 -0.2186  0.0523 -0.3037
  875YOPE   NH312647  16.997  10.317   5.332 -0.0160  0.1311  0.0528
  875YOPE   PO412648  16.486  10.246   5.335 -0.2574  0.0542  0.0419
  875YOPE   GL112649  16.759  10.451   5.788 -0.0324  0.2708  0.0459
  875YOPE   GL212650  17.034  10.645   5.828  0.0191  0.0118 -0.0811
  875YOPE   C1A12651  16.827  10.220   6.143  0.1774 -0.2619  0.0259
  875YOPE   D2A12652  16.712   9.843   6.276 -0.2931 -0.0015 -0.2794
  875YOPE   C3A12653  16.392   9.794   6.594  0.1986  0.0198  0.1479
  875YOPE   C4A12654  16.216   9.789   6.981  0.0131  0.1627 -0.1637
  875YOPE   C1B12655  17.418  10.796   6.063  0.0965  0.1717 -0.1665
  875YOPE   C2B12656  17.788  10.965   6.363  0.1878  0.2139 -0.2841
  875YOPE   D3B12657  17.977  10.932   6.732 -0.3343  0.2583 -0.1884
  875YOPE   C4B12658  18.179  10.957   7.182  0.1675  0.0593  0.3079
  876YOPE   NH312659   9.600   4.601   5.569 -0.0986 -0.1733  0.0028
  876YOPE   PO412660   9.169   4.632   5.744  0.0106  0.2066  0.1258
  876YOPE   GL112661   9.381   4.326   6.037  0.0995  0.2449  0.2117
  876YOPE   GL212662   9.690   4.292   6.025 -0.1145 -0.1053  0.1382
  876YOPE   C1A12663   9.284   4.092   6.321  0.0395 -0.2176  0.0326
  876YOPE   D2A12664   9.505   4.026   6.556 -0.1794 -0.3743 -0.1998
  876YOPE   C3A12665   9.447   4.006   6.983 -0.0823 -0.0665 -0.1145
  876YOPE   C4A12666   9.265   3.880   7.462 -0.1335 -0.1541 -0.0747
  876YOPE   C1B12667   9.889   4.256   6.352  0.2948  0.2675  0.0729
  876YOPE   C2B12668   9.954   4.108   6.721 -0.0859  0.0468 -0.1163
  876YOPE   D3B12669   9.887   3.976   7.185  0.0334  0.0037  0.2621
  876YOPE   C4B12670   9.872   3.793   7.540  0.1361 -0.0237 -0.4834
  877YOPE   NH312671   0.234  18.718   5.682 -0.0122  0.0670  0.1934
  877YOPE   PO412672   0.609  18.534   5.600  0.2580 -0.3826 -0.2239
  877YOPE   GL112673   0.824  18.356   5.991 -0.3694 -0.1410 -0.0272
  877YOPE   GL212674   0.739  18.157   6.254  0.1413 -0.2238 -0.0502
  877YOPE   C1A12675   0.928  18.650   6.414 -0.3359  0.2317 -0.1246
  877YOPE   D2A12676   0.916  18.717   6.752  0.1452 -0.1585 -0.0619
  877YOPE   C3A12677   0.949  18.630   7.189  0.0014  0.0262 -0.0774
  877YOPE   C4A12678   1.212  18.887   7.448  0.1243  0.4397 -0.0609
  877YOPE   C1B12679   0.488  18.398   6.509 -0.0588  0.1383 -0.2234
  877YOPE   C2B12680   0.481  18.456   6.882 -0.0164 -0.0816  0.2271
  877YOPE   D3B12681   0.436  18.280   7.290  0.1511  0.2379 -0.1482
  877YOPE   C4B12682   0.280  17.879   7.587 -0.1786  0.1000 -0.1046
  878YOPE   NH312683  18.632  17.935   5.615  0.1676 -0.0935  0.2881
  878YOPE   PO412684  18.536  18.425   5.744  0.0455  0.2125 -0.0515
  878YOPE   GL112685  18.755  18.283   6.196 -0.1660 -0.0378 -0.0150
  878YOPE   GL212686  18.741  18.532   6.308 -0.1460 -0.4082 -0.0886
  878YOPE   C1A12687  18.737  18.188   6.703 -0.1046  0.0113  0.1027
  878YOPE   D2A12688  18.685  18.029   7.070 -0.2497  0.1444 -0.0113
  878YOPE   C3A12689  18.493  18.117   7.454  0.2112  0.2374 -0.0458
  878YOPE   C4A12690  18.214  18.160   7.779 -0.1034 -0.1589 -0.1334
  878YOPE   C1B12691  18.765  18.698   6.614  0.0581  0.1517 -0.0483
  878YOPE   C2B12692  18.776  18.525   7.056 -0.0491 -0.0633 -0.2467
  878YOPE   D3B12693  18.812  18.512   7.562 -0.0550 -0.0966  0.1272
  878YOPE   C4B12694  18.649  18.445   7.846  0.0274  0.0039 -0.0200
  879YOPE   NH312695   4.360   0.442   5.223 -0.1904 -0.1054 -0.1000
  879YOPE   PO412696   4.249   0.067   5.246  0.1475 -0.2261 -0.3724
  879YOPE   GL112697   4.313   0.214   5.726  0.1296  0.0417  0.0045
  879YOPE   GL212698   4.652   0.264   5.689 -0.0270 -0.0948  0.2992
  879YOPE   C1A12699   4.413   0.310   6.169 -0.0028  0.0802 -0.0517
  879YOPE   D2A12700   4.787   0.243   6.441 -0.1476 -0.2539  0.1103
  879YOPE   C3A12701   5.143   0.192   6.679  0.0212 -0.0315  0.0355
  879YOPE   C4A12702   5.123   0.218   7.161  0.1834 -0.0875  0.1540
  879YOPE   C1B12703   4.806   0.509   6.000  0.0026  0.0169 -0.0658
  879YOPE   C2B12704   5.174   0.485   6.219  0.1419  0.0631 -0.0267
  879YOPE   D3B12705   5.460   0.583   6.527  0.2275 -0.1663 -0.1342
  879YOPE   C4B12706   5.436   1.069   6.702 -0.3294  0.2377  0.1026
  880YOPE   NH312707   8.523  15.335   5.806  0.0688 -0.1451 -0.0995
  880YOPE   PO412708   8.907  15.696   5.824  0.1474  0.0279  0.2151
  880YOPE   GL112709   9.315  15.703   6.010  0.0638 -0.3822 -0.3121
  880YOPE   GL212710   9.662  15.688   5.974 -0.1009  0.1962 -0.0010
  880YOPE   C1A12711   9.425  15.568   6.454 -0.2474  0.1878  0.1906
  880YOPE   D2A12712   9.193  15.341   6.847  0.0649  0.1080  0.2856
  880YOPE   C3A12713   9.195  14.938   6.877  0.1867 -0.1195 -0.0321
  880YOPE   C4A12714   8.931  14.674   6.915 -0.0213 -0.0528  0.3002
  880YOPE   C1B12715   9.838  15.929   6.348 -0.1189 -0.2547  0.0003
  880YOPE   C2B12716   9.855  15.824   6.767 -0.1630 -0.0681 -0.1375
  880YOPE   D3B12717   9.807  15.995   7.134 -0.2280 -0.0790  0.2000
  880YOPE   C4B12718   9.802  16.272   7.386  0.0875  0.1016  0.1590
  881YOPE   NH312719   8.040   6.169   5.387  0.1091  0.0238 -0.0599
  881YOPE   PO412720   8.006   5.837   5.827  0.0366 -0.0122 -0.2371
  881YOPE   GL112721   8.159   5.766   6.269 -0.0276  0.3254  0.1158
  881YOPE   GL212722   8.211   6.050   6.434 -0.1775 -0.2803  0.0294
  881YOPE   C1A12723   8.396   5.440   6.415  0.1888 -0.2013 -0.0477
  881YOPE   D2A12724   8.589   5.188   6.695  0.2881 -0.1989 -0.1768
  881YOPE   C3A12725   8.527   5.241   7.146  0.1181  0.0359  0.1300
  881YOPE   C4A12726   8.493   5.162   7.560 -0.0307  0.0927  0.1728
  881YOPE   C1B12727   8.511   6.299   6.611  0.0033 -0.1338  0.0652
  881YOPE   C2B12728   8.719   6.135   7.012  0.0736  0.2190  0.2304
  881YOPE   D3B12729   8.900   5.728   6.971 -0.0755 -0.0551 -0.0385
  881YOPE   C4B12730   9.271   5.636   6.851 -0.2369  0.1526 -0.0531
  882YOPE   NH312731  10.194  13.637   5.590  0.0211 -0.2347 -0.0840
  882YOPE   PO412732  10.387  13.312   5.385  0.0283  0.0907 -0.0525
  882YOPE   GL112733  10.636  13.332   5.720 -0.4595 -0.0632 -0.1649
  882YOPE   GL212734  10.443  13.422   5.952 -0.1211 -0.1858  0.0023
  882YOPE   C1A12735  10.679  13.100   6.262  0.1544  0.0763 -0.0376
  882YOPE   D2A12736  10.607  13.056   6.736 -0.0714 -0.1637  0.0319
  882YOPE   C3A12737  10.702  13.165   7.235  0.0736 -0.1643 -0.2425
  882YOPE   C4A12738  11.042  13.100   7.476 -0.1162 -0.0256 -0.2950
  882YOPE   C1B12739  10.316  13.406   6.500  0.3247  0.0313 -0.1908
  882YOPE   C2B12740  10.429  13.477   6.870  0.0868  0.1195 -0.0415
  882YOPE   D3B12741  10.531  13.828   7.206  0.2256 -0.1133  0.2138
  882YOPE   C4B12742  10.631  13.947   7.608 -0.1755  0.1731  0.0158
  883YOPE   NH312743   7.753   1.718   5.426  0.2317  0.3161 -0.1455
  883YOPE   PO412744   8.130   1.658   5.333 -0.0335  0.0911 -0.2062
  883YOPE   GL112745   8.070   1.721   5.819 -0.0539  0.0076  0.0514
  883YOPE   GL212746   7.725   1.812   5.995 -0.2338  0.2897  0.0873
  883YOPE   C1A12747   8.102   1.771   6.282  0.2581  0.0454  0.0324
  883YOPE   D2A12748   7.881   1.879   6.674  0.2544 -0.1096 -0.0755
  883YOPE   C3A12749   7.867   1.816   7.001  0.3132  0.1076 -0.1277
  883YOPE   C4A12750   7.783   2.026   7.345 -0.2082  0.0199 -0.2561
  883YOPE   C1B12751   7.452   2.011   6.270  0.0190 -0.1482 -0.2176
  883YOPE   C2B12752   7.476   2.214   6.664  0.2036 -0.0055 -0.1780
  883YOPE   D3B12753   7.517   2.365   7.122 -0.0529 -0.1362  0.0327
  883YOPE   C4B12754   7.598   2.580   7.474  0.3543 -0.1130 -0.1161
  884YOPE   NH312755  11.261  10.360   5.262  0.0680  0.0736 -0.3795
  884YOPE   PO412756  10.980  10.468   5.427  0.1008  0.1086 -0.1126
  884YOPE   GL112757  11.206  10.788   5.785 -0.0367 -0.0297 -0.2142
  884YOPE   GL212758  11.049  10.961   6.018 -0.0934 -0.1503  0.0973
  884YOPE   C1A12759  11.532  10.863   6.070  0.1975  0.0890 -0.3523
  884YOPE   D2A12760  11.788  10.673   6.396 -0.2331 -0.1487  0.0334
  884YOPE   C3A12761  11.807  10.813   6.874 -0.2183  0.0237  0.0469
  884YOPE   C4A12762  11.896  11.208   6.992  0.1460  0.3606 -0.0927
  884YOPE   C1B12763  11.279  11.187   6.417 -0.0839  0.0566  0.1085
  884YOPE   C2B12764  11.379  11.105   6.865  0.1672 -0.3271 -0.0814
  884YOPE   D3B12765  11.443  11.025   7.289  0.1832 -0.1184 -0.0845
  884YOPE   C4B12766  11.918  10.924   7.404  0.0041 -0.2091  0.0381
  885YOPE   NH312767  12.428   6.262   5.768 -0.3068  0.1006  0.0049
  885YOPE   PO412768  12.007   6.438   5.629 -0.1617  0.1107 -0.1464
  885YOPE   GL112769  12.038   6.476   6.141  0.2092 -0.4462 -0.0883
  885YOPE   GL212770  11.881   6.678   6.322  0.0966 -0.0469 -0.0687
  885YOPE   C1A12771  12.364   6.715   6.353 -0.3704  0.0760 -0.1422
  885YOPE   D2A12772  12.494   6.747   6.721  0.1788 -0.0218 -0.0655
  885YOPE   C3A12773  12.452   7.182   6.872 -0.0939 -0.3453 -0.3803
  885YOPE   C4A12774  12.559   7.589   6.669 -0.2903  0.3030  0.3073
  885YOPE   C1B12775  11.975   6.877   6.733  0.3507  0.1160 -0.0095
  885YOPE   C2B12776  11.860   7.157   7.124  0.0709  0.1967  0.1635
  885YOPE   D3B12777  11.502   7.392   7.351 -0.2606  0.0013 -0.1405
  885YOPE   C4B12778  11.331   7.723   7.574 -0.0827 -0.2999 -0.1074
  886YOPE   NH312779  16.384  15.042   5.620  0.2347  0.0760  0.1340
  886YOPE   PO412780  16.601  14.653   5.654 -0.0633  0.2172 -0.1315
  886YOPE   GL112781  16.629  14.643   6.144 -0.0665 -0.4095 -0.0422
  886YOPE   GL212782  16.588  14.407   6.355 -0.1574  0.0556 -0.2256
  886YOPE   C1A12783  16.656  14.869   6.543  0.2440  0.1035  0.0039
  886YOPE   D2A12784  16.523  15.125   6.942 -0.0061 -0.0440 -0.1155
  886YOPE   C3A12785  16.329  15.062   7.409  0.3475 -0.1042 -0.2406
  886YOPE   C4A12786  16.506  14.956   7.665  0.2744 -0.0338 -0.2066
  886YOPE   C1B12787  16.817  14.403   6.841 -0.1940 -0.3801 -0.0428
  886YOPE   C2B12788  16.748  14.196   7.125 -0.0804 -0.1036 -0.3177
  886YOPE   D3B12789  16.406  14.019   7.332  0.1306 -0.1373 -0.2374
  886YOPE   C4B12790  16.559  13.739   7.643 -0.0044  0.2242 -0.0820
  887YOPE   NH312791  15.098   7.983   5.542 -0.0182  0.1627  0.0416
  887YOPE   PO412792  14.723   7.715   5.564  0.0961  0.0921  0.0627
  887YOPE   GL112793  14.721   8.018   5.931 -0.0258  0.1660 -0.0296
  887YOPE   GL212794  15.075   8.004   6.015 -0.1294 -0.1182  0.3439
  887YOPE   C1A12795  14.411   8.301   6.316  0.4428 -0.4323 -0.0881
  887YOPE   D2A12796  14.061   8.679   6.368 -0.1422  0.2293 -0.1918
  887YOPE   C3A12797  14.159   9.086   6.510  0.2431  0.2791  0.3580
  887YOPE   C4A12798  14.289   9.499   6.708 -0.1676 -0.0887  0.2634
  887YOPE   C1B12799  15.002   7.958   6.526  0.2469  0.0766 -0.1289
  887YOPE   C2B12800  15.060   8.127   6.932  0.0245 -0.0820 -0.1054
  887YOPE   D3B12801  15.156   8.375   7.235 -0.3237 -0.1418 -0.1738
  887YOPE   C4B12802  15.301   8.611   7.673 -0.2117 -0.2798 -0.0203
  888YOPE   NH312803   3.976  11.650   5.651  0.0096  0.2734  0.0535
  888YOPE   PO412804   3.532  11.461   5.586 -0.1299  0.1391  0.0139
  888YOPE   GL112805   3.571  11.459   5.963  0.2413 -0.0097 -0.2145
  888YOPE   GL212806   3.882  11.484   6.066  0.0435  0.0190 -0.1935
  888YOPE   C1A12807   3.399  11.447   6.347 -0.0512  0.0942  0.2625
  888YOPE   D2A12808   3.391  11.555   6.789 -0.3257  0.1096  0.1700
  888YOPE   C3A12809   3.247  11.516   7.207 -0.0369  0.1358 -0.0432
  888YOPE   C4A12810   2.897  11.760   7.434 -0.4657  0.3028  0.3035
  888YOPE   C1B12811   3.963  11.566   6.457  0.1190  0.0754  0.0568
  888YOPE   C2B12812   3.901  11.667   6.884  0.1251  0.1934 -0.2362
  888YOPE   D3B12813   3.667  11.721   7.275  0.1738 -0.1326  0.0606
  888YOPE   C4B12814   3.454  11.711   7.630 -0.0940  0.1325  0.1595
  889YOPE   NH312815  18.451   6.753   5.418 -0.0619 -0.0503  0.4152
  889YOPE   PO412816  18.711   7.087   5.529  0.3793  0.1314 -0.2120
  889YOPE   GL112817  18.592   7.298   5.953  0.2846 -0.0015  0.0780
  889YOPE   GL212818  18.788   7.509   6.045  0.0116 -0.0046 -0.1159
  889YOPE   C1A12819  18.394   7.386   6.363 -0.2495  0.1997  0.0542
  889YOPE   D2A12820  18.471   7.732   6.677 -0.4428  0.0586  0.0785
  889YOPE   C3A12821  18.317   7.518   7.082 -0.1254 -0.2410 -0.2314
  889YOPE   C4A12822  18.284   7.399   7.558 -0.4174  0.0055 -0.2036
  889YOPE   C1B12823  18.864   7.455   6.501 -0.0928 -0.1074 -0.3268
  889YOPE   C2B12824  18.824   7.484   6.981 -0.0912  0.0115 -0.1305
  889YOPE   D3B12825  18.867   7.659   7.378 -0.2111 -0.1877 -0.0886
  889YOPE   C4B12826  19.151   7.638   7.597  0.1907 -0.2777 -0.0431
  890YOPE   NH312827   7.464   6.942   5.981  0.1261  0.1753  0.0438
  890YOPE   PO412828   7.746   6.693   5.858 -0.0836  0.1464 -0.1637
  890YOPE   GL112829   7.652   6.647   6.299  0.1624  0.0824  0.0720
  890YOPE   GL212830   7.686   7.026   6.474 -0.0976 -0.0263  0.0034
  890YOPE   C1A12831   7.672   6.391   6.601 -0.3970  0.3331  0.1149
  890YOPE   D2A12832   7.263   6.043   6.800 -0.0278 -0.0595 -0.0396
  890YOPE   C3A12833   7.122   6.187   7.102  0.1898 -0.1771  0.0180
  890YOPE   C4A12834   7.009   6.498   7.370 -0.5187  0.0259  0.1480
  890YOPE   C1B12835   7.645   6.953   6.885  0.0528  0.0087 -0.0276
  890YOPE   C2B12836   7.513   6.834   7.226  0.0050 -0.0764  0.0909
  890YOPE   D3B12837   7.361   6.690   7.673 -0.0935 -0.3083 -0.1778
  890YOPE   C4B12838   7.343   6.733   8.084  0.2095 -0.0512  0.2333
  891YOPE   NH312839  14.946   0.305   5.221 -0.1093 -0.1072 -0.1409
  891YOPE   PO412840  14.708  -0.068   5.247  0.0457  0.1227  0.0188
  891YOPE   GL112841  14.479  -0.157   5.589 -0.1761  0.2139  0.0717
  891YOPE   GL212842  14.313  -0.457   5.748  0.3445 -0.1959  0.1484
  891YOPE   C1A12843  14.267  -0.031   6.009  0.0754  0.0499 -0.2065
  891YOPE   D2A12844  13.975   0.131   6.296  0.2801  0.0942 -0.1297
  891YOPE   C3A12845  13.940   0.006   6.684  0.1170  0.0304  0.1709
  891YOPE   C4A12846  14.069  -0.408   6.939  0.3519 -0.1607 -0.0241
  891YOPE   C1B12847  14.593  -0.373   6.017 -0.1635 -0.2327 -0.1289
  891YOPE   C2B12848  14.650  -0.055   6.326 -0.1738  0.1010 -0.1695
  891YOPE   D3B12849  14.399   0.189   6.562 -0.1853  0.0474 -0.1170
  891YOPE   C4B12850  14.188   0.376   6.914 -0.0994 -0.0910 -0.1285
  892YOPE   NH312851   3.466   4.357   5.574 -0.4427 -0.3650 -0.0808
  892YOPE   PO412852   3.036   4.294   5.498  0.1125 -0.1746 -0.2863
  892YOPE   GL112853   3.035   4.221   5.850  0.3262  0.0381  0.1514
  892YOPE   GL212854   2.978   3.850   5.938 -0.1061  0.0784 -0.3599
  892YOPE   C1A12855   3.409   4.362   6.164  0.1442 -0.2154  0.0861
  892YOPE   D2A12856   3.708   4.441   6.470 -0.2916  0.1328 -0.2131
  892YOPE   C3A12857   3.508   4.534   6.898  0.0222 -0.2889 -0.1771
  892YOPE   C4A12858   3.818   4.787   7.149  0.3740 -0.2100  0.0926
  892YOPE   C1B12859   2.979   4.144   6.355 -0.0844  0.4734  0.3572
  892YOPE   C2B12860   3.034   4.412   6.743 -0.2303 -0.0304 -0.1264
  892YOPE   D3B12861   3.148   4.884   6.881  0.1673 -0.0825 -0.2452
  892YOPE   C4B12862   3.552   5.168   6.941 -0.2180 -0.3332 -0.0751
  893YOPE   NH312863  12.851   0.118   5.576  0.0941 -0.1162 -0.0360
  893YOPE   PO412864  12.484  -0.063   5.594  0.1747 -0.0904  0.1449
  893YOPE   GL112865  12.478   0.253   5.934 -0.3087  0.0404  0.2607
  893YOPE   GL212866  12.755   0.102   6.063 -0.0118  0.0360  0.2890
  893YOPE   C1A12867  12.628   0.550   6.216  0.1283  0.0768 -0.3571
  893YOPE   D2A12868  12.493   0.423   6.553  0.1522  0.5433  0.0159
  893YOPE   C3A12869  12.197   0.190   6.815  0.0518 -0.2911  0.1016
  893YOPE   C4A12870  12.029  -0.078   7.154 -0.0640 -0.3651 -0.0363
  893YOPE   C1B12871  12.686   0.001   6.405  0.4152  0.2435  0.2496
  893YOPE   C2B12872  12.741  -0.099   6.897  0.3917  0.2052 -0.1889
  893YOPE   D3B12873  13.115  -0.304   7.233  0.1481 -0.3287  0.2761
  893YOPE   C4B12874  13.185  -0.674   7.409 -0.2318  0.1753  0.4231
  894YOPE   NH312875   9.601   9.879   5.836 -0.0494  0.2330 -0.0209
  894YOPE   PO412876   9.457  10.303   5.845  0.0828  0.0107  0.1474
  894YOPE   GL112877   9.358  10.275   6.200 -0.0980 -0.1557  0.1053
  894YOPE   GL212878   8.956  10.300   6.255 -0.1640 -0.0861  0.2424
  894YOPE   C1A12879   9.222  10.161   6.603 -0.0991  0.0571 -0.0842
  894YOPE   D2A12880   9.167  10.029   7.009 -0.0831  0.3751 -0.0459
  894YOPE   C3A12881   8.857  10.183   7.273  0.1406 -0.1350 -0.1990
  894YOPE   C4A12882   8.521  10.242   7.545  0.1814  0.2423  0.1918
  894YOPE   C1B12883   8.644  10.124   6.323  0.0263  0.1865  0.2260
  894YOPE   C2B12884   8.253  10.120   6.610  0.2020  0.2146 -0.0576
  894YOPE   D3B12885   8.088   9.984   6.977  0.0895  0.2799  0.0492
  894YOPE   C4B12886   7.708  10.196   7.185  0.1879 -0.4837  0.1817
  895YOPE   NH312887  18.138   8.568   5.687  0.0499  0.0091  0.1417
  895YOPE   PO412888  18.129   8.930   5.914  0.1226  0.2835  0.1593
  895YOPE   GL112889  18.316   8.718   6.267  0.2800 -0.1646  0.0713
  895YOPE   GL212890  18.610   8.722   6.271 -0.1166 -0.1811 -0.1030
  895YOPE   C1A12891  18.290   8.662   6.664 -0.2305  0.3202 -0.0451
  895YOPE   D2A12892  18.176   8.792   7.069 -0.0387 -0.1497 -0.1452
  895YOPE   C3A12893  18.378   8.891   7.524  0.2343 -0.1281  0.1612
  895YOPE   C4A12894  18.671   9.053   7.812 -0.1369 -0.3413  0.0309
  895YOPE   C1B12895  18.539   9.066   6.602 -0.2781  0.0022  0.2870
  895YOPE   C2B12896  18.393   9.254   7.060 -0.0003 -0.0073  0.2061
  895YOPE   D3B12897  18.158   9.537   7.361  0.1996  0.2182 -0.2374
  895YOPE   C4B12898  17.672   9.632   7.282 -0.1958  0.2842  0.2340
  896YOPE   NH312899  15.016  17.847   5.165  0.0199  0.2191 -0.0680
  896YOPE   PO412900  15.338  17.953   5.365  0.0418  0.2197 -0.2550
  896YOPE   GL112901  15.321  18.168   5.772  0.2994  0.1676 -0.0176
  896YOPE   GL212902  15.615  18.050   5.954  0.0400 -0.0607 -0.1090
  896YOPE   C1A12903  15.157  18.394   6.079  0.2204  0.1081 -0.0796
  896YOPE   D2A12904  15.129  18.670   6.425 -0.1074 -0.1713  0.2077
  896YOPE   C3A12905  14.999  18.520   6.894 -0.1606 -0.0381 -0.1046
  896YOPE   C4A12906  14.825  18.686   7.176  0.2056 -0.4505 -0.0205
  896YOPE   C1B12907  15.381  18.158   6.405  0.0724 -0.0840 -0.0142
  896YOPE   C2B12908  15.427  18.304   6.760 -0.2416  0.0995  0.3266
  896YOPE   D3B12909  15.429  18.367   7.122  0.0543  0.0825  0.1717
  896YOPE   C4B12910  15.213  18.547   7.491  0.1438  0.2528  0.0268
  897YOPE   NH312911   9.144  10.723   5.695  0.0330 -0.0904  0.3698
  897YOPE   PO412912   9.362  11.139   5.698  0.2233  0.4024  0.2719
  897YOPE   GL112913   9.494  11.347   6.073 -0.1153  0.2710  0.2563
  897YOPE   GL212914   9.824  11.521   6.151  0.0517 -0.1999  0.1661
  897YOPE   C1A12915   9.424  11.221   6.549 -0.0106 -0.1217  0.1063
  897YOPE   D2A12916   9.409  11.323   6.915 -0.1262  0.0165 -0.1853
  897YOPE   C3A12917   9.072  11.460   7.245  0.1048  0.1046  0.2369
  897YOPE   C4A12918   8.904  11.796   7.420 -0.0820 -0.0317 -0.0928
  897YOPE   C1B12919   9.975  11.516   6.589  0.2135  0.0186  0.0283
  897YOPE   C2B12920   9.839  11.538   6.989 -0.2825  0.0840  0.0103
  897YOPE   D3B12921   9.672  11.387   7.413  0.1939  0.0728 -0.0550
  897YOPE   C4B12922   9.373  11.671   7.751  0.2762  0.1794 -0.0604
  898YOPE   NH312923  18.670  12.916   5.510  0.0036 -0.3412 -0.1368
  898YOPE   PO412924  18.346  13.200   5.797 -0.0698 -0.2644 -0.0948
  898YOPE   GL112925  18.532  13.496   6.063  0.1661  0.0220 -0.1807
  898YOPE   GL212926  18.782  13.773   5.979  0.0142  0.2529  0.2573
  898YOPE   C1A12927  18.617  13.591   6.523 -0.0908 -0.2236  0.2179
  898YOPE   D2A12928  18.621  13.883   6.859 -0.1694  0.0160  0.1715
  898YOPE   C3A12929  18.498  13.854   7.258  0.1351  0.0480 -0.0669
  898YOPE   C4A12930  18.043  13.957   7.434 -0.2282  0.1627  0.1354
  898YOPE   C1B12931  18.803  14.085   6.255 -0.0701 -0.0717 -0.2195
  898YOPE   C2B12932  18.722  14.270   6.640  0.1458  0.0815  0.2395
  898YOPE   D3B12933  18.627  14.493   7.072 -0.2854  0.2145  0.0120
  898YOPE   C4B12934  18.530  14.759   7.306  0.1249  0.0092  0.0236
  899YOPE   NH312935  15.249   4.816   5.498  0.0823  0.1188  0.3295
  899YOPE   PO412936  14.977   5.138   5.445 -0.1571 -0.1906 -0.0099
  899YOPE   GL112937  15.005   4.993   5.959 -0.2009 -0.2588  0.2302
  899YOPE   GL212938  15.400   4.919   6.018 -0.1117  0.1467 -0.0668
  899YOPE   C1A12939  14.896   5.033   6.458  0.1449 -0.0480  0.1263
  899YOPE   D2A12940  15.021   4.971   6.898 -0.1228 -0.0891 -0.3568
  899YOPE   C3A12941  14.723   4.754   7.224 -0.0923 -0.2285 -0.0024
  899YOPE   C4A12942  14.643   4.452   7.557  0.0559 -0.0240 -0.2763
  899YOPE   C1B12943  15.413   5.102   6.471  0.2034 -0.1934 -0.0045
  899YOPE   C2B12944  15.539   5.309   6.919  0.1221 -0.1874 -0.0954
  899YOPE   D3B12945  15.508   5.039   7.321 -0.0082  0.0876  0.1602
  899YOPE   C4B12946  15.591   5.154   7.800  0.0521 -0.0528  0.2980
  900YOPE   NH312947  17.056  17.050   5.662  0.0579 -0.1819 -0.0462
  900YOPE   PO412948  16.758  17.282   5.529  0.0456  0.0490  0.0154
  900YOPE   GL112949  16.688  17.427   5.945  0.0991  0.2368 -0.3967
  900YOPE   GL212950  16.803  17.265   6.223  0.2302  0.0349 -0.0359
  900YOPE   C1A12951  16.346  17.688   6.204  0.0142 -0.2504 -0.2779
  900YOPE   D2A12952  16.262  17.661   6.621 -0.0523 -0.1472  0.0201
  900YOPE   C3A12953  16.137  17.465   7.022  0.0194 -0.1110  0.0857
  900YOPE   C4A12954  15.831  17.319   7.286 -0.0314 -0.0952 -0.2729
  900YOPE   C1B12955  17.062  17.186   6.571 -0.0254 -0.2592  0.1070
  900YOPE   C2B12956  17.335  17.256   6.896 -0.1902  0.0266 -0.1910
  900YOPE   D3B12957  17.523  17.030   7.308 -0.1051  0.3015 -0.0043
  900YOPE   C4B12958  17.318  17.202   7.699  0.0847  0.0019  0.2269
  901YOPE   NH312959   4.675  16.053   5.572 -0.2902  0.2155 -0.2056
  901YOPE   PO412960   4.699  16.467   5.632  0.4080 -0.2538 -0.0020
  901YOPE   GL112961   4.585  16.347   6.018  0.1782 -0.1139 -0.1716
  901YOPE   GL212962   4.722  16.401   6.249 -0.1280  0.4066  0.3170
  901YOPE   C1A12963   4.487  15.921   6.370  0.0277 -0.0828  0.0415
  901YOPE   D2A12964   4.570  15.614   6.503 -0.2397  0.0526  0.1532
  901YOPE   C3A12965   4.581  15.471   6.905  0.0088  0.2083  0.0615
  901YOPE   C4A12966   4.384  15.374   7.302  0.0402  0.0167  0.3651
  901YOPE   C1B12967   4.553  16.228   6.775 -0.0286  0.2341 -0.0795
  901YOPE   C2B12968   4.648  15.950   7.008  0.0719 -0.0965 -0.4663
  901YOPE   D3B12969   4.853  15.814   7.372 -0.2348  0.0996 -0.0074
  901YOPE   C4B12970   5.194  15.720   7.657 -0.2311  0.1966 -0.0050
  902YOPE   NH312971  15.705  15.888   6.032 -0.1100  0.0745  0.0359
  902YOPE   PO412972  15.503  16.288   6.156 -0.0612  0.0202 -0.0526
  902YOPE   GL112973  15.566  16.214   6.494  0.1564  0.1966  0.1334
  902YOPE   GL212974  15.807  15.992   6.523  0.0469 -0.2026 -0.2956
  902YOPE   C1A12975  15.683  16.405   6.959  0.3754  0.0520  0.0597
  902YOPE   D2A12976  15.682  16.385   7.308 -0.0326  0.0095  0.0889
  902YOPE   C3A12977  16.105  16.366   7.516 -0.1494 -0.3248  0.0173
  902YOPE   C4A12978  16.435  16.200   7.641  0.1959  0.2926  0.1009
  902YOPE   C1B12979  15.669  15.876   6.976  0.0616 -0.1935  0.1939
  902YOPE   C2B12980  15.697  15.925   7.512  0.1307  0.1543  0.1745
  902YOPE   D3B12981  15.855  15.627   7.903 -0.2493 -0.0413 -0.0462
  902YOPE   C4B12982  15.713  15.361   8.089  0.1968 -0.2917 -0.0739
  903YOPE   NH312983  17.515   6.939   5.664 -0.0944  0.0361  0.0221
  903YOPE   PO412984  17.446   7.318   5.548  0.2492  0.0521  0.1485
  903YOPE   GL112985  17.656   7.332   5.907 -0.0927  0.0823 -0.1985
  903YOPE   GL212986  17.385   7.207   6.050 -0.1273  0.2864  0.1093
  903YOPE   C1A12987  17.927   7.129   6.324  0.1514 -0.0008 -0.1631
  903YOPE   D2A12988  18.033   7.219   6.768 -0.2770 -0.4325  0.1010
  903YOPE   C3A12989  17.804   7.482   7.069  0.0298  0.3094  0.0404
  903YOPE   C4A12990  17.418   7.588   7.208  0.1428 -0.0058  0.1121
  903YOPE   C1B12991  17.504   7.044   6.574 -0.0347 -0.1143  0.1111
  903YOPE   C2B12992  17.548   7.038   7.087  0.1049  0.4996  0.2554
  903YOPE   D3B12993  17.505   7.094   7.565 -0.0809 -0.1100 -0.0522
  903YOPE   C4B12994  17.309   6.880   7.874  0.0429  0.1701 -0.0336
  904YOPE   NH312995   2.796  14.418   5.182  0.1066  0.1958 -0.0758
  904YOPE   PO412996   2.900  14.849   5.140  0.1545  0.0519 -0.1927
  904YOPE   GL112997   3.153  14.679   5.532 -0.1573 -0.1307 -0.2374
  904YOPE   GL212998   3.461  14.793   5.618  0.1619  0.2410  0.4027
  904YOPE   C1A12999   3.100  14.474   5.877  0.0204 -0.1897 -0.1588
  904YOPE   D2A13000   2.962  14.542   6.251 -0.0079  0.2477 -0.1718
  904YOPE   C3A13001   3.152  14.616   6.584  0.1760 -0.0637 -0.0766
  904YOPE   C4A13002   3.435  14.598   6.877  0.1415  0.0183 -0.2781
  904YOPE   C1B13003   3.788  14.951   6.038 -0.2492 -0.0689 -0.1074
  904YOPE   C2B13004   3.808  14.943   6.346 -0.1199 -0.3062 -0.0600
  904YOPE   D3B13005   3.871  14.627   6.592 -0.2098 -0.1841 -0.3750
  904YOPE   C4B13006   3.988  14.349   7.082 -0.1235  0.0055 -0.2943
  905YOPE   NH313007   9.748   2.023   5.353 -0.1815  0.0750  0.0260
  905YOPE   PO413008   9.313   1.975   5.513  0.0517 -0.0363 -0.0843
  905YOPE   GL113009   8.919   1.853   5.652  0.1404  0.2012  0.0495
  905YOPE   GL213010   8.849   2.129   5.759 -0.1678 -0.1982 -0.1114
  905YOPE   C1A13011   8.567   1.704   5.921 -0.1040  0.0692  0.0559
  905YOPE   D2A13012   8.283   1.347   6.099  0.1053  0.1730 -0.3418
  905YOPE   C3A13013   8.179   1.406   6.591  0.1448  0.0925  0.1027
  905YOPE   C4A13014   8.226   1.478   7.074  0.1919  0.3682  0.0835
  905YOPE   C1B13015   9.047   1.929   6.155  0.0900  0.1182 -0.1785
  905YOPE   C2B13016   8.915   1.938   6.591  0.0176  0.1496  0.0635
  905YOPE   D3B13017   9.044   2.156   6.992 -0.2106 -0.3788  0.0890
  905YOPE   C4B13018   9.076   2.164   7.488 -0.3567  0.0547  0.0924
  906YOPE   NH313019   3.334  12.329   5.715  0.3292 -0.1886  0.3218
  906YOPE   PO413020   3.689  12.055   5.816 -0.2431  0.0041 -0.2709
  906YOPE   GL113021   3.627  11.936   6.235  0.0746  0.1792 -0.0343
  906YOPE   GL213022   3.160  11.799   6.075 -0.2990 -0.1565 -0.0174
  906YOPE   C1A13023   3.608  12.012   6.669 -0.1601  0.2214 -0.1442
  906YOPE   D2A13024   3.633  12.172   6.987 -0.1707 -0.0587  0.1684
  906YOPE   C3A13025   3.801  12.213   7.300  0.1454 -0.2588 -0.1651
  906YOPE   C4A13026   3.946  12.408   7.747  0.0601  0.2957  0.2316
  906YOPE   C1B13027   3.061  11.920   6.540 -0.2592  0.0729  0.0664
  906YOPE   C2B13028   3.127  11.964   6.965  0.1989 -0.1627 -0.1312
  906YOPE   D3B13029   3.192  12.159   7.394  0.1395  0.0831  0.0035
  906YOPE   C4B13030   3.429  12.251   7.667 -0.2721  0.2416  0.0245
  907YOPE   NH313031  12.909   4.240   5.630  0.2440 -0.1916 -0.2603
  907YOPE   PO413032  12.576   4.592   5.602 -0.1234  0.3291 -0.2398
  907YOPE   GL113033  12.471   4.564   6.029  0.1136  0.0881  0.1391
  907YOPE   GL213034  12.325   4.709   6.215 -0.0752 -0.1369 -0.0541
  907YOPE   C1A13035  12.719   4.601   6.457 -0.1347 -0.0803  0.2424
  907YOPE   D2A13036  13.130   4.624   6.629 -0.1746  0.0070 -0.1832
  907YOPE   C3A13037  13.284   4.851   6.961 -0.0018 -0.2388 -0.2201
  907YOPE   C4A13038  13.674   4.821   7.180  0.0182 -0.1318 -0.0795
  907YOPE   C1B13039  12.642   5.053   6.392  0.0984 -0.0260 -0.1285
  907YOPE   C2B13040  12.891   5.083   6.656 -0.0886 -0.2986 -0.2431
  907YOPE   D3B13041  12.845   5.219   7.076  0.1119 -0.1545 -0.0822
  907YOPE   C4B13042  13.061   5.254   7.442 -0.0189 -0.1799 -0.2857
  908YOPE   NH313043   3.137   8.388   5.434  0.3338 -0.1542  0.3839
  908YOPE   PO413044   3.637   8.484   5.406  0.0022  0.1542  0.0641
  908YOPE   GL113045   3.481   8.506   5.806 -0.2097 -0.0503  0.3177
  908YOPE   GL213046   3.656   8.326   5.957  0.2097  0.0057 -0.0702
  908YOPE   C1A13047   3.436   8.725   6.249  0.1548 -0.0470 -0.1215
  908YOPE   D2A13048   3.168   9.068   6.255 -0.1822 -0.0256  0.2360
  908YOPE   C3A13049   3.120   9.206   6.717  0.0853 -0.1047  0.0906
  908YOPE   C4A13050   3.130   9.358   7.137  0.1062  0.1107  0.1362
  908YOPE   C1B13051   3.390   8.170   6.284  0.1396 -0.2525 -0.4887
  908YOPE   C2B13052   2.991   8.230   6.458 -0.2174  0.1121 -0.0573
  908YOPE   D3B13053   2.865   8.336   6.849  0.1222  0.1463 -0.0322
  908YOPE   C4B13054   2.981   8.513   7.175  0.2284 -0.0111 -0.0507
  909YOPE   NH313055   2.116   0.713   5.581  0.1844 -0.1080  0.0668
  909YOPE   PO413056   1.994   0.244   5.435 -0.0729  0.0044  0.0000
  909YOPE   GL113057   2.212   0.138   5.775  0.0734  0.1097  0.1518
  909YOPE   GL213058   2.138   0.154   6.104 -0.3590  0.4121  0.1127
  909YOPE   C1A13059   2.501  -0.075   5.755 -0.1036 -0.2689  0.0987
  909YOPE   D2A13060   2.805  -0.212   6.076  0.1392 -0.3575  0.3465
  909YOPE   C3A13061   2.686  -0.453   6.404  0.1488 -0.1857  0.0082
  909YOPE   C4A13062   2.720  -0.381   6.841 -0.0741 -0.0541  0.0969
  909YOPE   C1B13063   2.344  -0.026   6.456 -0.0970  0.2960 -0.0244
  909YOPE   C2B13064   2.342  -0.135   6.969  0.0031  0.2441 -0.1386
  909YOPE   D3B13065   2.352  -0.046   7.449  0.1715  0.0737 -0.2957
  909YOPE   C4B13066   2.130   0.062   7.872 -0.0978 -0.0492  0.1116
  910YOPE   NH313067   5.251   3.721   5.847 -0.2002 -0.2901 -0.2476
  910YOPE   PO413068   5.464   3.991   5.787  0.3282  0.1782  0.2081
  910YOPE   GL113069   5.701   4.196   6.089  0.2354 -0.1155  0.2519
  910YOPE   GL213070   5.486   3.992   6.279 -0.0200 -0.0109  0.4702
  910YOPE   C1A13071   5.941   4.091   6.403 -0.3062  0.2381 -0.0661
  910YOPE   D2A13072   6.147   3.746   6.660 -0.1952  0.0735  0.1882
  910YOPE   C3A13073   6.026   3.352   6.543  0.3584 -0.2199  0.1140
  910YOPE   C4A13074   5.846   3.172   6.214  0.1200 -0.1175  0.0296
  910YOPE   C1B13075   5.665   3.712   6.597  0.0873 -0.1528 -0.1048
  910YOPE   C2B13076   5.668   3.663   6.956  0.1911  0.0181 -0.1927
  910YOPE   D3B13077   5.920   3.849   7.436  0.1055 -0.0367  0.0044
  910YOPE   C4B13078   6.273   4.116   7.599 -0.0135 -0.1399 -0.0979
  911YOPE   NH313079   1.175  13.342   5.640  0.3115 -0.2860  0.2369
  911YOPE   PO413080   1.589  13.464   5.599  0.1605 -0.2149 -0.1084
  911YOPE   GL113081   1.532  13.090   5.885 -0.0345  0.0914 -0.1799
  911YOPE   GL213082   1.784  12.836   5.978 -0.1766  0.0045  0.1142
  911YOPE   C1A13083   1.628  13.193   6.317 -0.1398  0.1707  0.0062
  911YOPE   D2A13084   1.808  13.240   6.753  0.0661 -0.1917 -0.6853
  911YOPE   C3A13085   1.941  13.177   7.121  0.1634  0.0106  0.1790
  911YOPE   C4A13086   2.269  13.233   7.395  0.2285  0.0808  0.0792
  911YOPE   C1B13087   2.111  13.099   6.147  0.4491  0.0578  0.1466
  911YOPE   C2B13088   2.169  13.500   6.431  0.1732  0.0709  0.1091
  911YOPE   D3B13089   2.289  13.546   6.813  0.0218 -0.1508 -0.0687
  911YOPE   C4B13090   2.284  13.663   7.178  0.2196 -0.0281  0.1400
  912YOPE   NH313091  10.879   6.960   5.861 -0.3590 -0.0438  0.1905
  912YOPE   PO413092  10.488   6.844   5.836 -0.1827  0.0536 -0.2665
  912YOPE   GL113093  10.718   6.809   6.286 -0.0722 -0.1631 -0.2754
  912YOPE   GL213094  10.616   7.018   6.588 -0.2199 -0.0336  0.0355
  912YOPE   C1A13095  10.976   6.667   6.584  0.0302 -0.3798  0.2817
  912YOPE   D2A13096  11.060   6.573   7.075 -0.1499  0.0665  0.2260
  912YOPE   C3A13097  11.421   6.324   7.162 -0.0695  0.2177  0.0131
  912YOPE   C4A13098  11.508   6.205   7.499 -0.0033  0.0089  0.0721
  912YOPE   C1B13099  10.208   6.916   6.733  0.2409 -0.4053  0.0428
  912YOPE   C2B13100  10.065   6.522   6.993 -0.0089 -0.1818  0.0325
  912YOPE   D3B13101   9.917   6.778   7.350  0.2494  0.1270 -0.2174
  912YOPE   C4B13102   9.932   7.036   7.658 -0.1136  0.1744  0.0841
  913YOPE   NH313103   6.588   2.570   5.300  0.1178  0.4375  0.2520
  913YOPE   PO413104   6.807   2.231   5.394 -0.0469  0.2671  0.1013
  913YOPE   GL113105   6.980   2.155   5.753 -0.0436 -0.0539  0.1294
  913YOPE   GL213106   6.667   2.001   5.949 -0.1876  0.1510  0.0133
  913YOPE   C1A13107   7.168   2.459   5.948 -0.1086  0.1827  0.0767
  913YOPE   D2A13108   7.213   2.640   6.371 -0.1541 -0.2193 -0.0410
  913YOPE   C3A13109   7.231   3.086   6.443 -0.1113 -0.0861  0.0037
  913YOPE   C4A13110   7.125   3.463   6.750  0.3086 -0.3461  0.0797
  913YOPE   C1B13111   6.980   1.911   6.179  0.0452  0.0057  0.0966
  913YOPE   C2B13112   6.987   2.086   6.568 -0.0990  0.1343 -0.0753
  913YOPE   D3B13113   7.045   2.133   7.027  0.2370  0.0070 -0.0968
  913YOPE   C4B13114   7.280   2.015   7.349  0.1167  0.1959 -0.0792
  914YOPE   NH313115  14.402   1.577   5.292 -0.0523  0.1448  0.1399
  914YOPE   PO413116  14.616   1.257   5.372  0.2508 -0.0513 -0.0287
  914YOPE   GL113117  14.613   1.379   5.795 -0.2182  0.1394 -0.2555
  914YOPE   GL213118  14.734   1.584   6.022  0.1332  0.2698  0.1837
  914YOPE   C1A13119  14.577   1.101   6.163  0.0034 -0.0021 -0.1385
  914YOPE   D2A13120  14.470   0.713   6.348 -0.2774  0.1511  0.3153
  914YOPE   C3A13121  14.062   0.574   6.497  0.0931 -0.1460 -0.1794
  914YOPE   C4A13122  13.635   0.556   6.427 -0.0899 -0.1529  0.0880
  914YOPE   C1B13123  15.054   1.300   6.267  0.0527 -0.1919 -0.0657
  914YOPE   C2B13124  15.174   1.298   6.754 -0.0197 -0.0125 -0.0984
  914YOPE   D3B13125  15.041   1.408   7.206 -0.0093 -0.0016 -0.2629
  914YOPE   C4B13126  14.839   1.299   7.514  0.3242  0.0919  0.0110
  915YOPE   NH313127   2.799  10.030   6.032 -0.0664 -0.2395 -0.1960
  915YOPE   PO413128   3.021   9.647   5.845 -0.0155 -0.1049  0.1100
  915YOPE   GL113129   3.149   9.592   6.226  0.0514  0.2938 -0.0610
  915YOPE   GL213130   3.012   9.842   6.407 -0.0334  0.2647 -0.1755
  915YOPE   C1A13131   3.492   9.622   6.445  0.0518  0.0542 -0.3066
  915YOPE   D2A13132   3.548   9.522   6.824 -0.2426 -0.2283 -0.1708
  915YOPE   C3A13133   3.581   9.111   7.146  0.0589  0.0032 -0.2916
  915YOPE   C4A13134   3.501   8.626   7.252  0.0248 -0.0369 -0.0795
  915YOPE   C1B13135   3.106   9.735   6.805 -0.0056 -0.3014  0.1521
  915YOPE   C2B13136   3.113   9.889   7.179 -0.1888  0.1622 -0.0648
  915YOPE   D3B13137   3.223   9.780   7.558  0.3160 -0.3658 -0.1845
  915YOPE   C4B13138   3.155   9.364   7.846 -0.0848  0.0256 -0.0576
  916YOPE   NH313139  11.385  14.115   5.453 -0.0588  0.1737 -0.2214
  916YOPE   PO413140  11.697  14.353   5.475  0.2746  0.1749  0.1108
  916YOPE   GL113141  11.633  14.101   5.876 -0.1116 -0.0571 -0.0866
  916YOPE   GL213142  11.869  14.009   6.093  0.2387 -0.0198 -0.0412
  916YOPE   C1A13143  11.526  14.294   6.263 -0.4242 -0.0045  0.0493
  916YOPE   D2A13144  11.683  14.584   6.587 -0.0465  0.0814  0.0212
  916YOPE   C3A13145  11.946  14.548   6.848  0.0484 -0.1409  0.2131
  916YOPE   C4A13146  12.043  14.458   7.227  0.0028 -0.0973 -0.0019
  916YOPE   C1B13147  11.926  14.134   6.485 -0.2259 -0.0834  0.2199
  916YOPE   C2B13148  11.863  14.048   6.979 -0.0353  0.1755  0.0995
  916YOPE   D3B13149  11.729  13.987   7.452 -0.2355 -0.5857 -0.1428
  916YOPE   C4B13150  11.593  13.586   7.514  0.2219  0.1761  0.2477
  917YOPE   NH313151  11.257   3.681   5.704  0.2418  0.1870  0.1668
  917YOPE   PO413152  11.592   3.451   5.757  0.0187  0.3151 -0.0097
  917YOPE   GL113153  11.621   3.513   6.154 -0.3227 -0.0364  0.0486
  917YOPE   GL213154  11.357   3.565   6.241 -0.2770  0.2105 -0.0144
  917YOPE   C1A13155  11.735   3.574   6.557  0.0833 -0.5017  0.3832
  917YOPE   D2A13156  11.743   3.635   7.023  0.2029  0.0315  0.3104
  917YOPE   C3A13157  11.515   3.491   7.451  0.0259 -0.0032  0.2481
  917YOPE   C4A13158  11.495   3.126   7.836 -0.0568 -0.0132 -0.0199
  917YOPE   C1B13159  11.289   3.477   6.746 -0.2319 -0.0659 -0.3259
  917YOPE   C2B13160  11.033   3.436   7.168 -0.3514  0.0892  0.1578
  917YOPE   D3B13161  10.955   3.476   7.590  0.2168 -0.1358  0.2137
  917YOPE   C4B13162  11.219   3.543   7.902 -0.0431  0.1660  0.1119
  918YOPE   NH313163   0.539   4.989   5.927 -0.1331 -0.2234  0.1216
  918YOPE   PO413164   0.522   5.481   5.864 -0.0909 -0.3803 -0.1343
  918YOPE   GL113165   0.556   5.740   6.162 -0.2337 -0.3059  0.0311
  918YOPE   GL213166   0.351   5.902   6.198 -0.1313 -0.0770  0.0574
  918YOPE   C1A13167   0.606   5.975   6.641  0.0569  0.0601 -0.2579
  918YOPE   D2A13168   0.627   6.152   7.091  0.1995  0.0517 -0.3543
  918YOPE   C3A13169   0.573   6.428   7.329 -0.2804 -0.0679 -0.0554
  918YOPE   C4A13170   0.807   6.566   7.763  0.1876 -0.0703  0.1767
  918YOPE   C1B13171   0.010   5.895   6.462  0.2517 -0.1024  0.0232
  918YOPE   C2B13172   0.062   5.920   6.869 -0.0952  0.2006  0.1390
  918YOPE   D3B13173   0.152   6.033   7.330  0.1414 -0.0170  0.1439
  918YOPE   C4B13174   0.439   6.140   7.691 -0.0483  0.1679 -0.0859
  919YOPE   NH313175   4.046   3.562   5.417  0.0341 -0.0896  0.0964
  919YOPE   PO413176   4.262   3.277   5.415 -0.0248  0.3737 -0.0585
  919YOPE   GL113177   4.327   3.343   5.828 -0.0079  0.0734 -0.0482
  919YOPE   GL213178   4.592   3.155   5.926 -0.1648  0.1451 -0.1986
  919YOPE   C1A13179   4.147   3.081   6.210  0.0311  0.4534  0.0956
  919YOPE   D2A13180   4.024   3.220   6.669  0.0041  0.0531  0.1385
  919YOPE   C3A13181   3.917   3.000   7.061 -0.0995 -0.0651  0.2579
  919YOPE   C4A13182   3.973   2.790   7.381  0.2612  0.1480  0.1398
  919YOPE   C1B13183   4.649   3.106   6.264 -0.0150 -0.0883 -0.0112
  919YOPE   C2B13184   4.421   2.946   6.663 -0.1981 -0.2729 -0.2782
  919YOPE   D3B13185   4.406   2.858   7.085 -0.0177  0.0936  0.0470
  919YOPE   C4B13186   4.658   2.597   7.316 -0.1830 -0.0401  0.1675
  920YOPE   NH313187  10.541  10.053   5.502 -0.0578 -0.2388  0.3735
  920YOPE   PO413188  10.469  10.530   5.580  0.2648 -0.0755 -0.0547
  920YOPE   GL113189  10.782  10.530   5.884  0.2197 -0.1023  0.2281
  920YOPE   GL213190  10.939  10.268   5.892 -0.1337 -0.2498 -0.0106
  920YOPE   C1A13191  10.853  10.625   6.298 -0.0261 -0.1532 -0.0795
  920YOPE   D2A13192  10.729  10.624   6.656  0.0244 -0.0514 -0.1585
  920YOPE   C3A13193  10.465  10.870   6.819 -0.0775  0.1249 -0.1784
  920YOPE   C4A13194  10.213  10.709   7.127 -0.1286 -0.0800 -0.2102
  920YOPE   C1B13195  11.245  10.388   6.195  0.2497 -0.0693 -0.0770
  920YOPE   C2B13196  11.266  10.536   6.693 -0.0115  0.2140 -0.2473
  920YOPE   D3B13197  11.018  10.716   7.056 -0.0225  0.0705  0.4450
  920YOPE   C4B13198  11.046  10.676   7.537 -0.1531 -0.2351  0.1355
  921YOPE   NH313199   0.654   1.144   5.265  0.1792 -0.1693 -0.4294
  921YOPE   PO413200   0.631   0.962   5.721 -0.0638 -0.1035 -0.1794
  921YOPE   GL113201   0.755   0.752   6.090 -0.1548  0.0023 -0.0760
  921YOPE   GL213202   0.904   1.003   6.151  0.0521  0.2336 -0.1754
  921YOPE   C1A13203   0.709   0.453   6.366 -0.0189 -0.1305 -0.1962
  921YOPE   D2A13204   0.449   0.187   6.512  0.1935 -0.0068 -0.1106
  921YOPE   C3A13205   0.335   0.209   6.923  0.0875  0.0913  0.0288
  921YOPE   C4A13206   0.453   0.071   7.314 -0.1978  0.0635  0.0331
  921YOPE   C1B13207   0.931   0.963   6.561 -0.1682  0.0826  0.1752
  921YOPE   C2B13208   0.789   0.522   6.834  0.0789 -0.2479  0.1775
  921YOPE   D3B13209   0.803   0.384   7.201  0.2899 -0.0279  0.3684
  921YOPE   C4B13210   0.670   0.390   7.581 -0.2009  0.0763 -0.1536
  922YOPE   NH313211  12.051   3.131   5.692  0.0705 -0.1238  0.2333
  922YOPE   PO413212  12.554   2.844   5.735 -0.1998 -0.2591 -0.2449
  922YOPE   GL113213  12.491   2.489   6.016 -0.4373 -0.3535 -0.1003
  922YOPE   GL213214  12.745   2.244   6.131 -0.0886  0.0875 -0.4131
  922YOPE   C1A13215  12.371   2.459   6.412 -0.0286  0.0950  0.2198
  922YOPE   D2A13216  12.393   2.475   6.846 -0.0889  0.2017  0.1254
  922YOPE   C3A13217  12.773   2.345   7.071 -0.1556  0.0082 -0.2629
  922YOPE   C4A13218  12.887   2.264   7.471 -0.2979 -0.2547 -0.1267
  922YOPE   C1B13219  12.857   2.414   6.539 -0.1169 -0.0589 -0.0372
  922YOPE   C2B13220  12.716   2.756   6.599  0.1077 -0.0083  0.1603
  922YOPE   D3B13221  12.675   2.969   7.052  0.1171 -0.2188  0.1844
  922YOPE   C4B13222  12.483   2.711   7.420 -0.0178 -0.0106  0.3840
  923YOPE   NH313223   0.928   3.755   6.014  0.2785 -0.2972  0.0660
  923YOPE   PO413224   1.220   3.628   5.647 -0.0203 -0.0780 -0.0685
  923YOPE   GL113225   1.271   3.422   6.024 -0.2981  0.5416 -0.0076
  923YOPE   GL213226   1.439   3.686   6.126 -0.0209 -0.4460  0.0920
  923YOPE   C1A13227   1.177   3.200   6.308 -0.0078 -0.1792 -0.1228
  923YOPE   D2A13228   1.210   3.104   6.685  0.0665  0.1584  0.0591
  923YOPE   C3A13229   1.338   3.141   7.134  0.2223  0.3587 -0.2356
  923YOPE   C4A13230   1.840   3.198   7.344 -0.1708  0.3281  0.1562
  923YOPE   C1B13231   1.362   3.602   6.574 -0.0378 -0.0105 -0.0003
  923YOPE   C2B13232   1.251   3.611   7.018 -0.2492  0.2483 -0.0114
  923YOPE   D3B13233   1.463   3.507   7.419 -0.0151  0.1405 -0.0169
  923YOPE   C4B13234   1.830   3.478   7.739  0.2358 -0.0625  0.0304
  924YOPE   NH313235  17.813  13.193   5.702  0.0742 -0.0171  0.1065
  924YOPE   PO413236  17.932  12.791   5.826  0.3368  0.4722 -0.1032
  924YOPE   GL113237  17.804  12.949   6.183 -0.1429  0.1327  0.2753
  924YOPE   GL213238  17.679  12.863   6.315  0.1332  0.0208 -0.0325
  924YOPE   C1A13239  17.885  13.385   6.374  0.0129 -0.1517 -0.0774
  924YOPE   D2A13240  18.103  13.693   6.646 -0.0738  0.0933  0.0687
  924YOPE   C3A13241  17.915  13.930   6.942 -0.1973  0.2390 -0.0968
  924YOPE   C4A13242  17.601  14.081   7.251  0.1645  0.1250 -0.0475
  924YOPE   C1B13243  17.718  12.927   6.709 -0.0562 -0.0697 -0.1361
  924YOPE   C2B13244  17.806  13.355   6.918  0.2087 -0.0152 -0.1130
  924YOPE   D3B13245  17.667  13.570   7.248  0.2109  0.1487  0.1675
  924YOPE   C4B13246  17.562  13.376   7.598  0.1844 -0.2905  0.2911
  925YOPE   NH313247   0.622  17.135   5.613 -0.1974  0.0625 -0.0026
  925YOPE   PO413248   0.967  16.919   5.537 -0.1130  0.3149 -0.1482
  925YOPE   GL113249   0.953  16.954   5.960 -0.1278 -0.2249  0.0939
  925YOPE   GL213250   1.051  17.289   6.125  0.0315 -0.1369  0.1675
  925YOPE   C1A13251   1.152  16.723   6.344  0.2734  0.2858 -0.0140
  925YOPE   D2A13252   1.560  16.824   6.473  0.0428  0.0419 -0.3612
  925YOPE   C3A13253   1.916  16.824   6.278  0.0137  0.1469  0.4725
  925YOPE   C4A13254   2.273  17.089   6.390  0.2196 -0.1046 -0.1338
  925YOPE   C1B13255   1.104  17.244   6.520 -0.1836  0.2351 -0.1841
  925YOPE   C2B13256   1.321  17.124   6.845  0.0284  0.0424 -0.1315
  925YOPE   D3B13257   1.179  16.983   7.184 -0.0964  0.0046  0.1381
  925YOPE   C4B13258   0.772  17.057   7.262  0.0022 -0.2412 -0.0568
  926YOPE   NH313259   9.902  13.321   5.168  0.0565 -0.0209  0.2161
  926YOPE   PO413260   9.726  13.757   5.377 -0.2254 -0.2226 -0.0388
  926YOPE   GL113261   9.639  13.909   5.764 -0.3293 -0.2164  0.2142
  926YOPE   GL213262  10.004  14.063   5.817 -0.3162 -0.0677 -0.2546
  926YOPE   C1A13263   9.408  13.693   6.050  0.3035 -0.2222 -0.1098
  926YOPE   D2A13264   9.393  13.826   6.487  0.1493  0.3341  0.0733
  926YOPE   C3A13265   9.283  13.603   6.867 -0.0480 -0.0598  0.0021
  926YOPE   C4A13266   9.076  13.371   7.140  0.2787 -0.1804 -0.3119
  926YOPE   C1B13267   9.795  14.105   6.204  0.0901  0.0002  0.0661
  926YOPE   C2B13268   9.736  14.103   6.648  0.0383 -0.1209 -0.0157
  926YOPE   D3B13269   9.637  14.160   7.023  0.2055  0.0905 -0.0859
  926YOPE   C4B13270   9.326  14.054   7.277 -0.2560  0.3421  0.0074
  927YOPE   NH313271  12.090  13.082   5.448  0.0381 -0.2848 -0.0861
  927YOPE   PO413272  12.269  12.715   5.191  0.0974  0.0824 -0.3380
  927YOPE   GL113273  12.294  12.593   5.605 -0.0210 -0.1405  0.2577
  927YOPE   GL213274  12.132  12.676   5.883 -0.0864  0.0658 -0.1384
  927YOPE   C1A13275  12.489  12.338   5.739  0.0330  0.0726 -0.2848
  927YOPE   D2A13276  12.551  12.281   6.108 -0.0494  0.1956 -0.0879
  927YOPE   C3A13277  12.345  11.895   6.288  0.1978 -0.0720  0.1494
  927YOPE   C4A13278  12.003  11.832   6.392  0.0421  0.0833 -0.1895
  927YOPE   C1B13279  12.242  12.701   6.280 -0.0865 -0.1404 -0.2108
  927YOPE   C2B13280  12.439  12.601   6.705 -0.1399  0.1660  0.1554
  927YOPE   D3B13281  12.662  12.526   7.069 -0.0424  0.3002  0.0856
  927YOPE   C4B13282  12.922  12.178   7.146  0.1001  0.0679 -0.2513
  928YOPE   NH313283   7.704  14.459   5.397 -0.1930 -0.1636  0.0231
  928YOPE   PO413284   7.649  13.978   5.379  0.0023  0.3389  0.1136
  928YOPE   GL113285   7.551  13.672   5.729  0.4201 -0.1484 -0.1981
  928YOPE   GL213286   7.175  13.670   5.844 -0.1550  0.1714 -0.0333
  928YOPE   C1A13287   7.620  13.846   6.104  0.0203 -0.1082  0.2830
  928YOPE   D2A13288   7.366  13.696   6.313  0.2085 -0.1034 -0.0226
  928YOPE   C3A13289   7.418  13.797   6.617  0.1556  0.2591 -0.3872
  928YOPE   C4A13290   7.776  14.036   6.698  0.1603 -0.1517 -0.0054
  928YOPE   C1B13291   6.957  13.408   6.041  0.3133 -0.0399 -0.1470
  928YOPE   C2B13292   6.910  13.420   6.459  0.2080  0.1963  0.0364
  928YOPE   D3B13293   6.801  13.209   6.777  0.0609 -0.3226  0.2529
  928YOPE   C4B13294   6.377  13.069   6.831  0.0971  0.0248 -0.0013
  929YOPE   NH313295  12.861  10.227   5.572  0.4034  0.0694  0.2552
  929YOPE   PO413296  12.520  10.610   5.392 -0.0239  0.1120  0.0269
  929YOPE   GL113297  12.591  10.605   5.858  0.3231  0.1222  0.3162
  929YOPE   GL213298  12.876  10.728   5.996 -0.1052 -0.0265 -0.0159
  929YOPE   C1A13299  12.590  10.346   6.234 -0.0186  0.0093 -0.0812
  929YOPE   D2A13300  12.373  10.146   6.589  0.2714  0.0595 -0.0242
  929YOPE   C3A13301  11.997  10.284   6.717  0.1491 -0.2554  0.1832
  929YOPE   C4A13302  12.135  10.525   7.175 -0.0976 -0.0333  0.0238
  929YOPE   C1B13303  12.829  10.672   6.498  0.2367  0.0950  0.0773
  929YOPE   C2B13304  12.661  10.434   6.913 -0.1515  0.3260  0.0766
  929YOPE   D3B13305  12.538  10.138   7.200  0.0840  0.2732 -0.2141
  929YOPE   C4B13306  12.503   9.776   7.408 -0.1269 -0.1531 -0.1855
  930YOPE   NH313307  13.056  14.514   5.484  0.0183  0.4424 -0.4182
  930YOPE   PO413308  13.439  14.329   5.546  0.0878 -0.1604  0.2908
  930YOPE   GL113309  13.350  14.589   5.855 -0.1161  0.0749  0.2303
  930YOPE   GL213310  13.103  14.406   5.973 -0.2457 -0.1934  0.1452
  930YOPE   C1A13311  13.311  14.986   5.962 -0.2010 -0.3412 -0.0661
  930YOPE   D2A13312  13.174  15.305   6.101  0.0842  0.0025  0.0466
  930YOPE   C3A13313  13.093  15.351   6.564 -0.3007  0.1504 -0.1992
  930YOPE   C4A13314  12.858  15.711   6.820  0.2303  0.3293 -0.1192
  930YOPE   C1B13315  13.050  14.329   6.467  0.0174 -0.1236 -0.0569
  930YOPE   C2B13316  12.999  14.238   6.855  0.1577 -0.2673 -0.1010
  930YOPE   D3B13317  12.658  14.260   7.161  0.0979 -0.1820  0.0891
  930YOPE   C4B13318  12.443  14.563   7.464 -0.0989 -0.0683  0.2300
  931YOPE   NH313319  12.062   0.208   5.568 -0.0232 -0.0860 -0.0961
  931YOPE   PO413320  12.092   0.664   5.600  0.0968  0.2778  0.2630
  931YOPE   GL113321  12.223   0.682   6.009 -0.1448 -0.2754  0.0982
  931YOPE   GL213322  12.129   0.423   6.228  0.1032  0.1938 -0.0091
  931YOPE   C1A13323  12.195   0.866   6.433  0.0554 -0.0324  0.0042
  931YOPE   D2A13324  12.153   0.723   6.775  0.2284  0.1547  0.3169
  931YOPE   C3A13325  12.537   0.585   6.981 -0.0929  0.1546  0.1555
  931YOPE   C4A13326  12.756   0.609   7.387 -0.0406  0.0362  0.1527
  931YOPE   C1B13327  12.194   0.022   6.351  0.0917  0.1587 -0.4261
  931YOPE   C2B13328  12.332  -0.312   6.592  0.2487  0.1927  0.0493
  931YOPE   D3B13329  12.341  -0.479   7.039 -0.0134  0.0985 -0.0635
  931YOPE   C4B13330  12.196  -0.321   7.578  0.3021  0.0261 -0.1118
  932YOPE   NH313331  10.794   2.007   5.574 -0.1678 -0.0986 -0.1997
  932YOPE   PO413332  10.695   2.463   5.641 -0.3088  0.1940 -0.0663
  932YOPE   GL113333  10.422   2.278   5.933  0.0381  0.1997 -0.0279
  932YOPE   GL213334  10.591   1.990   5.995  0.2533 -0.2900 -0.4007
  932YOPE   C1A13335  10.225   2.309   6.335 -0.1877 -0.0587 -0.1843
  932YOPE   D2A13336  10.088   2.239   6.751  0.0881 -0.2506 -0.2055
  932YOPE   C3A13337  10.267   2.195   7.217  0.0257 -0.1622 -0.3155
  932YOPE   C4A13338  10.329   2.065   7.652 -0.0807 -0.1717  0.3337
  932YOPE   C1B13339  10.414   1.815   6.456 -0.0915  0.1306  0.0622
  932YOPE   C2B13340  10.333   1.758   6.829  0.2008  0.1669  0.2614
  932YOPE   D3B13341  10.594   1.750   7.209 -0.0380  0.0642  0.0402
  932YOPE   C4B13342  10.887   1.495   7.551 -0.0316 -0.2223  0.0925
  933YOPE   NH313343  13.364   5.135   5.634 -0.2461  0.2100 -0.2600
  933YOPE   PO413344  12.890   5.099   5.564  0.1443  0.0422  0.0064
  933YOPE   GL113345  12.995   5.369   5.830 -0.0865 -0.0887  0.4613
  933YOPE   GL213346  12.787   5.496   5.962 -0.4331 -0.0290  0.3632
  933YOPE   C1A13347  13.315   5.690   6.042  0.1139 -0.1480  0.0367
  933YOPE   D2A13348  13.467   5.610   6.414  0.2472 -0.0278 -0.1454
  933YOPE   C3A13349  13.305   5.408   6.811  0.1993  0.0242  0.0233
  933YOPE   C4A13350  13.496   5.263   7.289  0.2396 -0.1268  0.0569
  933YOPE   C1B13351  12.952   5.501   6.377 -0.0752  0.1933  0.1886
  933YOPE   C2B13352  12.858   5.784   6.763 -0.0289 -0.5381  0.1328
  933YOPE   D3B13353  13.048   5.717   7.173  0.0682 -0.1580  0.1286
  933YOPE   C4B13354  13.045   5.749   7.637 -0.0528  0.1648 -0.1115
  934YOPE   NH313355  13.691   0.148   5.576  0.0040  0.1976  0.1550
  934YOPE   PO413356  13.747   0.527   5.833 -0.0174 -0.0326 -0.1363
  934YOPE   GL113357  13.809   0.881   6.037  0.1560 -0.3326  0.0715
  934YOPE   GL213358  14.080   0.976   6.100  0.0481 -0.0329 -0.0007
  934YOPE   C1A13359  13.657   1.073   6.438 -0.2088  0.0968 -0.0567
  934YOPE   D2A13360  13.248   0.988   6.755  0.1359 -0.1168 -0.0436
  934YOPE   C3A13361  13.295   0.882   7.154 -0.1726 -0.1132 -0.1152
  934YOPE   C4A13362  13.233   0.649   7.460 -0.0878 -0.0612  0.1357
  934YOPE   C1B13363  14.184   1.110   6.569 -0.0995  0.3338  0.1577
  934YOPE   C2B13364  14.251   0.918   6.850 -0.1460  0.1693 -0.2209
  934YOPE   D3B13365  14.262   0.747   7.202 -0.1286  0.0090  0.0509
  934YOPE   C4B13366  14.172   0.278   7.429  0.0427 -0.2007  0.0015
  935YOPE   NH313367   5.875   7.447   5.506 -0.2154 -0.0623  0.0691
  935YOPE   PO413368   6.018   7.898   5.665  0.3729  0.0935 -0.0161
  935YOPE   GL113369   6.266   8.200   5.912  0.0688  0.2240 -0.0160
  935YOPE   GL213370   6.585   8.220   6.046  0.1081 -0.1366  0.1246
  935YOPE   C1A13371   6.198   8.609   6.040 -0.1436  0.1913 -0.4682
  935YOPE   D2A13372   6.245   8.889   6.370 -0.0369 -0.0719  0.1246
  935YOPE   C3A13373   6.165   8.693   6.780  0.0865 -0.0912  0.0056
  935YOPE   C4A13374   6.049   8.822   7.184 -0.1261 -0.0983 -0.2530
  935YOPE   C1B13375   6.436   8.265   6.425  0.2328  0.2518 -0.0297
  935YOPE   C2B13376   6.415   8.282   6.809  0.1185 -0.0996 -0.0445
  935YOPE   D3B13377   6.373   8.361   7.126  0.2347  0.0338  0.0125
  935YOPE   C4B13378   6.397   8.539   7.585 -0.0030 -0.0501  0.3245
  936YOPE   NH313379  10.459   6.388   6.022 -0.1749 -0.0370 -0.0230
  936YOPE   PO413380  10.873   6.459   5.853  0.0399 -0.0361 -0.2011
  936YOPE   GL113381  10.982   6.292   6.224  0.1334  0.2201  0.1218
  936YOPE   GL213382  10.733   6.126   6.349  0.2279 -0.0834 -0.2411
  936YOPE   C1A13383  11.121   6.208   6.662 -0.0663 -0.2098 -0.0475
  936YOPE   D2A13384  11.198   5.897   7.057  0.1408  0.0609 -0.1512
  936YOPE   C3A13385  10.906   5.535   7.138 -0.0453 -0.0252 -0.0323
  936YOPE   C4A13386  10.873   5.183   7.151 -0.1081 -0.0718  0.0029
  936YOPE   C1B13387  10.761   5.717   6.698  0.0694 -0.0827  0.3504
  936YOPE   C2B13388  11.015   5.334   6.680 -0.0030  0.1036 -0.3750
  936YOPE   D3B13389  11.116   4.934   6.551 -0.0829 -0.1934  0.0114
  936YOPE   C4B13390  11.288   4.736   6.369  0.1832 -0.0376 -0.0126
  937YOPE   NH313391  10.921  11.553   5.337  0.1591 -0.0148  0.1424
  937YOPE   PO413392  10.754  11.858   5.584  0.2421  0.1245 -0.1032
  937YOPE   GL113393  10.784  11.960   5.935 -0.1588  0.0805 -0.0007
  937YOPE   GL213394  10.563  11.747   6.043  0.0820  0.1651 -0.0447
  937YOPE   C1A13395  11.126  12.164   6.205 -0.0755  0.5284 -0.2393
  937YOPE   D2A13396  11.070  12.278   6.579  0.0104 -0.1426  0.1912
  937YOPE   C3A13397  11.308  12.015   6.841 -0.0281  0.1886  0.3422
  937YOPE   C4A13398  11.220  11.609   7.119  0.0005  0.4793  0.2394
  937YOPE   C1B13399  10.409  11.517   6.308  0.3745 -0.0595 -0.2199
  937YOPE   C2B13400  10.447  11.391   6.714  0.0565  0.0080 -0.0985
  937YOPE   D3B13401  10.529  11.601   7.206  0.5251 -0.0399  0.0836
  937YOPE   C4B13402  10.557  11.381   7.655  0.1030  0.0603  0.2503
  938YOPE   NH313403  15.729  10.196   4.940 -0.1020  0.0413  0.2189
  938YOPE   PO413404  15.720  10.346   5.377  0.0479 -0.0298  0.1307
  938YOPE   GL113405  15.832  10.634   5.742 -0.1835 -0.1097  0.0179
  938YOPE   GL213406  16.115  10.475   5.811  0.0484 -0.1518 -0.0134
  938YOPE   C1A13407  15.992  10.936   6.069 -0.0140 -0.0347  0.0309
  938YOPE   D2A13408  15.797  11.192   6.435  0.0271 -0.0270  0.3663
  938YOPE   C3A13409  15.802  11.125   6.780 -0.1256  0.0581 -0.0376
  938YOPE   C4A13410  15.951  11.368   7.125 -0.2397  0.1059 -0.1451
  938YOPE   C1B13411  16.255  10.510   6.132  0.1214  0.0185 -0.0918
  938YOPE   C2B13412  16.080  10.745   6.591 -0.0624  0.0997  0.1074
  938YOPE   D3B13413  16.282  10.808   7.000 -0.2296 -0.2547 -0.0592
  938YOPE   C4B13414  16.453  11.049   7.420 -0.0523 -0.0544  0.1074
  939YOPE   NH313415  10.385   0.346   5.521 -0.0421 -0.0803  0.1493
  939YOPE   PO413416  10.392   0.776   5.586  0.0078  0.0926 -0.2702
  939YOPE   GL113417  10.350   0.664   5.964 -0.3193  0.1925  0.3032
  939YOPE   GL213418  10.216   0.943   6.097 -0.0401  0.0234  0.0405
  939YOPE   C1A13419  10.144   0.437   6.323  0.0002 -0.0437  0.0024
  939YOPE   D2A13420  10.127   0.369   6.734  0.3073  0.2358  0.1917
  939YOPE   C3A13421   9.824   0.470   7.008 -0.3046 -0.1404  0.0936
  939YOPE   C4A13422   9.664   0.227   7.283 -0.2384 -0.2355 -0.2434
  939YOPE   C1B13423  10.032   0.872   6.454 -0.0691  0.1537 -0.1126
  939YOPE   C2B13424   9.903   0.929   6.842  0.2187  0.0535  0.0074
  939YOPE   D3B13425   9.797   1.015   7.217 -0.0378 -0.2303 -0.2977
  939YOPE   C4B13426   9.613   0.685   7.557 -0.0058 -0.0937  0.1340
  940YOPE   NH313427   7.201   7.937   5.939 -0.1621  0.0689  0.2258
  940YOPE   PO413428   7.073   8.267   5.659  0.0354  0.0050  0.2908
  940YOPE   GL113429   7.125   8.399   6.091 -0.0432  0.1274  0.1323
  940YOPE   GL213430   7.424   8.251   6.349  0.2228  0.2057 -0.0959
  940YOPE   C1A13431   6.900   8.233   6.496 -0.1800  0.1147 -0.0995
  940YOPE   D2A13432   6.868   8.176   6.985 -0.0758 -0.0876 -0.0716
  940YOPE   C3A13433   6.851   8.518   7.340 -0.3250  0.2080  0.0677
  940YOPE   C4A13434   6.818   8.717   7.810  0.2046  0.0392 -0.0714
  940YOPE   C1B13435   7.309   8.042   6.762  0.1196 -0.0595 -0.0225
  940YOPE   C2B13436   7.364   7.919   7.182  0.1009 -0.3225  0.1150
  940YOPE   D3B13437   7.264   7.642   7.551 -0.0442  0.1266 -0.0524
  940YOPE   C4B13438   7.336   7.595   7.980  0.1757  0.0960 -0.0896
  941POPC   NC313439   5.047   1.873   5.143 -0.0741 -0.0761 -0.2225
  941POPC   PO413440   4.857   1.610   5.418  0.0724  0.1797 -0.1793
  941POPC   GL113441   4.941   1.687   5.860  0.1130  0.0127  0.0432
  941POPC   GL213442   5.275   1.766   6.073 -0.0271  0.0560 -0.3488
  941POPC   C1A13443   4.751   1.430   6.225 -0.1950  0.0079  0.2500
  941POPC   D2A13444   4.873   0.885   6.303  0.0918 -0.0088 -0.1239
  941POPC   C3A13445   5.047   0.693   6.710 -0.1450 -0.0908 -0.0448
  941POPC   C4A13446   5.093   0.921   7.088  0.1511 -0.1503 -0.1104
  941POPC   C1B13447   5.545   2.086   6.259  0.0542 -0.1449  0.1813
  941POPC   C2B13448   5.815   2.094   6.551  0.0571  0.1158 -0.1831
  941POPC   C3B13449   5.823   1.981   6.960 -0.2384 -0.0544  0.0265
  941POPC   C4B13450   5.826   2.037   7.393 -0.1900 -0.4623 -0.1770
  942POPC   NC313451  10.469   4.080   5.829 -0.0804 -0.1819 -0.1145
  942POPC   PO413452  10.843   4.093   5.772  0.1871  0.0717  0.2922
  942POPC   GL113453  10.876   4.314   6.165  0.1276  0.0822  0.0406
  942POPC   GL213454  10.575   4.219   6.249  0.0918  0.0619  0.2922
  942POPC   C1A13455  10.808   4.481   6.587  0.2156 -0.1346 -0.1058
  942POPC   D2A13456  10.919   4.499   6.966  0.2542  0.1070  0.1965
  942POPC   C3A13457  10.912   4.327   7.273  0.0932 -0.0993 -0.1104
  942POPC   C4A13458  11.036   4.317   7.752 -0.0384  0.0057 -0.3288
  942POPC   C1B13459  10.407   3.958   6.599 -0.0823 -0.0898  0.1351
  942POPC   C2B13460  10.346   3.779   6.977 -0.2850  0.1149  0.1726
  942POPC   C3B13461  10.349   3.552   7.495  0.1944 -0.1804  0.3347
  942POPC   C4B13462  10.587   3.460   7.924 -0.0949 -0.1397 -0.0879
  943POPC   NC313463   1.095  12.566   5.336  0.1574 -0.0156  0.1107
  943POPC   PO413464   1.092  12.823   5.734 -0.1869 -0.3449  0.1218
  943POPC   GL113465   1.070  12.913   6.174  0.2110  0.1523 -0.1985
  943POPC   GL213466   1.109  13.297   6.236 -0.1348 -0.3536  0.1237
  943POPC   C1A13467   0.873  12.562   6.406  0.0441 -0.0622  0.0349
  943POPC   D2A13468   0.758  12.225   6.703 -0.3785 -0.2869 -0.1218
  943POPC   C3A13469   0.578  12.165   7.083  0.0650 -0.0654 -0.1966
  943POPC   C4A13470   0.334  11.962   7.266 -0.0604  0.0769  0.0681
  943POPC   C1B13471   1.291  13.615   6.532 -0.0440 -0.0910 -0.2671
  943POPC   C2B13472   1.462  13.723   7.030  0.0341 -0.2430  0.0221
  943POPC   C3B13473   1.768  13.673   7.370 -0.3273 -0.0434 -0.0622
  943POPC   C4B13474   1.973  13.351   7.788  0.1894  0.1324 -0.0801
  944POPC   NC313475  15.716   5.901   5.506  0.2089 -0.2718  0.0538
  944POPC   PO413476  15.893   6.211   5.768  0.0650 -0.1431  0.3163
  944POPC   GL113477  15.573   6.145   6.169  0.0312  0.1024  0.1517
  944POPC   GL213478  15.315   5.837   6.114  0.3634  0.2246 -0.2831
  944POPC   C1A13479  15.385   6.106   6.624 -0.1611 -0.0499  0.0858
  944POPC   D2A13480  15.492   5.801   6.971  0.0040 -0.1499  0.1546
  944POPC   C3A13481  15.546   5.551   7.324 -0.1036  0.0142  0.2480
  944POPC   C4A13482  15.871   5.345   7.407 -0.1705 -0.0248  0.2365
  944POPC   C1B13483  15.525   5.605   6.402  0.3051  0.1229  0.0061
  944POPC   C2B13484  15.883   5.570   6.710 -0.0749  0.0344  0.1196
  944POPC   C3B13485  16.210   5.464   7.020  0.3343  0.0663  0.0142
  944POPC   C4B13486  16.781   5.317   7.051  0.3121 -0.1204 -0.0056
  945POPC   NC313487  15.731   9.435   5.594  0.3607 -0.1986 -0.1520
  945POPC   PO413488  16.159   9.550   5.583 -0.0716  0.1884  0.0202
  945POPC   GL113489  15.970   9.562   5.973  0.2156 -0.0692  0.1470
  945POPC   GL213490  15.990   9.311   6.173 -0.2554 -0.0263  0.0378
  945POPC   C1A13491  15.605   9.576   6.302 -0.0709 -0.1915 -0.2320
  945POPC   D2A13492  15.767   9.652   6.760 -0.0158  0.2349  0.0157
  945POPC   C3A13493  15.599  10.035   6.970 -0.2535 -0.0107  0.1079
  945POPC   C4A13494  15.169   9.941   6.911  0.2025 -0.1455 -0.3406
  945POPC   C1B13495  16.032   8.905   6.319  0.1769 -0.0291 -0.1471
  945POPC   C2B13496  16.078   8.788   6.747 -0.0106  0.1944  0.1461
  945POPC   C3B13497  16.164   8.803   7.220  0.1061  0.0932  0.2176
  945POPC   C4B13498  16.111   8.962   7.558  0.0085 -0.0568  0.0203
  946POPC   NC313499  15.275   6.036   5.634 -0.1022 -0.2182 -0.0839
  946POPC   PO413500  15.121   5.715   5.666 -0.0911 -0.1261  0.1252
  946POPC   GL113501  14.853   5.972   5.960  0.0251  0.0250  0.0471
  946POPC   GL213502  14.674   6.241   5.991 -0.1748  0.1294  0.0739
  946POPC   C1A13503  14.455   5.853   6.148 -0.2374 -0.3879 -0.0896
  946POPC   D2A13504  14.422   5.956   6.528  0.4518 -0.0754 -0.0660
  946POPC   C3A13505  14.523   5.677   6.880  0.1499 -0.3446  0.3333
  946POPC   C4A13506  14.613   5.745   7.235  0.0367  0.1342 -0.0571
  946POPC   C1B13507  14.885   6.155   6.415  0.1899  0.3395  0.0282
  946POPC   C2B13508  14.917   6.156   6.908 -0.1482 -0.0601 -0.0880
  946POPC   C3B13509  14.665   6.331   7.314 -0.1686 -0.0173 -0.1602
  946POPC   C4B13510  14.601   6.617   7.724  0.0284 -0.0006  0.0418
  947POPC   NC313511   5.072   7.469   5.307 -0.2226  0.5375 -0.3516
  947POPC   PO413512   4.896   7.185   5.638  0.1547  0.0822 -0.3603
  947POPC   GL113513   5.072   7.326   6.077  0.2270 -0.0531 -0.1494
  947POPC   GL213514   5.416   7.224   6.070  0.0594  0.2061  0.1226
  947POPC   C1A13515   4.690   7.383   6.339  0.1798  0.0917  0.1407
  947POPC   D2A13516   4.311   7.742   6.372  0.0648  0.1709  0.2126
  947POPC   C3A13517   4.078   7.622   6.800  0.0769  0.1280  0.0121
  947POPC   C4A13518   3.943   7.524   7.221  0.1169  0.1624 -0.1389
  947POPC   C1B13519   5.717   6.864   6.079  0.1230  0.0676  0.2492
  947POPC   C2B13520   5.881   6.441   6.354  0.3215 -0.1881 -0.0851
  947POPC   C3B13521   5.861   6.412   6.707  0.1017  0.0634  0.3005
  947POPC   C4B13522   5.668   6.207   7.102 -0.1855 -0.4232  0.0626
  948POPC   NC313523   4.935  17.563   4.993 -0.2088 -0.3537  0.2903
  948POPC   PO413524   4.987  17.472   5.455 -0.1907  0.1708 -0.0184
  948POPC   GL113525   5.135  17.634   5.841 -0.2468 -0.0282  0.3648
  948POPC   GL213526   4.999  17.521   6.156  0.1928  0.2753  0.0261
  948POPC   C1A13527   5.388  17.745   6.215 -0.0165 -0.0012 -0.2441
  948POPC   D2A13528   5.457  18.012   6.480 -0.1774  0.1792  0.1547
  948POPC   C3A13529   5.380  18.060   6.867 -0.1498 -0.1385 -0.1188
  948POPC   C4A13530   5.463  18.130   7.210 -0.0553 -0.1054 -0.0778
  948POPC   C1B13531   4.836  17.588   6.550 -0.1523 -0.4221 -0.2176
  948POPC   C2B13532   4.430  17.709   6.775  0.0292  0.1002 -0.1105
  948POPC   C3B13533   4.085  17.742   7.042 -0.0894 -0.0340  0.0134
  948POPC   C4B13534   4.153  17.810   7.475 -0.0496 -0.0845 -0.0571
  949POPC   NC313535   7.532  12.576   5.078  0.2510 -0.0540  0.0541
  949POPC   PO413536   7.802  12.887   5.350 -0.2228  0.0248 -0.3567
  949POPC   GL113537   7.739  12.992   5.841 -0.3248 -0.0657 -0.3606
  949POPC   GL213538   7.469  13.191   5.837  0.1999 -0.3718 -0.1351
  949POPC   C1A13539   7.699  12.867   6.233  0.2554 -0.0689  0.2086
  949POPC   D2A13540   7.778  12.904   6.705 -0.3377 -0.2650 -0.1966
  949POPC   C3A13541   7.591  13.120   7.112  0.2794 -0.1348  0.1892
  949POPC   C4A13542   7.423  13.521   7.216 -0.2511  0.0757  0.0121
  949POPC   C1B13543   7.329  13.208   6.259  0.0226  0.3960 -0.3298
  949POPC   C2B13544   7.349  13.315   6.695  0.4316  0.1163 -0.2871
  949POPC   C3B13545   7.093  13.586   6.936  0.2509 -0.0692  0.2443
  949POPC   C4B13546   6.947  13.530   7.347 -0.0584 -0.4161 -0.0255
  950POPC   NC313547  15.828  17.719   5.406 -0.1531 -0.2445 -0.2294
  950POPC   PO413548  16.064  17.472   5.324  0.1652 -0.3079 -0.0308
  950POPC   GL113549  16.092  17.426   5.794 -0.3338  0.0356  0.2998
  950POPC   GL213550  15.931  17.657   5.901 -0.2763 -0.0556  0.1581
  950POPC   C1A13551  16.211  17.226   6.157 -0.1468  0.0660 -0.1003
  950POPC   D2A13552  16.305  17.111   6.486  0.0998 -0.0062  0.2630
  950POPC   C3A13553  16.577  17.273   6.718 -0.0087  0.1394 -0.0794
  950POPC   C4A13554  16.739  17.649   6.587 -0.1358  0.1692 -0.0611
  950POPC   C1B13555  15.793  17.744   6.327 -0.1333 -0.1600  0.1528
  950POPC   C2B13556  15.712  17.596   6.770 -0.2246  0.0166 -0.2870
  950POPC   C3B13557  15.549  17.742   7.130 -0.0113 -0.0329  0.3328
  950POPC   C4B13558  15.316  17.648   7.517 -0.1217 -0.0928 -0.0044
  951POPC   NC313559   4.588  14.552   5.305 -0.1221 -0.0242  0.0004
  951POPC   PO413560   4.766  14.928   5.552  0.1411  0.0462 -0.3385
  951POPC   GL113561   4.704  15.084   5.921  0.1149 -0.1530  0.0192
  951POPC   GL213562   4.851  15.306   6.187 -0.2467 -0.0240  0.1228
  951POPC   C1A13563   4.365  15.257   6.095  0.3527  0.1511  0.1249
  951POPC   D2A13564   4.139  15.286   6.317  0.0653 -0.1804 -0.1489
  951POPC   C3A13565   4.150  15.109   6.693 -0.0147 -0.3392 -0.4228
  951POPC   C4A13566   4.150  14.846   7.036  0.1323 -0.0664  0.0096
  951POPC   C1B13567   4.623  15.101   6.462 -0.1672  0.4154  0.0367
  951POPC   C2B13568   4.639  14.971   6.818  0.1389  0.2620 -0.2508
  951POPC   C3B13569   4.572  14.924   7.274  0.3388  0.0680  0.1267
  951POPC   C4B13570   4.255  14.688   7.613  0.2714  0.1648  0.0615
  952POPC   NC313571   7.084   3.470   5.442 -0.4060 -0.0931 -0.1932
  952POPC   PO413572   7.431   3.238   5.402 -0.0371 -0.0168 -0.0479
  952POPC   GL113573   7.157   3.084   5.776 -0.2232 -0.1392  0.0063
  952POPC   GL213574   6.868   3.208   5.759 -0.0714 -0.1034 -0.3211
  952POPC   C1A13575   6.989   3.468   6.137  0.0286 -0.1197 -0.0747
  952POPC   D2A13576   6.705   3.521   6.536  0.2269  0.1348  0.3620
  952POPC   C3A13577   6.457   3.364   6.713 -0.1011  0.2900 -0.0221
  952POPC   C4A13578   6.457   3.043   7.020 -0.2064 -0.2739  0.0935
  952POPC   C1B13579   6.769   2.961   6.191 -0.2377  0.2560 -0.0199
  952POPC   C2B13580   6.786   3.025   6.619  0.0031  0.0220  0.3404
  952POPC   C3B13581   6.937   2.982   6.955 -0.0434 -0.1105  0.0379
  952POPC   C4B13582   7.233   2.651   6.868  0.1370 -0.0577  0.1380
  953POPC   NC313583   2.132  10.964   5.551 -0.0454  0.3158 -0.1045
  953POPC   PO413584   1.762  10.789   5.672 -0.2724 -0.0187  0.1163
  953POPC   GL113585   1.813  10.643   6.044  0.2138 -0.0121  0.1640
  953POPC   GL213586   1.666  10.424   6.054  0.1274 -0.1745  0.1992
  953POPC   C1A13587   1.736  10.830   6.392  0.0886  0.2071  0.0783
  953POPC   D2A13588   1.597  10.991   6.804  0.0308  0.0709 -0.2035
  953POPC   C3A13589   1.960  11.117   6.951 -0.0549 -0.1522 -0.0032
  953POPC   C4A13590   2.161  11.439   7.266  0.0894 -0.0046 -0.1318
  953POPC   C1B13591   1.997  10.302   6.408  0.0343 -0.2160  0.0001
  953POPC   C2B13592   2.100  10.105   6.814  0.0388 -0.0424  0.1992
  953POPC   C3B13593   2.200  10.059   7.093  0.3726 -0.3341 -0.2349
  953POPC   C4B13594   2.048  10.040   7.561  0.4371 -0.0987  0.0949
  954POPC   NC313595   1.754   4.153   5.977  0.0112  0.2673  0.2168
  954POPC   PO413596   1.368   4.120   5.797  0.1958 -0.0034  0.3934
  954POPC   GL113597   1.365   4.195   6.240  0.2388  0.0174 -0.1312
  954POPC   GL213598   1.145   4.007   6.418  0.1062 -0.0767  0.0307
  954POPC   C1A13599   1.380   4.464   6.495 -0.1392  0.0736 -0.0218
  954POPC   D2A13600   1.723   4.529   6.841 -0.1825 -0.3030  0.4233
  954POPC   C3A13601   2.181   4.324   6.985  0.1878  0.3472  0.2726
  954POPC   C4A13602   2.577   4.210   6.983 -0.1039  0.1362  0.2124
  954POPC   C1B13603   0.901   3.991   6.798 -0.0014 -0.4007 -0.3416
  954POPC   C2B13604   0.949   3.969   7.215 -0.0265 -0.1930  0.1929
  954POPC   C3B13605   1.038   3.781   7.534 -0.3712  0.0514 -0.1469
  954POPC   C4B13606   1.235   3.477   7.895 -0.2182  0.0433  0.1097
  955POPC   NC313607   3.270   9.249   5.814 -0.0835 -0.1216 -0.2677
  955POPC   PO413608   3.048   8.869   5.712  0.1789 -0.0669  0.2331
  955POPC   GL113609   2.967   8.655   6.071  0.0794  0.0860  0.0627
  955POPC   GL213610   2.613   8.706   6.131 -0.3191 -0.4326 -0.0664
  955POPC   C1A13611   2.874   8.751   6.574 -0.2798 -0.0890  0.1791
  955POPC   D2A13612   2.813   8.951   7.049 -0.1290  0.0674  0.2588
  955POPC   C3A13613   2.656   8.810   7.399 -0.0563  0.0345 -0.0999
  955POPC   C4A13614   2.627   8.542   7.702 -0.0678 -0.1098  0.1439
  955POPC   C1B13615   2.470   9.034   6.510 -0.4624  0.1083 -0.0348
  955POPC   C2B13616   2.096   9.212   6.620 -0.0725 -0.2503 -0.0254
  955POPC   C3B13617   1.790   9.438   6.869 -0.0846  0.1683  0.0310
  955POPC   C4B13618   1.702   9.611   7.298  0.3308 -0.0867  0.2285
  956POPC   NC313619   1.098  15.893   5.828 -0.0026 -0.2088 -0.2360
  956POPC   PO413620   1.204  15.375   5.722  0.3269  0.0538 -0.2261
  956POPC   GL113621   1.276  15.506   6.122 -0.0116  0.0853 -0.0178
  956POPC   GL213622   1.351  15.784   6.338  0.1422  0.2796  0.1643
  956POPC   C1A13623   1.290  15.358   6.630  0.3379  0.0695  0.0437
  956POPC   D2A13624   1.189  15.450   6.966 -0.0559  0.0217 -0.1532
  956POPC   C3A13625   1.258  15.243   7.341 -0.1875  0.2033  0.1885
  956POPC   C4A13626   1.239  14.997   7.788 -0.1142 -0.0293  0.2000
  956POPC   C1B13627   1.245  15.883   6.775  0.0995 -0.0912 -0.0409
  956POPC   C2B13628   1.063  15.976   7.085  0.0434 -0.3427 -0.0042
  956POPC   C3B13629   0.930  15.652   7.359  0.2304 -0.1761 -0.2582
  956POPC   C4B13630   0.812  15.394   7.697 -0.1047  0.0092  0.1200
  957POPC   NC313631  13.997  13.444   5.654  0.0880 -0.2393 -0.1778
  957POPC   PO413632  14.425  13.482   5.431  0.1422 -0.1232 -0.0845
  957POPC   GL113633  14.475  13.464   5.861  0.1455 -0.0451  0.1543
  957POPC   GL213634  14.176  13.265   6.071  0.2733  0.2288  0.4105
  957POPC   C1A13635  14.649  13.225   6.142 -0.1801 -0.3977  0.0505
  957POPC   D2A13636  14.802  12.946   6.350  0.0161  0.0015 -0.1360
  957POPC   C3A13637  14.606  12.743   6.713 -0.3278 -0.3809 -0.1464
  957POPC   C4A13638  14.505  12.694   7.111 -0.0282  0.1742  0.2774
  957POPC   C1B13639  14.300  13.083   6.458 -0.1211 -0.1977  0.2799
  957POPC   C2B13640  14.135  12.803   6.787  0.0848  0.2945  0.0104
  957POPC   C3B13641  14.008  12.739   7.207 -0.3337 -0.0849 -0.0359
  957POPC   C4B13642  13.906  12.661   7.601 -0.1392 -0.0818  0.2219
  958POPC   NC313643  17.925  10.209   5.473  0.0336 -0.1850  0.1148
  958POPC   PO413644  17.447  10.213   5.672 -0.1664 -0.0281  0.0469
  958POPC   GL113645  17.284  10.192   6.090  0.2178  0.0162  0.2709
  958POPC   GL213646  17.245   9.934   6.337 -0.2056  0.2450  0.0779
  958POPC   C1A13647  17.162  10.483   6.442 -0.3702  0.0645  0.0922
  958POPC   D2A13648  17.009  10.544   6.783  0.1891  0.2816  0.0063
  958POPC   C3A13649  16.900  10.436   7.096  0.1354  0.0612 -0.1593
  958POPC   C4A13650  16.517  10.560   7.340 -0.1914  0.2590 -0.3716
  958POPC   C1B13651  17.111   9.590   6.582  0.2105  0.0932  0.0049
  958POPC   C2B13652  16.831   9.583   6.896  0.2622  0.0352  0.0080
  958POPC   C3B13653  16.689   9.508   7.231 -0.2347 -0.0521 -0.1467
  958POPC   C4B13654  16.550   9.200   7.467  0.0590 -0.2501  0.1035
  959POPC   NC313655  15.679   0.626   5.226  0.2606 -0.2250  0.3419
  959POPC   PO413656  15.250   0.678   5.209 -0.0613 -0.0665  0.0855
  959POPC   GL113657  15.261   0.623   5.597  0.0275 -0.0082  0.0709
  959POPC   GL213658  15.534   0.494   5.698  0.2908  0.0374  0.0585
  959POPC   C1A13659  15.055   0.742   5.940  0.3332  0.3213 -0.1024
  959POPC   D2A13660  15.039   0.813   6.414 -0.0781  0.0964 -0.1853
  959POPC   C3A13661  14.726   1.034   6.679 -0.0510 -0.2890 -0.0320
  959POPC   C4A13662  14.691   1.133   7.039 -0.0164 -0.0715 -0.0313
  959POPC   C1B13663  15.335   0.377   6.065 -0.1618 -0.1716 -0.1948
  959POPC   C2B13664  15.346   0.389   6.482  0.0019  0.0724  0.0554
  959POPC   C3B13665  15.369   0.185   6.920  0.0919  0.1854  0.0971
  959POPC   C4B13666  15.226   0.332   7.339 -0.1852 -0.0973 -0.0257
  960POPC   NC313667  13.045   0.509   5.206  0.2278  0.3753  0.3025
  960POPC   PO413668  13.265   0.455   5.623  0.0043  0.4557  0.3016
  960POPC   GL113669  13.262   0.148   5.890  0.0621 -0.0045  0.2465
  960POPC   GL213670  13.529   0.175   6.140  0.1499  0.0578  0.0290
  960POPC   C1A13671  13.246  -0.232   6.126 -0.0507 -0.0706  0.3417
  960POPC   D2A13672  13.156  -0.294   6.553 -0.0289 -0.0764 -0.0292
  960POPC   C3A13673  12.778  -0.583   6.577 -0.1686 -0.1431  0.1454
  960POPC   C4A13674  12.455  -0.794   6.425 -0.0962  0.1617 -0.0782
  960POPC   C1B13675  13.436   0.099   6.534 -0.0742  0.5198 -0.2763
  960POPC   C2B13676  13.489   0.002   7.004 -0.2604  0.0629 -0.1353
  960POPC   C3B13677  13.844   0.021   7.197  0.2931 -0.1925  0.4405
  960POPC   C4B13678  14.087  -0.219   7.433 -0.2498 -0.0351 -0.1859
  961POPC   NC313679  13.841  16.129   5.594 -0.0482 -0.0947 -0.2026
  961POPC   PO413680  13.749  15.826   5.872  0.0215 -0.2333 -0.0466
  961POPC   GL113681  13.993  15.777   6.278  0.2096  0.0605  0.0029
  961POPC   GL213682  14.151  15.543   6.214 -0.1108 -0.0928  0.0023
  961POPC   C1A13683  13.955  15.488   6.658  0.0942 -0.0854  0.1259
  961POPC   D2A13684  13.832  15.458   7.088 -0.0323 -0.1732  0.0811
  961POPC   C3A13685  13.606  15.841   7.377 -0.3556 -0.2885  0.1434
  961POPC   C4A13686  13.547  16.333   7.291 -0.0558 -0.0214 -0.1288
  961POPC   C1B13687  14.141  15.084   6.441 -0.1517  0.0057 -0.5946
  961POPC   C2B13688  14.084  14.929   6.857  0.2731  0.1305  0.0688
  961POPC   C3B13689  14.000  15.030   7.245  0.2607  0.3926 -0.1291
  961POPC   C4B13690  13.971  14.850   7.661  0.0439  0.2259  0.0471
  962POPC   NC313691  18.165  10.156   5.940 -0.0716  0.2525  0.1103
  962POPC   PO413692  17.783   9.907   6.053  0.0680  0.1102  0.2077
  962POPC   GL113693  17.635   9.633   6.448 -0.1354 -0.1501 -0.0442
  962POPC   GL213694  17.889   9.486   6.522  0.2640  0.0743 -0.0898
  962POPC   C1A13695  17.512   9.502   6.844 -0.2171 -0.2446  0.1117
  962POPC   D2A13696  17.192   9.521   7.247  0.1639  0.0152  0.1870
  962POPC   C3A13697  17.048   9.228   7.504 -0.0766  0.1422  0.2677
  962POPC   C4A13698  16.950   9.071   7.862 -0.0231  0.0297  0.0600
  962POPC   C1B13699  17.991   9.686   6.853 -0.0060  0.0922  0.0912
  962POPC   C2B13700  18.135  10.079   7.138 -0.3089  0.1871 -0.1664
  962POPC   C3B13701  17.895  10.110   7.554 -0.2133  0.0907  0.1934
  962POPC   C4B13702  17.738  10.305   7.825  0.1782  0.1924  0.2571
  963POPC   NC313703   7.234  15.368   5.309 -0.2775 -0.1763  0.3601
  963POPC   PO413704   7.352  15.906   5.416 -0.0616  0.0244  0.0941
  963POPC   GL113705   7.321  16.118   5.876 -0.1629 -0.0078  0.2832
  963POPC   GL213706   7.010  16.392   6.004 -0.0974  0.2496  0.1569
  963POPC   C1A13707   7.453  16.143   6.306  0.0030 -0.0053 -0.0966
  963POPC   D2A13708   7.536  16.384   6.656 -0.0523  0.1218 -0.1345
  963POPC   C3A13709   7.424  16.551   7.119  0.1102  0.0147  0.0473
  963POPC   C4A13710   7.089  16.499   7.346  0.2730  0.0533 -0.0277
  963POPC   C1B13711   7.113  16.764   6.304 -0.0593 -0.0668  0.4249
  963POPC   C2B13712   7.280  16.815   6.684 -0.2219 -0.1106  0.1228
  963POPC   C3B13713   7.148  16.938   7.089 -0.2123 -0.0143  0.1278
  963POPC   C4B13714   6.880  17.222   7.167  0.2535  0.1133 -0.2888
  964POPC   NC313715   2.785  13.707   4.734  0.0046 -0.2896  0.0916
  964POPC   PO413716   3.028  14.003   5.082  0.2032 -0.1876  0.2689
  964POPC   GL113717   3.096  14.167   5.472  0.2303 -0.2024 -0.1027
  964POPC   GL213718   2.775  14.046   5.554 -0.1765  0.0220  0.1433
  964POPC   C1A13719   3.466  14.128   5.739 -0.2389  0.0156 -0.3059
  964POPC   D2A13720   3.616  13.896   5.993 -0.0325 -0.1575 -0.0435
  964POPC   C3A13721   3.847  14.118   6.330  0.1762  0.0747  0.1492
  964POPC   C4A13722   3.677  14.124   6.736 -0.1202 -0.3362  0.0685
  964POPC   C1B13723   2.508  14.304   5.871 -0.0789 -0.0375 -0.0519
  964POPC   C2B13724   2.505  14.381   6.289 -0.0931 -0.3766 -0.1655
  964POPC   C3B13725   2.645  14.620   6.675  0.0208 -0.2314  0.0347
  964POPC   C4B13726   2.932  14.650   7.023  0.0856 -0.0729  0.0812
  965POPC   NC313727  17.849   2.457   5.353  0.0655  0.0199  0.0819
  965POPC   PO413728  17.525   2.402   5.707  0.3957 -0.2761  0.4086
  965POPC   GL113729  17.500   2.592   6.072 -0.1152  0.0057 -0.2001
  965POPC   GL213730  17.428   2.863   6.114 -0.1173 -0.2522  0.2286
  965POPC   C1A13731  17.670   2.691   6.499  0.1064 -0.0903  0.3335
  965POPC   D2A13732  17.732   2.722   6.877  0.2024  0.0878 -0.0580
  965POPC   C3A13733  17.811   2.832   7.323  0.1787  0.2537 -0.1532
  965POPC   C4A13734  17.608   3.034   7.644  0.0463  0.4104 -0.1171
  965POPC   C1B13735  17.309   3.002   6.425  0.0053 -0.0317  0.1169
  965POPC   C2B13736  17.262   3.040   6.816  0.2007  0.3319 -0.3276
  965POPC   C3B13737  17.326   2.785   7.183 -0.1706  0.1592 -0.2192
  965POPC   C4B13738  17.546   2.329   7.236 -0.1987  0.1075 -0.3324
  966POPC   NC313739  17.185   4.389   5.550 -0.1061  0.0753 -0.0478
  966POPC   PO413740  17.426   4.754   5.614 -0.1040 -0.1240 -0.2387
  966POPC   GL113741  17.050   4.737   5.906  0.1815 -0.0491 -0.1632
  966POPC   GL213742  17.059   4.530   6.149  0.1163  0.1346 -0.2703
  966POPC   C1A13743  16.808   5.000   6.111 -0.1000 -0.0369  0.0213
  966POPC   D2A13744  16.821   5.342   6.445 -0.3408  0.1150  0.0415
  966POPC   C3A13745  16.759   5.755   6.572  0.2424  0.0792  0.0257
  966POPC   C4A13746  16.552   5.798   6.950  0.0648 -0.1585 -0.3282
  966POPC   C1B13747  16.929   4.640   6.510  0.1316  0.3294 -0.0207
  966POPC   C2B13748  16.989   4.860   6.923 -0.3992 -0.1397  0.2736
  966POPC   C3B13749  16.803   4.789   7.370 -0.0784 -0.2050 -0.1406
  966POPC   C4B13750  16.604   4.977   7.725 -0.4032  0.0346 -0.1278
  967POPC   NC313751   2.828   5.282   5.518 -0.0878 -0.1190 -0.1243
  967POPC   PO413752   3.167   5.692   5.601  0.0219 -0.0969  0.0740
  967POPC   GL113753   2.960   5.479   5.944 -0.3284 -0.1169 -0.0967
  967POPC   GL213754   2.835   5.678   6.192  0.2184 -0.0362 -0.2289
  967POPC   C1A13755   2.824   5.164   6.334  0.0789  0.2612 -0.0739
  967POPC   D2A13756   2.729   4.818   6.628 -0.2191  0.1511 -0.1917
  967POPC   C3A13757   2.630   4.812   7.018  0.1809  0.0431  0.0567
  967POPC   C4A13758   2.939   4.528   7.309  0.3561  0.1472 -0.1534
  967POPC   C1B13759   2.712   5.781   6.584  0.1461 -0.0193 -0.0770
  967POPC   C2B13760   2.813   5.970   6.989 -0.3199 -0.0832  0.0226
  967POPC   C3B13761   2.936   5.855   7.418  0.2021 -0.0150  0.1956
  967POPC   C4B13762   3.191   5.673   7.738  0.1844  0.0512 -0.1265
  968POPC   NC313763  17.027  17.704   5.674 -0.0795 -0.2687 -0.0933
  968POPC   PO413764  17.232  17.429   5.877  0.1686 -0.0751  0.0851
  968POPC   GL113765  16.987  17.761   6.137 -0.1776  0.1243 -0.1181
  968POPC   GL213766  16.718  18.017   6.133  0.1657 -0.0139 -0.0874
  968POPC   C1A13767  17.160  18.007   6.341  0.1061  0.0624 -0.0413
  968POPC   D2A13768  17.071  18.055   6.767 -0.2909 -0.1197 -0.0207
  968POPC   C3A13769  17.310  17.815   6.928  0.0481 -0.0680  0.0572
  968POPC   C4A13770  17.543  17.656   7.187  0.0019 -0.1380 -0.0631
  968POPC   C1B13771  16.564  18.101   6.603  0.4176 -0.1451  0.0103
  968POPC   C2B13772  16.526  18.029   6.939  0.0077 -0.1176 -0.1000
  968POPC   C3B13773  16.523  18.024   7.440 -0.1449  0.0256 -0.3256
  968POPC   C4B13774  16.552  17.839   7.852  0.5114 -0.2902  0.0307
  969POPC   NC313775   6.635   9.500   5.519  0.1545  0.0795  0.3382
  969POPC   PO413776   6.672   9.057   5.648  0.0041  0.1218  0.0323
  969POPC   GL113777   6.690   9.335   5.953 -0.3543  0.3849  0.0094
  969POPC   GL213778   7.035   9.448   5.980 -0.2133  0.0082 -0.0231
  969POPC   C1A13779   6.683   9.247   6.418  0.3218 -0.0209  0.2139
  969POPC   D2A13780   6.661   9.428   6.745  0.1055  0.0410  0.2466
  969POPC   C3A13781   6.737   9.300   7.151 -0.3104 -0.1386 -0.1611
  969POPC   C4A13782   6.879   9.303   7.606  0.0184  0.0384 -0.0992
  969POPC   C1B13783   6.926   9.660   6.357 -0.1117  0.2175 -0.1690
  969POPC   C2B13784   6.914   9.860   6.733  0.1431  0.0593  0.1764
  969POPC   C3B13785   7.185   9.668   6.896 -0.1877  0.2407  0.0171
  969POPC   C4B13786   7.562   9.744   7.167  0.1535 -0.3386  0.1190
  970POPC   NC313787   0.791   9.805   5.663  0.1348 -0.0740 -0.1996
  970POPC   PO413788   1.033   9.338   5.627 -0.2246  0.0562  0.1571
  970POPC   GL113789   1.185   9.398   6.137  0.0555  0.0164 -0.0302
  970POPC   GL213790   1.022   9.186   6.270 -0.1899 -0.2799  0.1288
  970POPC   C1A13791   1.252   9.571   6.555  0.0155 -0.2395 -0.1808
  970POPC   D2A13792   1.349   9.651   6.980 -0.3456 -0.2220  0.1155
  970POPC   C3A13793   1.146   9.590   7.385  0.0586 -0.4514 -0.1190
  970POPC   C4A13794   1.048   9.923   7.726 -0.0109  0.2303 -0.2156
  970POPC   C1B13795   1.118   9.088   6.614 -0.0818 -0.0674 -0.2253
  970POPC   C2B13796   1.036   9.240   7.024 -0.1055 -0.0320 -0.2339
  970POPC   C3B13797   0.984   9.092   7.467 -0.2068  0.0518 -0.0234
  970POPC   C4B13798   1.096   9.315   7.830  0.0954  0.2260 -0.0044
  971POPC   NC313799   0.348   8.031   5.974 -0.3363 -0.0247  0.3186
  971POPC   PO413800   0.312   8.429   5.870  0.0139 -0.5598  0.1359
  971POPC   GL113801   0.130   8.339   6.374 -0.0417 -0.3691 -0.1568
  971POPC   GL213802   0.141   8.089   6.450 -0.1302 -0.2252 -0.3338
  971POPC   C1A13803  -0.209   8.224   6.758 -0.0719  0.2116 -0.0169
  971POPC   D2A13804  -0.086   7.982   7.047  0.0577  0.0903  0.1306
  971POPC   C3A13805  -0.314   7.923   7.384  0.0390  0.0370 -0.0768
  971POPC   C4A13806  -0.783   7.872   7.423  0.3530  0.3131 -0.0863
  971POPC   C1B13807   0.290   8.324   6.936 -0.2029  0.0817 -0.1337
  971POPC   C2B13808   0.260   8.136   7.393 -0.2182 -0.4164 -0.1172
  971POPC   C3B13809  -0.014   8.055   7.739 -0.0087 -0.0747  0.0980
  971POPC   C4B13810  -0.447   8.115   7.902 -0.1275  0.0536  0.1137
  972POPC   NC313811   6.041  16.097   5.483 -0.4078 -0.2073 -0.0373
  972POPC   PO413812   5.902  15.877   5.723 -0.1531 -0.2356 -0.2822
  972POPC   GL113813   5.766  15.846   6.124  0.0300 -0.1196  0.0030
  972POPC   GL213814   5.510  15.831   6.226  0.0450 -0.0162  0.1932
  972POPC   C1A13815   6.002  15.749   6.481 -0.1092  0.0945 -0.1444
  972POPC   D2A13816   6.068  15.456   6.687  0.0531  0.2349  0.1735
  972POPC   C3A13817   6.074  15.480   7.106 -0.2740 -0.1175  0.0278
  972POPC   C4A13818   6.466  15.593   7.351  0.0367 -0.0231 -0.1087
  972POPC   C1B13819   5.579  16.000   6.603  0.0308  0.0838  0.0094
  972POPC   C2B13820   5.733  15.973   6.957  0.0423 -0.0890 -0.2998
  972POPC   C3B13821   6.007  15.935   7.287  0.0872 -0.1473  0.0980
  972POPC   C4B13822   6.324  16.115   7.572  0.0823  0.2278 -0.1440
  973POPC   NC313823  14.463   7.802   5.143 -0.2553  0.0893  0.0347
  973POPC   PO413824  14.537   7.330   5.293  0.0530  0.0480 -0.4293
  973POPC   GL113825  14.570   7.202   5.752 -0.3890 -0.0662  0.2617
  973POPC   GL213826  14.399   7.493   5.961 -0.1113 -0.1776 -0.1641
  973POPC   C1A13827  14.746   7.080   6.078 -0.1384 -0.1615  0.1229
  973POPC   D2A13828  14.640   6.605   6.294 -0.0880  0.0181 -0.0047
  973POPC   C3A13829  14.588   6.460   6.686  0.0206  0.2157  0.0424
  973POPC   C4A13830  14.593   6.723   6.940  0.1815  0.1835 -0.0038
  973POPC   C1B13831  14.394   7.378   6.321 -0.1695 -0.0019  0.0247
  973POPC   C2B13832  14.280   7.412   6.612 -0.0465  0.0438 -0.1679
  973POPC   C3B13833  14.533   7.234   7.000  0.0642 -0.1457 -0.4314
  973POPC   C4B13834  14.446   7.037   7.459  0.0081 -0.4495 -0.0774
  974POPC   NC313835  11.775   5.078   5.308 -0.1254 -0.1718  0.1234
  974POPC   PO413836  11.643   4.996   5.716  0.3741 -0.5448  0.3265
  974POPC   GL113837  11.866   5.022   6.088 -0.0184 -0.2318  0.2397
  974POPC   GL213838  11.737   4.829   6.236  0.0723  0.7317  0.0851
  974POPC   C1A13839  12.133   5.064   6.437  0.3210 -0.1884  0.1608
  974POPC   D2A13840  12.356   5.131   6.762 -0.0853 -0.0191 -0.0961
  974POPC   C3A13841  12.588   4.764   6.926  0.2381 -0.2784 -0.2551
  974POPC   C4A13842  12.858   4.723   7.272 -0.0790 -0.0867 -0.1238
  974POPC   C1B13843  11.690   4.546   6.657  0.1562  0.0413 -0.4097
  974POPC   C2B13844  11.616   4.473   6.979  0.0389  0.1542  0.0918
  974POPC   C3B13845  11.409   4.328   7.298  0.1989 -0.1655  0.0545
  974POPC   C4B13846  11.654   4.056   7.613 -0.3310  0.1088  0.1442
  975POPC   NC313847  12.391  15.605   5.414 -0.1841 -0.0670 -0.2072
  975POPC   PO413848  11.969  15.598   5.367 -0.1023  0.1632  0.4814
  975POPC   GL113849  11.900  15.547   5.760  0.0475  0.1127 -0.0344
  975POPC   GL213850  12.001  15.237   5.877 -0.2602 -0.3221 -0.1539
  975POPC   C1A13851  12.055  15.677   6.087 -0.0106  0.2733  0.0833
  975POPC   D2A13852  12.056  15.579   6.493 -0.0297 -0.6273  0.0190
  975POPC   C3A13853  12.381  15.430   6.758  0.0225 -0.1016  0.0271
  975POPC   C4A13854  12.424  15.401   7.232  0.2388  0.2312  0.1477
  975POPC   C1B13855  11.765  15.265   6.176  0.0897 -0.2741  0.2735
  975POPC   C2B13856  11.546  15.209   6.479 -0.1377 -0.1670 -0.4056
  975POPC   C3B13857  11.426  14.939   6.814 -0.0503  0.0215  0.3056
  975POPC   C4B13858  11.642  14.813   7.177  0.2305  0.0388  0.0449
  976POPC   NC313859   1.713  14.259   4.688  0.0640 -0.0065  0.1077
  976POPC   PO413860   1.564  14.473   4.995  0.2733 -0.1775  0.0471
  976POPC   GL113861   1.676  14.334   5.471  0.1916  0.3030 -0.1856
  976POPC   GL213862   1.409  14.329   5.767  0.3106 -0.0038 -0.2341
  976POPC   C1A13863   1.930  14.422   5.748  0.0455 -0.0986  0.0406
  976POPC   D2A13864   1.991  14.324   6.138 -0.3096 -0.1232  0.0758
  976POPC   C3A13865   2.182  13.997   6.143 -0.3300  0.1970  0.1220
  976POPC   C4A13866   2.428  13.761   6.042 -0.4555 -0.1534  0.2125
  976POPC   C1B13867   1.348  14.287   6.241  0.0207  0.2391  0.1654
  976POPC   C2B13868   0.991  14.111   6.376 -0.0447  0.0844  0.0237
  976POPC   C3B13869   0.824  13.815   6.769 -0.1113  0.2226  0.0403
  976POPC   C4B13870   0.788  13.806   7.237 -0.0854 -0.0983  0.1209
  977POPC   NC313871  14.691   9.310   4.951  0.1890 -0.1532 -0.1219
  977POPC   PO413872  14.406   9.222   5.303 -0.1537 -0.1099  0.1259
  977POPC   GL113873  14.183   9.134   5.660 -0.3058  0.0043 -0.0049
  977POPC   GL213874  14.141   9.455   5.806 -0.1251  0.2755 -0.2466
  977POPC   C1A13875  14.184   8.837   5.923  0.1915 -0.0190  0.3710
  977POPC   D2A13876  14.440   8.504   5.864  0.2555 -0.0577 -0.1116
  977POPC   C3A13877  14.796   8.499   5.990 -0.3255  0.4541  0.0652
  977POPC   C4A13878  14.941   8.428   6.355  0.0162 -0.0305 -0.0247
  977POPC   C1B13879  14.099   9.613   6.169 -0.2453  0.0136 -0.1456
  977POPC   C2B13880  14.026   9.941   6.431  0.3624 -0.2917  0.0687
  977POPC   C3B13881  14.113  10.027   6.801 -0.0650  0.3413 -0.1558
  977POPC   C4B13882  14.239  10.157   7.248 -0.0751 -0.0879 -0.2549
  978POPC   NC313883  16.143  12.945   5.466 -0.1796  0.1658  0.0855
  978POPC   PO413884  16.607  12.876   5.311 -0.3444  0.2224  0.2696
  978POPC   GL113885  16.610  12.761   5.705 -0.1037 -0.1187 -0.0227
  978POPC   GL213886  16.499  13.118   5.755 -0.1213 -0.0227  0.4545
  978POPC   C1A13887  16.732  12.880   6.108 -0.2855 -0.2438 -0.2591
  978POPC   D2A13888  17.201  12.842   6.321  0.1381  0.3808  0.1057
  978POPC   C3A13889  17.213  12.868   6.759 -0.0950  0.3559  0.0158
  978POPC   C4A13890  16.898  12.736   7.101  0.3043 -0.1628  0.2583
  978POPC   C1B13891  16.539  13.395   6.022 -0.1494 -0.1789  0.2547
  978POPC   C2B13892  16.458  13.538   6.441  0.1915  0.4558 -0.1222
  978POPC   C3B13893  16.289  13.645   6.970 -0.3490  0.2610 -0.0759
  978POPC   C4B13894  16.077  13.559   7.355  0.1825 -0.0477  0.2370
  979POPC   NC313895  13.960   8.943   5.225 -0.2236 -0.4777  0.0482
  979POPC   PO413896  13.621   9.113   5.498 -0.2104 -0.2566  0.0016
  979POPC   GL113897  13.473   9.080   5.900  0.1884  0.0176 -0.0044
  979POPC   GL213898  13.689   9.252   6.042  0.2549  0.1640 -0.0612
  979POPC   C1A13899  13.168   8.971   6.293  0.0286  0.4823 -0.1011
  979POPC   D2A13900  13.114   8.632   6.523  0.1540  0.2708  0.0325
  979POPC   C3A13901  13.175   8.711   6.894  0.5066  0.0475 -0.0757
  979POPC   C4A13902  12.935   8.846   7.200  0.0676  0.1193  0.0369
  979POPC   C1B13903  13.738   9.349   6.427  0.0550 -0.1092  0.1348
  979POPC   C2B13904  13.804   9.574   6.816 -0.0186 -0.0724 -0.0054
  979POPC   C3B13905  13.834   9.811   7.190  0.0635 -0.4426 -0.1419
  979POPC   C4B13906  13.541   9.970   7.415  0.0507 -0.0862  0.3455
  980POPC   NC313907   5.896  12.120   5.455 -0.0941 -0.1266 -0.2130
  980POPC   PO413908   5.447  12.053   5.310 -0.1176 -0.1474  0.1710
  980POPC   GL113909   5.565  11.969   5.779 -0.0174 -0.0791  0.1850
  980POPC   GL213910   5.751  12.213   5.944 -0.0138 -0.0894  0.0196
  980POPC   C1A13911   5.684  11.812   6.167 -0.1215 -0.1080  0.0871
  980POPC   D2A13912   5.567  11.832   6.493 -0.0369 -0.1485 -0.0207
  980POPC   C3A13913   5.645  11.718   6.955 -0.3750 -0.0401  0.1672
  980POPC   C4A13914   5.465  11.743   7.353 -0.2190  0.1384  0.0884
  980POPC   C1B13915   5.805  12.249   6.469  0.0961  0.0684  0.1319
  980POPC   C2B13916   5.627  12.237   6.918 -0.1308 -0.0003  0.0563
  980POPC   C3B13917   5.561  12.270   7.305 -0.0023  0.1204  0.2865
  980POPC   C4B13918   5.583  12.395   7.675 -0.3627  0.0603  0.0865
  981YOPC   NC313919   5.526  14.546   5.513  0.1921  0.0798 -0.0382
  981YOPC   PO413920   5.383  14.160   5.284  0.0654 -0.1139 -0.0787
  981YOPC   GL113921   5.211  13.890   5.659 -0.2283  0.1672 -0.1921
  981YOPC   GL213922   5.020  14.020   5.876  0.0086 -0.0505 -0.1122
  981YOPC   C1A13923   5.259  13.637   6.075  0.2398  0.3039  0.1512
  981YOPC   D2A13924   5.462  13.332   6.264  0.1249  0.0791  0.2427
  981YOPC   C3A13925   5.352  13.397   6.649  0.0855 -0.0343 -0.0356
  981YOPC   C4A13926   5.422  13.395   7.097 -0.1756  0.2955  0.2228
  981YOPC   C1B13927   4.724  14.202   6.213  0.1040  0.1589  0.2870
  981YOPC   C2B13928   4.709  14.027   6.544  0.3128  0.0715  0.1578
  981YOPC   D3B13929   4.323  13.938   6.836  0.0214  0.2179 -0.2671
  981YOPC   C4B13930   4.022  13.752   7.128 -0.0459  0.1935  0.0597
  982YOPC   NC313931  16.943   2.375   5.623  0.1634 -0.0875  0.1695
  982YOPC   PO413932  16.507   2.263   5.520 -0.1980 -0.1962  0.0532
  982YOPC   GL113933  16.541   2.269   5.940 -0.3481 -0.0109  0.3527
  982YOPC   GL213934  16.679   2.069   6.173 -0.0082  0.2350  0.2817
  982YOPC   C1A13935  16.230   2.155   6.208 -0.0870 -0.2655  0.0458
  982YOPC   D2A13936  16.176   2.110   6.701 -0.1974  0.0536 -0.0648
  982YOPC   C3A13937  15.907   1.830   6.938 -0.0171  0.0097  0.1555
  982YOPC   C4A13938  15.623   1.633   7.370 -0.0723  0.0649 -0.1191
  982YOPC   C1B13939  16.598   1.845   6.580  0.1020  0.1834  0.4412
  982YOPC   C2B13940  16.455   1.804   6.991  0.0445 -0.2053 -0.0280
  982YOPC   D3B13941  16.127   1.713   7.442  0.1231 -0.1552  0.1113
  982YOPC   C4B13942  16.203   2.088   7.712 -0.3750 -0.1771  0.2640
  983YOPC   NC313943   6.374  16.910   5.626  0.0876  0.3924  0.4176
  983YOPC   PO413944   6.714  17.132   5.402  0.3626 -0.0395  0.1773
  983YOPC   GL113945   6.812  17.280   5.757 -0.1583  0.0966  0.1351
  983YOPC   GL213946   6.596  17.412   6.018 -0.3016 -0.1240  0.2045
  983YOPC   C1A13947   7.030  17.236   6.208 -0.0797 -0.0830 -0.1732
  983YOPC   D2A13948   7.007  17.187   6.630 -0.0871  0.5046 -0.2608
  983YOPC   C3A13949   7.409  17.245   6.774 -0.1480 -0.3057  0.1753
  983YOPC   C4A13950   7.476  17.560   7.025 -0.0647  0.2919 -0.0504
  983YOPC   C1B13951   6.756  17.605   6.460 -0.1331  0.0107 -0.1205
  983YOPC   C2B13952   6.911  17.674   6.875  0.2695  0.0480  0.4594
  983YOPC   D3B13953   7.058  18.056   6.953  0.0746  0.1906 -0.3845
  983YOPC   C4B13954   7.486  18.384   6.969 -0.2855  0.1320 -0.2038
  984YOPC   NC313955  17.419   8.376   5.480  0.0085 -0.1667 -0.0236
  984YOPC   PO413956  16.955   8.243   5.698  0.2586 -0.0472 -0.0626
  984YOPC   GL113957  17.004   7.970   5.976 -0.1289 -0.0750  0.0518
  984YOPC   GL213958  17.321   8.213   6.070 -0.0853 -0.1493 -0.0073
  984YOPC   C1A13959  17.064   7.615   6.200  0.2351 -0.0541 -0.0672
  984YOPC   D2A13960  16.981   7.192   6.428 -0.1795 -0.2256  0.2304
  984YOPC   C3A13961  16.724   7.235   6.811  0.1035 -0.0685  0.3453
  984YOPC   C4A13962  16.737   7.226   7.261  0.0799  0.3241  0.1164
  984YOPC   C1B13963  17.260   8.063   6.481  0.2761  0.0804  0.1200
  984YOPC   C2B13964  17.216   7.989   6.893  0.2719 -0.1147  0.0096
  984YOPC   D3B13965  17.293   8.399   7.148 -0.0095 -0.0457  0.0448
  984YOPC   C4B13966  17.065   8.762   7.348  0.4549 -0.0416  0.0070
  985YOPC   NC313967   4.085  18.375   5.317  0.2307 -0.0463 -0.0902
  985YOPC   PO413968   4.548  18.211   5.264  0.2172  0.2668  0.1036
  985YOPC   GL113969   4.506  18.460   5.664  0.0756 -0.2394  0.1812
  985YOPC   GL213970   4.826  18.592   5.852 -0.0875 -0.1471  0.0312
  985YOPC   C1A13971   4.369  18.575   6.071  0.2379  0.2658  0.0169
  985YOPC   D2A13972   4.318  18.631   6.535 -0.1650 -0.0466  0.1327
  985YOPC   C3A13973   4.275  19.086   6.742  0.1294 -0.1113  0.0249
  985YOPC   C4A13974   4.524  19.447   6.619  0.0722 -0.0885  0.2429
  985YOPC   C1B13975   4.826  18.536   6.327 -0.0901 -0.0982  0.2602
  985YOPC   C2B13976   4.745  18.566   6.796  0.0458 -0.2886  0.3116
  985YOPC   D3B13977   4.680  18.892   6.967  0.0167 -0.0371 -0.0838
  985YOPC   C4B13978   4.663  19.266   7.064 -0.3194 -0.0340 -0.1241
  986YOPC   NC313979  18.351   6.024   5.713  0.0813 -0.1354  0.1567
  986YOPC   PO413980  18.677   6.303   5.523 -0.2308 -0.0487 -0.3328
  986YOPC   GL113981  18.769   6.245   6.010  0.0563 -0.0066 -0.2503
  986YOPC   GL213982  18.480   6.242   6.180 -0.1139  0.2114  0.0216
  986YOPC   C1A13983  18.960   6.359   6.475 -0.2422 -0.5204  0.0575
  986YOPC   D2A13984  18.930   6.408   6.910  0.1951 -0.0781  0.1843
  986YOPC   C3A13985  18.953   6.796   7.162  0.0777  0.1824 -0.1641
  986YOPC   C4A13986  18.945   7.045   7.441  0.1639 -0.0359 -0.0302
  986YOPC   C1B13987  18.503   6.394   6.604  0.1729  0.3488  0.2909
  986YOPC   C2B13988  18.422   6.490   6.962  0.0722  0.1058 -0.1068
  986YOPC   D3B13989  18.663   6.484   7.368  0.1818 -0.5608 -0.1874
  986YOPC   C4B13990  18.620   6.342   7.664  0.1383  0.2686  0.0920
  987YOPC   NC313991   2.765   1.967   5.178 -0.1786  0.1241  0.0248
  987YOPC   PO413992   3.094   1.768   5.421 -0.0451  0.3323 -0.1544
  987YOPC   GL113993   3.088   1.558   5.838 -0.3022  0.3776  0.0737
  987YOPC   GL213994   2.845   1.647   5.966 -0.2363  0.1902  0.0062
  987YOPC   C1A13995   3.224   1.482   6.306 -0.2477  0.2319 -0.0526
  987YOPC   D2A13996   3.305   1.071   6.469 -0.2269 -0.2023 -0.2333
  987YOPC   C3A13997   3.215   0.836   6.890  0.2985  0.1760  0.2262
  987YOPC   C4A13998   3.055   0.609   7.296  0.1235  0.0884  0.0884
  987YOPC   C1B13999   2.856   1.772   6.492 -0.3710 -0.0565  0.3459
  987YOPC   C2B14000   3.090   1.487   6.774  0.0676 -0.1667 -0.0816
  987YOPC   D3B14001   3.109   1.535   7.259  0.0764  0.2560 -0.0265
  987YOPC   C4B14002   3.167   1.436   7.741 -0.4479  0.2304 -0.0717
  988YOPC   NC314003   2.158   4.599   5.302 -0.2108 -0.2317 -0.2606
  988YOPC   PO414004   1.938   4.838   5.613  0.1958  0.0248 -0.0478
  988YOPC   GL114005   2.309   4.789   5.862 -0.3807 -0.1530 -0.2257
  988YOPC   GL214006   2.453   5.077   5.929  0.2079  0.1382 -0.1302
  988YOPC   C1A14007   2.592   4.624   6.112  0.1126 -0.1026 -0.0282
  988YOPC   D2A14008   2.616   4.383   6.480 -0.1440  0.0696  0.3946
  988YOPC   C3A14009   2.272   4.145   6.527  0.2074  0.0584 -0.0447
  988YOPC   C4A14010   2.166   3.823   6.834 -0.2757 -0.0814  0.1141
  988YOPC   C1B14011   2.299   4.969   6.381 -0.2182  0.0946  0.1455
  988YOPC   C2B14012   2.236   4.736   6.644 -0.1048  0.1318 -0.2352
  988YOPC   D3B14013   2.132   4.872   7.038 -0.0215  0.0672 -0.0057
  988YOPC   C4B14014   1.933   4.603   7.332  0.0039 -0.0177  0.0170
  989YOPC   NC314015  15.782   2.712   5.005  0.2517  0.1009 -0.1624
  989YOPC   PO414016  15.478   3.015   5.292 -0.1489 -0.4221  0.2231
  989YOPC   GL114017  15.465   2.875   5.659  0.0015  0.0323  0.0015
  989YOPC   GL214018  15.599   3.069   5.880  0.0193  0.0758 -0.2432
  989YOPC   C1A14019  15.515   2.582   6.032 -0.3214  0.2031  0.0240
  989YOPC   D2A14020  15.761   2.462   6.329  0.0312 -0.0378 -0.0371
  989YOPC   C3A14021  15.987   2.567   6.635  0.0813 -0.0584 -0.0262
  989YOPC   C4A14022  16.352   2.661   7.033  0.0812  0.1346  0.0899
  989YOPC   C1B14023  15.814   2.953   6.224  0.1211  0.1259 -0.0234
  989YOPC   C2B14024  15.767   3.114   6.583  0.1050  0.2410  0.2128
  989YOPC   D3B14025  15.944   2.983   7.030 -0.2158 -0.3537 -0.3249
  989YOPC   C4B14026  16.047   3.174   7.349  0.1721 -0.0992  0.1370
  990YOPC   NC314027   7.407   5.605   5.248 -0.2484 -0.1053 -0.1731
  990YOPC   PO414028   7.105   5.519   5.654 -0.3712  0.2327  0.0544
  990YOPC   GL114029   7.183   5.368   6.040 -0.1000  0.0103  0.0797
  990YOPC   GL214030   7.329   5.082   6.185 -0.0231 -0.0607 -0.0654
  990YOPC   C1A14031   7.235   5.638   6.430 -0.0755 -0.0319 -0.2440
  990YOPC   D2A14032   7.417   5.511   6.791 -0.0382 -0.0040  0.0287
  990YOPC   C3A14033   7.316   5.746   7.213  0.2353 -0.2186  0.0106
  990YOPC   C4A14034   6.979   5.890   7.463  0.1087  0.2287  0.0907
  990YOPC   C1B14035   7.370   5.070   6.584 -0.0070 -0.1851 -0.3160
  990YOPC   C2B14036   7.321   4.860   6.893  0.1645 -0.0770 -0.1781
  990YOPC   D3B14037   7.532   4.992   7.224 -0.0777 -0.2928 -0.0678
  990YOPC   C4B14038   7.565   5.363   7.280 -0.1223 -0.2031 -0.1239
  991YOPC   NC314039  14.681  12.972   5.351  0.1349 -0.0051  0.0071
  991YOPC   PO414040  14.897  12.559   5.393 -0.2417 -0.5186  0.1336
  991YOPC   GL114041  14.898  12.654   5.844 -0.3499  0.0063 -0.0877
  991YOPC   GL214042  14.794  12.768   5.926  0.1857 -0.0748  0.0770
  991YOPC   C1A14043  14.927  12.399   6.289 -0.0904  0.1345 -0.2080
  991YOPC   D2A14044  15.085  12.412   6.699 -0.2192  0.1652 -0.0046
  991YOPC   C3A14045  14.804  12.225   6.856 -0.2033  0.0169 -0.1061
  991YOPC   C4A14046  14.618  12.064   7.294  0.0128 -0.4385 -0.0909
  991YOPC   C1B14047  15.169  13.091   6.024  0.2006 -0.2225  0.1432
  991YOPC   C2B14048  15.601  13.286   6.151  0.0147  0.2462  0.1240
  991YOPC   D3B14049  15.665  13.263   6.580  0.0852 -0.0356 -0.0349
  991YOPC   C4B14050  15.760  13.170   7.065 -0.0150  0.1517 -0.2111
  992YOPC   NC314051   2.945   0.358   5.181  0.3421 -0.4144  0.0435
  992YOPC   PO414052   3.325   0.213   5.390  0.0447  0.1382 -0.2481
  992YOPC   GL114053   3.365   0.191   5.961  0.1352 -0.0912  0.0553
  992YOPC   GL214054   3.519  -0.123   6.039  0.0856  0.0041  0.0706
  992YOPC   C1A14055   3.239   0.286   6.406  0.0662  0.3098 -0.0749
  992YOPC   D2A14056   3.181   0.356   6.798  0.0540 -0.0544 -0.0606
  992YOPC   C3A14057   3.277   0.144   7.261 -0.0620 -0.0895  0.2042
  992YOPC   C4A14058   3.324   0.372   7.645  0.1920 -0.0131 -0.0416
  992YOPC   C1B14059   3.315  -0.224   6.322  0.5062  0.0619 -0.0087
  992YOPC   C2B14060   3.275  -0.251   6.770 -0.2690  0.0830 -0.2151
  992YOPC   D3B14061   3.393  -0.334   7.048 -0.1780  0.0894 -0.2417
  992YOPC   C4B14062   3.357  -0.361   7.510  0.0117 -0.2104  0.1863
  993YOPC   NC314063   9.191   2.499   5.478 -0.0128 -0.0846 -0.0908
  993YOPC   PO414064   8.688   2.506   5.449  0.1414  0.2792  0.1738
  993YOPC   GL114065   8.523   2.877   5.790  0.4809  0.1339  0.0986
  993YOPC   GL214066   8.129   2.823   5.996  0.4415  0.1056  0.2132
  993YOPC   C1A14067   8.696   2.835   6.171 -0.0660 -0.2110 -0.1153
  993YOPC   D2A14068   8.672   2.861   6.561 -0.0507 -0.1898  0.0775
  993YOPC   C3A14069   8.317   2.880   6.931 -0.1566  0.1847 -0.1148
  993YOPC   C4A14070   8.425   2.775   7.378  0.0922 -0.0754  0.0560
  993YOPC   C1B14071   8.214   2.845   6.407  0.1405 -0.1798 -0.1547
  993YOPC   C2B14072   8.050   3.181   6.575  0.0523 -0.2378  0.0100
  993YOPC   D3B14073   8.043   3.385   7.048  0.1103 -0.3751  0.1072
  993YOPC   C4B14074   8.318   3.765   7.134  0.0596  0.0419  0.1584
  994YOPC   NC314075   6.184  11.121   5.304 -0.1696 -0.1861  0.0007
  994YOPC   PO414076   6.428  11.414   5.515  0.3301  0.0154  0.0710
  994YOPC   GL114077   6.161  11.241   5.834  0.0573 -0.0469 -0.4391
  994YOPC   GL214078   6.305  11.154   6.049  0.1927  0.0200 -0.2708
  994YOPC   C1A14079   5.916  11.372   6.315 -0.0315 -0.0105  0.1867
  994YOPC   D2A14080   5.887  11.334   6.677 -0.2000  0.1161 -0.0994
  994YOPC   C3A14081   6.198  11.470   6.892 -0.0056 -0.0449 -0.0154
  994YOPC   C4A14082   6.411  11.554   7.176  0.1494 -0.0687 -0.1664
  994YOPC   C1B14083   6.485  11.397   6.387 -0.1180 -0.2353  0.1784
  994YOPC   C2B14084   6.708  11.326   6.713 -0.2087  0.0801 -0.1387
  994YOPC   D3B14085   6.797  10.792   6.871  0.3969 -0.1712  0.1110
  994YOPC   C4B14086   7.034  10.687   7.224  0.1223 -0.3302 -0.1676
  995YOPC   NC314087  16.737   6.755   5.582  0.3318  0.0348  0.2953
  995YOPC   PO414088  16.299   6.603   5.638  0.0229 -0.0558 -0.3569
  995YOPC   GL114089  16.306   6.941   5.965  0.1034 -0.0703 -0.1210
  995YOPC   GL214090  16.643   7.093   6.058 -0.1445  0.1464 -0.0822
  995YOPC   C1A14091  16.084   7.106   6.297  0.0284 -0.2673 -0.2767
  995YOPC   D2A14092  15.962   7.030   6.590 -0.0263  0.2691  0.1629
  995YOPC   C3A14093  15.606   7.188   6.616 -0.1436 -0.1177  0.1320
  995YOPC   C4A14094  15.347   7.444   6.851  0.0727  0.2369  0.1852
  995YOPC   C1B14095  16.566   6.883   6.503  0.1150  0.1688 -0.1171
  995YOPC   C2B14096  16.447   6.826   6.883 -0.2949  0.2795  0.1758
  995YOPC   D3B14097  16.058   6.796   7.122  0.2273 -0.1273  0.0305
  995YOPC   C4B14098  15.946   6.924   7.450 -0.1611 -0.2346 -0.1396
  996YOPC   NC314099  10.193  12.125   5.084 -0.2131 -0.0983 -0.0195
  996YOPC   PO414100  10.281  12.186   5.450 -0.0321 -0.1100  0.2096
  996YOPC   GL114101  10.444  12.313   5.862 -0.0025  0.0849 -0.1686
  996YOPC   GL214102  10.380  12.599   6.028 -0.1075  0.3414  0.4976
  996YOPC   C1A14103  10.619  12.190   6.338 -0.2712  0.1541  0.1279
  996YOPC   D2A14104  10.553  11.931   6.573  0.3396 -0.0495 -0.2214
  996YOPC   C3A14105  10.200  11.869   6.853 -0.0821 -0.0086  0.1106
  996YOPC   C4A14106   9.874  12.190   7.046 -0.0966 -0.1347  0.1743
  996YOPC   C1B14107  10.510  12.676   6.447 -0.1679  0.0474 -0.3289
  996YOPC   C2B14108  10.736  12.595   6.761  0.3206  0.0200  0.2001
  996YOPC   D3B14109  10.682  12.258   6.888 -0.0147 -0.0448 -0.2666
  996YOPC   C4B14110  10.419  12.159   7.203  0.0644 -0.0675 -0.2744
  997YOPC   NC314111   8.555   0.731   5.321 -0.3115 -0.0354 -0.2708
  997YOPC   PO414112   8.179   0.745   5.570  0.1088 -0.1134  0.1358
  997YOPC   GL114113   8.072   0.784   5.978  0.0196 -0.0606 -0.0349
  997YOPC   GL214114   7.757   0.673   6.122  0.2739  0.2158  0.2874
  997YOPC   C1A14115   8.034   0.936   6.451  0.1477  0.4464  0.3021
  997YOPC   D2A14116   7.976   0.809   6.870  0.5550 -0.1317 -0.1709
  997YOPC   C3A14117   8.417   0.943   7.240  0.0615 -0.0984 -0.0112
  997YOPC   C4A14118   8.607   1.253   7.347  0.0683 -0.0645 -0.0392
  997YOPC   C1B14119   7.663   0.567   6.594 -0.4305  0.1625  0.1585
  997YOPC   C2B14120   7.448   0.198   6.695 -0.1293 -0.0888  0.1731
  997YOPC   D3B14121   7.130   0.203   7.047 -0.2679  0.1067  0.0216
  997YOPC   C4B14122   7.074   0.333   7.513 -0.2064  0.1447  0.0950
  998YOPC   NC314123   2.339   8.397   5.368  0.0910  0.1230 -0.0550
  998YOPC   PO414124   2.665   8.415   5.725  0.0445  0.1344 -0.0662
  998YOPC   GL114125   2.530   8.250   6.185  0.0319  0.1748 -0.1484
  998YOPC   GL214126   2.246   8.131   6.314 -0.2696 -0.0957 -0.0508
  998YOPC   C1A14127   2.432   8.453   6.559 -0.5825  0.0322 -0.3111
  998YOPC   D2A14128   2.433   8.600   6.995 -0.0718  0.0973  0.0144
  998YOPC   C3A14129   2.303   8.987   7.091 -0.3189 -0.0907  0.2130
  998YOPC   C4A14130   2.029   9.111   7.406  0.0587 -0.0374 -0.0430
  998YOPC   C1B14131   2.054   8.176   6.761 -0.0715  0.3050  0.1492
  998YOPC   C2B14132   1.993   8.208   7.223  0.1103  0.0365  0.0915
  998YOPC   D3B14133   1.677   8.016   7.445  0.4021 -0.2102  0.3279
  998YOPC   C4B14134   1.693   7.869   7.866 -0.0118 -0.1463  0.0210
  999YOPC   NC314135   9.920  15.672   5.579 -0.3390 -0.4708  0.1903
  999YOPC   PO414136  10.271  15.285   5.583 -0.1496 -0.5067  0.0321
  999YOPC   GL114137  10.079  15.354   5.953  0.1499  0.1308  0.1051
  999YOPC   GL214138  10.080  15.069   6.057 -0.0923  0.1267 -0.3494
  999YOPC   C1A14139   9.846  15.406   6.379  0.0569  0.3299  0.0233
  999YOPC   D2A14140   9.541  15.120   6.603 -0.0005  0.2164 -0.1303
  999YOPC   C3A14141   9.577  15.053   7.071 -0.0257  0.1858 -0.1007
  999YOPC   C4A14142   9.497  15.025   7.498  0.0534 -0.0494 -0.4640
  999YOPC   C1B14143  10.098  14.877   6.443  0.0962  0.0143 -0.1040
  999YOPC   C2B14144   9.958  14.925   6.825  0.0983 -0.3022  0.1885
  999YOPC   D3B14145  10.221  14.943   7.179 -0.2380  0.0371 -0.3436
  999YOPC   C4B14146  10.670  14.912   7.428 -0.0331 -0.1189  0.0482
 1000YOPC   NC314147   0.881  11.785   5.866 -0.1292 -0.0922 -0.1135
 1000YOPC   PO414148   0.576  12.063   5.831  0.1769 -0.0245  0.2509
 1000YOPC   GL114149   0.850  12.062   6.251  0.1622  0.0341  0.0820
 1000YOPC   GL214150   0.681  11.761   6.451 -0.0434  0.2113 -0.3239
 1000YOPC   C1A14151   1.213  12.246   6.406 -0.1185  0.3885 -0.2222
 1000YOPC   D2A14152   1.485  12.474   6.185 -0.3559  0.0411 -0.2428
 1000YOPC   C3A14153   1.888  12.388   6.043 -0.0284 -0.1776  0.1363
 1000YOPC   C4A14154   2.254  12.118   6.103 -0.1235 -0.0991  0.1027
 1000YOPC   C1B14155   0.632  11.655   6.878  0.1939 -0.1412  0.2579
 1000YOPC   C2B14156   0.809  11.549   7.245 -0.0610  0.0631 -0.1540
 1000YOPC   D3B14157   1.209  11.347   7.385  0.0224  0.4304  0.2630
 1000YOPC   C4B14158   1.383  11.036   7.655 -0.2557 -0.0536 -0.1461
 1001YOPC   NC314159   0.752   6.580   5.460  0.1034 -0.1083  0.2639
 1001YOPC   PO414160   0.801   6.805   5.837 -0.0184 -0.1440  0.1505
 1001YOPC   GL114161   0.503   6.649   6.100  0.1392  0.1090  0.3086
 1001YOPC   GL214162   0.668   6.327   6.219  0.1229 -0.0655  0.0879
 1001YOPC   C1A14163   0.442   6.784   6.465  0.1775  0.2275  0.2586
 1001YOPC   D2A14164   0.618   6.655   6.906 -0.0287  0.3344 -0.2151
 1001YOPC   C3A14165   0.831   6.882   7.277 -0.0700 -0.0978  0.0535
 1001YOPC   C4A14166   0.691   7.033   7.639  0.1873 -0.1849 -0.1880
 1001YOPC   C1B14167   0.860   6.375   6.601  0.3061 -0.2557  0.0462
 1001YOPC   C2B14168   1.155   6.650   6.993  0.0288 -0.1349  0.1635
 1001YOPC   D3B14169   1.247   6.621   7.326  0.1205 -0.2208  0.0806
 1001YOPC   C4B14170   1.228   6.822   7.780  0.0080 -0.3475  0.1306
 1002YOPC   NC314171   8.201  17.012   5.355 -0.4586  0.4319 -0.1569
 1002YOPC   PO414172   8.492  16.760   5.376  0.1214  0.0104 -0.0854
 1002YOPC   GL114173   8.478  16.880   5.761  0.0170 -0.0223  0.1043
 1002YOPC   GL214174   8.270  17.199   5.863  0.2093  0.2659  0.1714
 1002YOPC   C1A14175   8.757  16.978   6.074 -0.1006 -0.1854 -0.1579
 1002YOPC   D2A14176   8.922  16.838   6.422 -0.1220  0.2619 -0.1064
 1002YOPC   C3A14177   8.845  16.838   6.891  0.2273 -0.2435 -0.4195
 1002YOPC   C4A14178   8.858  16.738   7.274  0.1592  0.1995  0.0342
 1002YOPC   C1B14179   8.523  17.380   6.155  0.0900 -0.2444  0.1548
 1002YOPC   C2B14180   8.817  17.609   6.506 -0.0106  0.2858  0.0407
 1002YOPC   D3B14181   9.052  17.273   6.710 -0.0427  0.0894 -0.3112
 1002YOPC   C4B14182   9.330  17.127   7.020  0.0600 -0.0261  0.0824
 1003YOPC   NC314183   9.746   0.143   5.075 -0.1792  0.0394 -0.0276
 1003YOPC   PO414184   9.932   0.112   5.514  0.1685 -0.2664 -0.1249
 1003YOPC   GL114185  10.134   0.191   5.934 -0.1540  0.3432  0.0515
 1003YOPC   GL214186  10.447   0.098   6.025 -0.1394 -0.3016 -0.0961
 1003YOPC   C1A14187   9.877   0.026   6.383 -0.1200  0.1956  0.1644
 1003YOPC   D2A14188   9.775  -0.151   6.898  0.1982 -0.3016 -0.2336
 1003YOPC   C3A14189  10.078  -0.167   7.295 -0.0888  0.1022 -0.1418
 1003YOPC   C4A14190  10.355  -0.479   7.391  0.3206  0.0142 -0.0144
 1003YOPC   C1B14191  10.351  -0.004   6.501  0.2425  0.4499  0.0469
 1003YOPC   C2B14192  10.382  -0.148   6.853 -0.0797 -0.0533  0.2722
 1003YOPC   D3B14193  10.569  -0.120   7.171 -0.1481 -0.0375 -0.2451
 1003YOPC   C4B14194  10.674  -0.112   7.605  0.0034 -0.2217 -0.2417
 1004YOPC   NC314195  17.544  13.700   5.348 -0.0566 -0.0302  0.1158
 1004YOPC   PO414196  17.169  13.700   5.497  0.1887 -0.0342  0.0556
 1004YOPC   GL114197  16.937  13.594   5.762  0.2293 -0.0430 -0.1879
 1004YOPC   GL214198  16.633  13.811   5.837  0.3056 -0.0808  0.2658
 1004YOPC   C1A14199  16.982  13.388   6.176  0.0605  0.2298  0.0123
 1004YOPC   D2A14200  16.860  13.123   6.542  0.3575 -0.0886 -0.0071
 1004YOPC   C3A14201  16.768  13.344   6.898  0.1298  0.2472  0.1310
 1004YOPC   C4A14202  16.866  13.689   7.157 -0.0375  0.1849 -0.0500
 1004YOPC   C1B14203  16.785  13.891   6.205  0.1570 -0.0505 -0.0430
 1004YOPC   C2B14204  17.085  14.108   6.516  0.1810  0.1776 -0.1332
 1004YOPC   D3B14205  17.156  14.061   7.018 -0.0260  0.0281  0.2424
 1004YOPC   C4B14206  17.183  14.213   7.534 -0.2305  0.0304 -0.0485
 1005YOPC   NC314207  13.841   5.685   5.575 -0.0409  0.0794 -0.1337
 1005YOPC   PO414208  13.979   5.222   5.559 -0.0389 -0.1053  0.2902
 1005YOPC   GL114209  14.156   5.010   5.913 -0.4973  0.0229  0.0848
 1005YOPC   GL214210  14.457   5.010   5.775 -0.1044 -0.0951  0.0013
 1005YOPC   C1A14211  14.117   4.611   6.177 -0.2042 -0.3537  0.1404
 1005YOPC   D2A14212  14.141   4.385   6.585 -0.0087  0.2015 -0.0133
 1005YOPC   C3A14213  14.135   4.797   6.861 -0.1165 -0.0172 -0.1087
 1005YOPC   C4A14214  14.245   4.689   7.360 -0.3933 -0.0780  0.1738
 1005YOPC   C1B14215  14.516   5.189   6.127 -0.2599 -0.0556  0.0713
 1005YOPC   C2B14216  14.502   5.406   6.498 -0.0911  0.1075  0.1030
 1005YOPC   D3B14217  14.527   5.144   6.894  0.1050 -0.0488  0.0799
 1005YOPC   C4B14218  14.490   5.181   7.281  0.0219 -0.2498  0.3291
 1006YOPC   NC314219   2.144   9.705   5.479 -0.1311  0.2297  0.0326
 1006YOPC   PO414220   2.494   9.651   5.819  0.0757  0.0167 -0.2000
 1006YOPC   GL114221   2.527   9.564   6.304 -0.3092 -0.0778  0.3180
 1006YOPC   GL214222   2.516   9.891   6.486 -0.0965  0.0541 -0.0080
 1006YOPC   C1A14223   2.698   9.446   6.701  0.3631  0.0290 -0.1298
 1006YOPC   D2A14224   2.640   9.388   7.141 -0.0579  0.1257  0.0695
 1006YOPC   C3A14225   2.686   9.506   7.514  0.2244  0.2452 -0.0945
 1006YOPC   C4A14226   2.702   9.518   7.968 -0.1943  0.1807 -0.0307
 1006YOPC   C1B14227   2.637   9.903   6.872  0.1984 -0.1747 -0.1551
 1006YOPC   C2B14228   2.607   9.979   7.369  0.1966  0.1826 -0.0857
 1006YOPC   D3B14229   2.891   9.951   7.823  0.2069  0.3240  0.0471
 1006YOPC   C4B14230   3.341   9.925   8.021 -0.3534  0.4430 -0.1641
 1007YOPC   NC314231  13.297   1.789   5.832  0.0596 -0.1875 -0.1787
 1007YOPC   PO414232  13.154   2.173   5.860  0.0044  0.0512 -0.0619
 1007YOPC   GL114233  13.273   2.326   6.190  0.2595  0.1597 -0.1803
 1007YOPC   GL214234  13.596   2.472   6.201 -0.0684  0.0388 -0.1193
 1007YOPC   C1A14235  13.376   2.207   6.580 -0.0144  0.2006  0.2551
 1007YOPC   D2A14236  13.185   1.994   6.879 -0.4788 -0.3044 -0.4744
 1007YOPC   C3A14237  13.324   2.169   7.221 -0.0962  0.1434 -0.0050
 1007YOPC   C4A14238  13.523   2.547   7.555 -0.0665  0.2941  0.1021
 1007YOPC   C1B14239  13.791   2.490   6.562 -0.3359 -0.0388 -0.0408
 1007YOPC   C2B14240  13.700   2.456   6.978 -0.0589  0.2026 -0.0669
 1007YOPC   D3B14241  13.952   2.340   7.301  0.0458 -0.1582 -0.1011
 1007YOPC   C4B14242  14.251   2.330   7.602  0.2080  0.0468  0.3468
 1008YOPC   NC314243   4.982  16.869   5.421  0.4544 -0.1665 -0.2798
 1008YOPC   PO414244   5.123  16.625   5.801 -0.5258 -0.4123  0.0863
 1008YOPC   GL114245   5.139  16.824   6.183 -0.0782  0.2271  0.2627
 1008YOPC   GL214246   4.963  17.055   6.317  0.3099 -0.0018 -0.2267
 1008YOPC   C1A14247   5.347  17.291   6.452 -0.1845  0.0529 -0.3783
 1008YOPC   D2A14248   5.287  17.625   6.735  0.3583  0.0943  0.0452
 1008YOPC   C3A14249   5.448  17.574   7.149  0.1767 -0.2511 -0.2048
 1008YOPC   C4A14250   5.287  17.271   7.477 -0.3525  0.2123  0.0080
 1008YOPC   C1B14251   5.052  16.948   6.738 -0.1576  0.0968 -0.0261
 1008YOPC   C2B14252   4.944  17.261   7.033  0.1170  0.0421  0.0819
 1008YOPC   D3B14253   4.770  17.177   7.334  0.0280 -0.1982  0.2618
 1008YOPC   C4B14254   4.794  16.738   7.617  0.0125 -0.0910 -0.0904
 1009YOPC   NC314255   9.015   0.164   4.786 -0.0236 -0.0491  0.2089
 1009YOPC   PO414256   8.638   0.289   5.089  0.0785 -0.0569  0.1768
 1009YOPC   GL114257   8.616   0.288   5.513 -0.0522 -0.1275  0.2228
 1009YOPC   GL214258   8.572  -0.054   5.717  0.0896 -0.2468  0.2576
 1009YOPC   C1A14259   8.880   0.306   5.763 -0.4877  0.0173  0.3361
 1009YOPC   D2A14260   9.112   0.332   6.124 -0.3873  0.0172  0.0352
 1009YOPC   C3A14261   9.397   0.039   6.184 -0.0038  0.2753  0.2766
 1009YOPC   C4A14262   9.502  -0.305   6.508  0.2307  0.1071  0.1354
 1009YOPC   C1B14263   8.367  -0.154   6.033  0.0095 -0.3058  0.1056
 1009YOPC   C2B14264   8.336  -0.192   6.417  0.1056  0.0017  0.2753
 1009YOPC   D3B14265   8.415  -0.011   6.745  0.0387  0.2370 -0.4424
 1009YOPC   C4B14266   8.488  -0.155   7.215 -0.4154 -0.1885 -0.3151
 1010YOPC   NC314267   1.145  15.263   5.213 -0.0264 -0.3409  0.0938
 1010YOPC   PO414268   1.587  15.342   5.371 -0.2678 -0.3433 -0.0028
 1010YOPC   GL114269   1.752  15.273   5.731  0.1342  0.1312 -0.0135
 1010YOPC   GL214270   1.687  14.990   5.826 -0.0286  0.0776 -0.2569
 1010YOPC   C1A14271   1.730  15.386   6.237 -0.4439 -0.2039 -0.2427
 1010YOPC   D2A14272   1.801  15.111   6.669  0.0055  0.0361  0.0628
 1010YOPC   C3A14273   2.185  15.065   7.018 -0.2132 -0.1886 -0.0334
 1010YOPC   C4A14274   2.221  15.013   7.457  0.2348  0.1332  0.2209
 1010YOPC   C1B14275   1.692  14.725   6.045 -0.1353 -0.0758  0.2917
 1010YOPC   C2B14276   1.762  14.705   6.377  0.0960 -0.2561  0.0334
 1010YOPC   D3B14277   1.564  14.524   6.605  0.0094 -0.1426  0.1334
 1010YOPC   C4B14278   1.384  14.138   6.783  0.0822 -0.2482  0.0845
 1011YOPC   NC314279  15.236   2.062   5.268  0.1201  0.1676 -0.2020
 1011YOPC   PO414280  15.056   1.601   5.398  0.0348 -0.1193 -0.0325
 1011YOPC   GL114281  15.174   1.735   5.768 -0.1397 -0.1891 -0.1369
 1011YOPC   GL214282  15.372   1.545   5.979 -0.1247  0.1846 -0.0899
 1011YOPC   C1A14283  15.412   2.131   5.963 -0.1154 -0.3170 -0.0827
 1011YOPC   D2A14284  15.310   2.256   6.342 -0.3300  0.2189  0.0991
 1011YOPC   C3A14285  15.048   2.235   6.541  0.0104  0.0532 -0.0569
 1011YOPC   C4A14286  14.906   2.163   6.974  0.0217  0.0534  0.1157
 1011YOPC   C1B14287  15.579   1.405   6.367 -0.1951  0.0066  0.2886
 1011YOPC   C2B14288  15.708   1.374   6.772 -0.4343 -0.1160 -0.0487
 1011YOPC   D3B14289  15.486   1.201   7.126 -0.2795  0.1052 -0.2419
 1011YOPC   C4B14290  15.317   1.122   7.591  0.0395 -0.1278  0.1222
 1012YOPC   NC314291   4.120  12.579   5.521 -0.2760  0.1522  0.0925
 1012YOPC   PO414292   4.539  12.433   5.622 -0.0477  0.3713  0.0468
 1012YOPC   GL114293   4.635  12.662   5.966 -0.1226 -0.1173 -0.1817
 1012YOPC   GL214294   4.925  12.576   6.099 -0.0983  0.1862  0.2948
 1012YOPC   C1A14295   4.605  13.097   6.097 -0.1451  0.1527  0.1926
 1012YOPC   D2A14296   4.304  13.221   5.913 -0.2435  0.0748 -0.1384
 1012YOPC   C3A14297   3.893  13.013   6.076 -0.0209 -0.0391  0.0823
 1012YOPC   C4A14298   3.712  13.109   6.472 -0.2749  0.1095 -0.0259
 1012YOPC   C1B14299   4.711  12.702   6.533 -0.0548  0.0632  0.3747
 1012YOPC   C2B14300   4.665  12.613   6.886  0.3699  0.3527 -0.0796
 1012YOPC   D3B14301   4.563  12.976   7.146 -0.1017 -0.1569  0.2137
 1012YOPC   C4B14302   4.562  13.066   7.542 -0.2184  0.1385  0.0132
 1013YOPC   NC314303   6.297   4.285   5.163 -0.3324 -0.1384 -0.1336
 1013YOPC   PO414304   6.179   4.552   5.531  0.3664 -0.0286 -0.0882
 1013YOPC   GL114305   6.217   4.438   5.950  0.2614  0.0792  0.0508
 1013YOPC   GL214306   6.292   4.194   6.029  0.3050 -0.0246  0.1300
 1013YOPC   C1A14307   6.078   4.581   6.392  0.0348  0.0335  0.2714
 1013YOPC   D2A14308   5.965   4.430   6.722  0.1967 -0.0131 -0.0174
 1013YOPC   C3A14309   5.795   4.573   7.006 -0.1923  0.1468  0.1346
 1013YOPC   C4A14310   5.889   4.489   7.320 -0.0226 -0.0791  0.2008
 1013YOPC   C1B14311   6.329   3.816   6.204  0.1253 -0.0095 -0.0264
 1013YOPC   C2B14312   6.404   3.378   6.163 -0.1584 -0.1321  0.0240
 1013YOPC   D3B14313   6.333   2.983   6.421 -0.0167 -0.1253  0.3813
 1013YOPC   C4B14314   6.293   2.670   6.762 -0.1534  0.1391  0.1050
 1014YOPC   NC314315  11.992  12.313   5.122 -0.1198 -0.0720 -0.1477
 1014YOPC   PO414316  11.661  12.081   5.358  0.1480 -0.1004  0.0350
 1014YOPC   GL114317  11.690  12.253   5.754 -0.1319 -0.1343 -0.1983
 1014YOPC   GL214318  11.582  12.035   5.951  0.1291  0.2303  0.1295
 1014YOPC   C1A14319  12.024  12.282   6.161  0.2277 -0.2864 -0.1879
 1014YOPC   D2A14320  12.120  12.281   6.554  0.1461 -0.0644 -0.0317
 1014YOPC   C3A14321  12.217  12.032   6.826  0.0419  0.1242  0.0187
 1014YOPC   C4A14322  12.463  11.923   7.187 -0.2237  0.1940  0.0226
 1014YOPC   C1B14323  11.504  11.742   6.298  0.0232  0.2426 -0.0604
 1014YOPC   C2B14324  11.503  11.562   6.709  0.3253  0.0769 -0.0518
 1014YOPC   D3B14325  11.826  11.711   6.896  0.4014 -0.0298 -0.3043
 1014YOPC   C4B14326  11.944  12.003   7.293  0.0673  0.1637 -0.1732
 1015YOPC   NC314327  15.636   3.918   5.472 -0.1450  0.1305 -0.0724
 1015YOPC   PO414328  16.085   3.821   5.427  0.1289 -0.3373  0.0768
 1015YOPC   GL114329  16.070   3.918   5.786 -0.2195  0.2039  0.0853
 1015YOPC   GL214330  15.811   4.110   5.857 -0.1331 -0.1536 -0.0168
 1015YOPC   C1A14331  16.221   3.936   6.170  0.2367 -0.3669  0.1807
 1015YOPC   D2A14332  16.102   4.122   6.539 -0.0421  0.1716  0.0243
 1015YOPC   C3A14333  16.309   4.036   6.905 -0.2521 -0.0652 -0.3832
 1015YOPC   C4A14334  16.257   4.036   7.340 -0.3002 -0.0179  0.1172
 1015YOPC   C1B14335  15.596   4.120   6.294 -0.3819  0.0577 -0.1133
 1015YOPC   C2B14336  15.712   4.374   6.665 -0.1492 -0.0135  0.0682
 1015YOPC   D3B14337  15.822   4.415   7.061  0.1666 -0.0712 -0.0409
 1015YOPC   C4B14338  16.174   4.518   7.173 -0.0950 -0.0924  0.0981
 1016YOPC   NC314339   0.118  11.967   5.784  0.0174  0.1540 -0.0072
 1016YOPC   PO414340  -0.292  12.099   5.875  0.2704  0.1123  0.3266
 1016YOPC   GL114341  -0.163  12.137   6.255  0.5217 -0.1721 -0.0055
 1016YOPC   GL214342  -0.154  12.411   6.276 -0.1412  0.0349  0.1196
 1016YOPC   C1A14343  -0.300  12.051   6.741 -0.2540 -0.1525 -0.3608
 1016YOPC   D2A14344  -0.592  11.880   7.007  0.1892 -0.1943 -0.2585
 1016YOPC   C3A14345  -1.040  11.815   6.964 -0.3528  0.2965 -0.0820
 1016YOPC   C4A14346  -1.376  11.596   7.166  0.0547 -0.4117  0.1544
 1016YOPC   C1B14347  -0.172  12.672   6.599  0.0739  0.2827  0.0741
 1016YOPC   C2B14348  -0.137  12.808   7.016  0.0306  0.1165 -0.2622
 1016YOPC   D3B14349   0.097  12.728   7.384 -0.0637 -0.2473 -0.4411
 1016YOPC   C4B14350   0.220  12.709   7.817  0.0409 -0.0941  0.0249
 1017YOPC   NC314351   3.151  10.137   5.703  0.0958 -0.2081  0.2643
 1017YOPC   PO414352   3.683  10.212   5.579 -0.0514 -0.0069 -0.3378
 1017YOPC   GL114353   4.005   9.850   5.789 -0.2471  0.0376 -0.1386
 1017YOPC   GL214354   4.304  10.019   5.741 -0.0950  0.1590 -0.0122
 1017YOPC   C1A14355   4.084   9.778   6.169 -0.1626  0.2995 -0.0376
 1017YOPC   D2A14356   3.952   9.796   6.534 -0.2255  0.1043 -0.1294
 1017YOPC   C3A14357   4.180   9.936   6.955  0.0755  0.1132 -0.0976
 1017YOPC   C4A14358   4.302   9.828   7.366  0.0155  0.1092 -0.0929
 1017YOPC   C1B14359   4.598   9.837   6.070  0.0272  0.1892 -0.1935
 1017YOPC   C2B14360   4.434   9.734   6.548 -0.3406  0.1987  0.1686
 1017YOPC   D3B14361   4.643   9.644   6.923 -0.0244  0.0063 -0.1520
 1017YOPC   C4B14362   4.586   9.376   7.234 -0.2340  0.0554 -0.0137
 1018YOPC   NC314363  12.204  17.419   5.554  0.0173  0.1069 -0.2476
 1018YOPC   PO414364  12.683  17.413   5.609 -0.2799  0.0227  0.0818
 1018YOPC   GL114365  12.943  17.567   5.794  0.1637  0.0178  0.0289
 1018YOPC   GL214366  12.871  17.976   6.023  0.0911  0.0818 -0.1614
 1018YOPC   C1A14367  13.298  17.516   6.009  0.1888 -0.1520  0.0449
 1018YOPC   D2A14368  13.671  17.415   6.248 -0.1372 -0.0450 -0.1838
 1018YOPC   C3A14369  13.705  17.172   6.584  0.1061  0.0619  0.4098
 1018YOPC   C4A14370  13.731  17.291   6.982  0.0716 -0.0176 -0.2872
 1018YOPC   C1B14371  13.070  17.793   6.361  0.1041  0.3369 -0.1234
 1018YOPC   C2B14372  13.292  17.551   6.594 -0.3931  0.1427  0.1061
 1018YOPC   D3B14373  13.180  17.415   7.007  0.2181  0.5389 -0.0298
 1018YOPC   C4B14374  13.206  17.442   7.409  0.3089  0.2969 -0.2601
 1019YOPC   NC314375  15.999  11.536   4.534 -0.0733 -0.0874  0.1628
 1019YOPC   PO414376  16.127  11.597   5.053 -0.4028  0.0443 -0.3871
 1019YOPC   GL114377  16.174  11.510   5.567 -0.1677 -0.0051  0.1017
 1019YOPC   GL214378  16.090  11.110   5.634 -0.2351 -0.1576 -0.1381
 1019YOPC   C1A14379  16.185  11.460   6.042  0.2333  0.0617  0.1300
 1019YOPC   D2A14380  16.288  11.162   6.357  0.1182  0.3394  0.0620
 1019YOPC   C3A14381  16.733  11.265   6.449  0.2602  0.0685  0.0955
 1019YOPC   C4A14382  17.031  11.427   6.799  0.1022 -0.1631  0.0936
 1019YOPC   C1B14383  15.691  11.258   5.728 -0.0162  0.0672  0.0651
 1019YOPC   C2B14384  15.344  10.996   5.812 -0.0855 -0.0081 -0.0428
 1019YOPC   D3B14385  15.476  10.855   6.151 -0.0956 -0.1276  0.2187
 1019YOPC   C4B14386  15.694  10.457   6.227  0.1081 -0.1288 -0.1053
 1020YOPC   NC314387   4.590   7.617   5.417 -0.1725 -0.1472  0.0999
 1020YOPC   PO414388   4.199   7.720   5.475 -0.2796 -0.1775  0.0148
 1020YOPC   GL114389   4.123   7.859   5.850  0.3431  0.1024 -0.1517
 1020YOPC   GL214390   3.918   7.636   6.059 -0.1198  0.2094 -0.0053
 1020YOPC   C1A14391   4.098   8.231   6.164  0.1420  0.1077  0.2053
 1020YOPC   D2A14392   4.398   8.510   6.248 -0.2515  0.0634  0.0023
 1020YOPC   C3A14393   4.273   8.463   6.714  0.0847  0.1027  0.0980
 1020YOPC   C4A14394   4.032   8.412   7.119 -0.1611  0.0438 -0.2247
 1020YOPC   C1B14395   3.797   7.819   6.437  0.2571  0.1542  0.4523
 1020YOPC   C2B14396   3.696   7.984   6.923 -0.1987  0.3228 -0.0979
 1020YOPC   D3B14397   3.626   8.129   7.265 -0.0397 -0.2299 -0.0426
 1020YOPC   C4B14398   3.578   8.111   7.712  0.1070  0.0070 -0.1650
 1021YOPC   NC314399   6.151   1.260   5.407 -0.2276 -0.1788  0.6411
 1021YOPC   PO414400   6.002   0.924   5.655 -0.0455 -0.0245 -0.2070
 1021YOPC   GL114401   6.166   0.904   5.990 -0.1544  0.2219  0.0081
 1021YOPC   GL214402   6.054   0.731   6.176 -0.0087  0.1653 -0.0683
 1021YOPC   C1A14403   6.272   1.165   6.323  0.1151  0.1988 -0.1229
 1021YOPC   D2A14404   6.056   1.573   6.529 -0.2157  0.1095  0.1193
 1021YOPC   C3A14405   6.162   1.566   6.980 -0.0359  0.2158 -0.1350
 1021YOPC   C4A14406   6.390   1.516   7.338 -0.1626  0.0052 -0.2059
 1021YOPC   C1B14407   6.003   0.530   6.609  0.4119  0.0673 -0.0509
 1021YOPC   C2B14408   5.901   0.630   6.991 -0.1721  0.0832  0.1298
 1021YOPC   D3B14409   5.457   0.618   7.038 -0.0476 -0.1286  0.3674
 1021YOPC   C4B14410   5.262   0.661   7.474  0.0555 -0.3002  0.1164
 1022YOPC   NC314411  18.220   2.604   5.747 -0.0426  0.0355 -0.1694
 1022YOPC   PO414412  17.957   2.268   5.831 -0.0245  0.0311  0.1080
 1022YOPC   GL114413  18.049   2.419   6.204 -0.0151  0.0581  0.2020
 1022YOPC   GL214414  18.065   2.820   6.204 -0.0496  0.1410 -0.0157
 1022YOPC   C1A14415  17.972   2.353   6.660 -0.2709  0.1165 -0.0322
 1022YOPC   D2A14416  18.178   2.528   7.051 -0.0643 -0.0941  0.0006
 1022YOPC   C3A14417  18.030   2.330   7.393  0.1890 -0.1500  0.0261
 1022YOPC   C4A14418  18.110   1.870   7.613  0.2441 -0.2053 -0.5121
 1022YOPC   C1B14419  18.134   2.898   6.642 -0.1557  0.2319  0.0587
 1022YOPC   C2B14420  18.211   3.073   7.111  0.1332  0.3253  0.0718
 1022YOPC   D3B14421  18.652   3.215   7.375  0.1176  0.0585  0.3341
 1022YOPC   C4B14422  19.183   3.148   7.475  0.3084  0.1327  0.0502
 1023YOPC   NC314423   4.967   5.034   5.744  0.2137  0.1812 -0.6097
 1023YOPC   PO414424   5.357   4.895   5.751 -0.0894 -0.4651 -0.1811
 1023YOPC   GL114425   5.231   4.905   6.198 -0.3149 -0.0974 -0.1045
 1023YOPC   GL214426   5.191   4.666   6.390  0.2511 -0.0749 -0.2175
 1023YOPC   C1A14427   5.010   5.167   6.584  0.0037  0.0354  0.0369
 1023YOPC   D2A14428   5.232   5.400   6.968 -0.1327 -0.0595  0.1631
 1023YOPC   C3A14429   5.299   5.367   7.500  0.1779  0.2905 -0.1064
 1023YOPC   C4A14430   5.020   5.317   7.856 -0.0370  0.0764  0.2078
 1023YOPC   C1B14431   5.506   4.415   6.566  0.1345  0.3005 -0.3636
 1023YOPC   C2B14432   5.454   4.188   6.809  0.1030  0.2131  0.1760
 1023YOPC   D3B14433   5.495   4.219   7.201  0.5318 -0.3511 -0.3682
 1023YOPC   C4B14434   5.376   4.395   7.558  0.0143 -0.0808  0.0530
 1024YOPC   NC314435   8.082   8.116   5.786  0.1128  0.2443 -0.1808
 1024YOPC   PO414436   8.185   8.525   5.670  0.3515 -0.0913  0.1287
 1024YOPC   GL114437   8.261   8.637   5.991  0.0136  0.1150 -0.2142
 1024YOPC   GL214438   8.366   8.491   6.243  0.2719 -0.0310  0.1873
 1024YOPC   C1A14439   8.056   8.902   6.288  0.1089 -0.1048  0.0193
 1024YOPC   D2A14440   8.161   9.248   6.426 -0.0109 -0.1186  0.0694
 1024YOPC   C3A14441   8.176   9.652   6.188 -0.0489  0.2315  0.2620
 1024YOPC   C4A14442   8.445   9.895   5.846 -0.0659 -0.1187  0.0468
 1024YOPC   C1B14443   8.274   8.551   6.737 -0.0184  0.1310  0.0536
 1024YOPC   C2B14444   7.906   8.757   6.821 -0.0867  0.2246 -0.1372
 1024YOPC   D3B14445   7.851   8.925   7.254 -0.0925 -0.0602 -0.2896
 1024YOPC   C4B14446   7.746   8.962   7.730  0.1615  0.0650  0.0809
 1025YOPC   NC314447  10.224   7.709   6.033  0.1375  0.2525 -0.0379
 1025YOPC   PO414448  10.162   8.174   5.813 -0.1514 -0.1490  0.1117
 1025YOPC   GL114449  10.328   8.223   6.164 -0.2030 -0.1545 -0.0647
 1025YOPC   GL214450  10.373   8.634   6.228  0.1882  0.1742 -0.0556
 1025YOPC   C1A14451  10.190   8.188   6.587 -0.0321  0.1121 -0.0208
 1025YOPC   D2A14452  10.005   8.218   6.922  0.5071  0.0623  0.0947
 1025YOPC   C3A14453   9.944   8.465   7.285 -0.1852  0.0699 -0.1992
 1025YOPC   C4A14454  10.004   8.614   7.775  0.0669  0.1717  0.1603
 1025YOPC   C1B14455  10.796   8.745   5.999  0.0862 -0.1439 -0.1699
 1025YOPC   C2B14456  11.137   9.027   5.961 -0.1174  0.0654 -0.0999
 1025YOPC   D3B14457  11.002   9.329   6.266 -0.1800 -0.3041  0.1567
 1025YOPC   C4B14458  10.888   9.354   6.760 -0.0740 -0.0763 -0.0269
 1026YOPC   NC314459   7.786   7.602   5.330  0.1397 -0.2989  0.0009
 1026YOPC   PO414460   7.717   7.781   5.842 -0.0169  0.2641  0.1748
 1026YOPC   GL114461   7.790   7.941   6.153  0.0185 -0.0068  0.2273
 1026YOPC   GL214462   7.887   8.355   6.153  0.0598  0.0144  0.0500
 1026YOPC   C1A14463   7.944   7.757   6.550 -0.0909  0.0853 -0.1706
 1026YOPC   D2A14464   7.993   7.880   6.875  0.1106  0.2873  0.1078
 1026YOPC   C3A14465   7.884   7.775   7.199  0.0880 -0.2514  0.4498
 1026YOPC   C4A14466   7.725   8.030   7.472 -0.0732 -0.0425 -0.1252
 1026YOPC   C1B14467   7.854   8.255   6.647 -0.2540  0.1026  0.1633
 1026YOPC   C2B14468   7.850   8.342   7.138  0.0290 -0.0539 -0.0798
 1026YOPC   D3B14469   7.951   8.437   7.580  0.1354 -0.0876  0.1080
 1026YOPC   C4B14470   7.756   8.415   8.085  0.2924  0.0100  0.1474
 1027YOPC   NC314471  11.858  16.019   5.613  0.4068  0.1979  0.2671
 1027YOPC   PO414472  11.447  16.257   5.629  0.1709  0.0750  0.0220
 1027YOPC   GL114473  11.512  16.248   6.075  0.2414  0.0217  0.3983
 1027YOPC   GL214474  11.862  16.330   5.992 -0.0389  0.1050  0.0289
 1027YOPC   C1A14475  11.471  16.299   6.445  0.0447  0.0606  0.1812
 1027YOPC   D2A14476  11.424  16.398   6.862 -0.0122  0.0261 -0.1598
 1027YOPC   C3A14477  11.304  16.520   7.225  0.2574  0.1773  0.0320
 1027YOPC   C4A14478  10.895  16.577   7.463 -0.1194  0.2427 -0.1640
 1027YOPC   C1B14479  11.988  16.100   6.427  0.1246  0.0570  0.2434
 1027YOPC   C2B14480  11.932  15.959   6.918 -0.3170 -0.2896  0.0002
 1027YOPC   D3B14481  12.044  16.291   7.230 -0.1331  0.0552 -0.1425
 1027YOPC   C4B14482  12.295  16.309   7.641 -0.0334  0.0952 -0.0469
 1028YOPC   NC314483   7.068  10.195   5.422 -0.0670  0.0838  0.0368
 1028YOPC   PO414484   7.479  10.168   5.534  0.0135 -0.0746  0.0753
 1028YOPC   GL114485   7.297   9.863   5.848  0.2148  0.0595 -0.2079
 1028YOPC   GL214486   6.988   9.937   5.852 -0.2390  0.2554  0.2414
 1028YOPC   C1A14487   7.247  10.022   6.329  0.1135 -0.1618 -0.2771
 1028YOPC   D2A14488   7.537   9.973   6.695  0.0744  0.3608  0.2486
 1028YOPC   C3A14489   7.938   9.708   6.594  0.2095  0.1389  0.0325
 1028YOPC   C4A14490   8.450   9.622   6.606  0.0679 -0.2163  0.0045
 1028YOPC   C1B14491   6.762  10.129   6.256 -0.2415 -0.0046  0.1108
 1028YOPC   C2B14492   6.735  10.383   6.638  0.0732 -0.2100  0.2263
 1028YOPC   D3B14493   6.710  10.236   7.005  0.1851  0.1006  0.0210
 1028YOPC   C4B14494   6.679   9.834   7.184  0.2582  0.2109 -0.1761
 1029YOPC   NC314495  13.839   6.800   4.919 -0.1415 -0.0249 -0.0213
 1029YOPC   PO414496  13.935   6.720   5.347 -0.1190  0.0268 -0.0951
 1029YOPC   GL114497  13.988   6.717   5.755  0.1544 -0.1711 -0.0935
 1029YOPC   GL214498  13.642   6.614   5.845  0.0910  0.0092 -0.0751
 1029YOPC   C1A14499  14.229   6.929   6.118 -0.3359 -0.1411  0.0100
 1029YOPC   D2A14500  14.133   6.953   6.567 -0.1032 -0.2363 -0.1034
 1029YOPC   C3A14501  13.807   6.792   6.861  0.0767 -0.1798 -0.2393
 1029YOPC   C4A14502  13.424   6.778   6.699 -0.0943  0.1079 -0.0046
 1029YOPC   C1B14503  13.774   6.626   6.282  0.1523 -0.2411 -0.0589
 1029YOPC   C2B14504  13.586   6.301   6.423 -0.1380  0.0469 -0.0345
 1029YOPC   D3B14505  13.642   6.300   6.907 -0.3330  0.0717  0.0882
 1029YOPC   C4B14506  13.937   6.475   7.198 -0.2110  0.0834 -0.3893
 1030YOPC   NC314507  11.346   8.667   5.646  0.2129  0.2072 -0.3047
 1030YOPC   PO414508  11.510   9.124   5.459 -0.2750 -0.0463 -0.1706
 1030YOPC   GL114509  11.623   9.141   5.826 -0.0077 -0.2322 -0.1742
 1030YOPC   GL214510  11.711   9.500   5.879  0.1609 -0.0034 -0.1185
 1030YOPC   C1A14511  11.558   9.287   6.307 -0.0656 -0.1897 -0.1560
 1030YOPC   D2A14512  11.372   9.256   6.710 -0.1612 -0.0316 -0.1355
 1030YOPC   C3A14513  11.411   9.345   7.155 -0.1261 -0.1074 -0.1091
 1030YOPC   C4A14514  11.627   9.305   7.434  0.1477 -0.1752 -0.0698
 1030YOPC   C1B14515  11.665   9.783   6.218  0.0102 -0.2015  0.0507
 1030YOPC   C2B14516  11.570  10.175   6.440 -0.2828 -0.4821  0.0946
 1030YOPC   D3B14517  11.544  10.210   6.943  0.1114 -0.2285  0.1045
 1030YOPC   C4B14518  11.668  10.360   7.211 -0.1595  0.2591 -0.1127
 1031YOPC   NC314519  12.415  18.221   5.677 -0.2121  0.2470  0.0364
 1031YOPC   PO414520  12.430  17.801   5.774 -0.0735 -0.1663 -0.4482
 1031YOPC   GL114521  12.528  17.590   6.060  0.0435  0.0904 -0.2136
 1031YOPC   GL214522  12.169  17.462   6.118 -0.3057 -0.2802 -0.0072
 1031YOPC   C1A14523  12.736  17.434   6.444 -0.1971  0.0483 -0.1831
 1031YOPC   D2A14524  12.798  17.704   6.830  0.0828  0.0759 -0.0979
 1031YOPC   C3A14525  13.185  17.996   6.871  0.1794  0.1560  0.0572
 1031YOPC   C4A14526  13.433  17.787   7.009 -0.1765 -0.0103 -0.1026
 1031YOPC   C1B14527  12.280  17.138   6.211  0.2078 -0.2152  0.0156
 1031YOPC   C2B14528  12.499  16.987   6.487 -0.1890 -0.0479  0.2628
 1031YOPC   D3B14529  12.603  17.234   6.852 -0.0877 -0.1760 -0.1265
 1031YOPC   C4B14530  12.612  17.423   7.215 -0.0407 -0.3294  0.0176
 1032YOPC   NC314531   4.924  13.414   4.923  0.2567 -0.0002  0.5354
 1032YOPC   PO414532   4.762  13.842   4.917 -0.1600 -0.3847  0.0879
 1032YOPC   GL114533   4.817  13.820   5.361  0.0413 -0.2823 -0.2223
 1032YOPC   GL214534   4.593  14.041   5.569 -0.2180 -0.1116  0.4789
 1032YOPC   C1A14535   4.874  13.505   5.738 -0.0012 -0.1785  0.0967
 1032YOPC   D2A14536   4.732  13.719   6.079 -0.1538 -0.4058  0.3522
 1032YOPC   C3A14537   4.896  13.591   6.464 -0.1270 -0.1258 -0.0727
 1032YOPC   C4A14538   4.865  13.708   6.889  0.1220 -0.1345  0.2449
 1032YOPC   C1B14539   4.348  13.652   5.678 -0.2480  0.3678  0.1132
 1032YOPC   C2B14540   3.970  13.519   5.858  0.1888  0.1970 -0.0163
 1032YOPC   D3B14541   3.824  13.592   6.351  0.3691 -0.0609  0.1956
 1032YOPC   C4B14542   3.716  13.534   6.789  0.0900  0.0882  0.2765
 1033YOPC   NC314543  17.498  18.682   5.099  0.1541 -0.1076  0.0891
 1033YOPC   PO414544  17.748  18.600   5.424  0.0028  0.1608 -0.0567
 1033YOPC   GL114545  17.565  18.545   5.862 -0.0174 -0.4174 -0.0714
 1033YOPC   GL214546  17.806  18.708   6.076 -0.1222 -0.1147  0.3277
 1033YOPC   C1A14547  17.422  18.434   6.307  0.0016 -0.3380  0.1962
 1033YOPC   D2A14548  17.392  18.402   6.744  0.2573 -0.2920 -0.0102
 1033YOPC   C3A14549  17.506  18.231   7.191 -0.1145  0.0092  0.1491
 1033YOPC   C4A14550  17.418  18.063   7.547 -0.2531  0.0338 -0.1087
 1033YOPC   C1B14551  17.828  18.599   6.513  0.1584  0.3404 -0.1295
 1033YOPC   C2B14552  17.738  18.658   6.946 -0.1102  0.0950  0.2612
 1033YOPC   D3B14553  17.892  18.798   7.302  0.0972  0.1462  0.1540
 1033YOPC   C4B14554  17.780  19.028   7.645  0.0053 -0.0293 -0.0552
 1034YOPC   NC314555  13.705   7.699   4.701 -0.0762 -0.1070 -0.0406
 1034YOPC   PO414556  13.503   7.645   5.061  0.1457 -0.0493 -0.2211
 1034YOPC   GL114557  13.600   7.619   5.508  0.1721 -0.0661 -0.2252
 1034YOPC   GL214558  13.292   7.719   5.625 -0.0814  0.2031  0.0196
 1034YOPC   C1A14559  13.813   7.721   5.963 -0.1859  0.0603 -0.0414
 1034YOPC   D2A14560  13.872   7.782   6.359  0.3930 -0.0313 -0.0380
 1034YOPC   C3A14561  14.028   7.772   6.766 -0.0182  0.1792  0.2715
 1034YOPC   C4A14562  14.209   7.661   7.068  0.1398  0.2112 -0.5228
 1034YOPC   C1B14563  13.420   7.413   5.929 -0.1187  0.0794  0.1688
 1034YOPC   C2B14564  13.363   6.977   5.889  0.3112 -0.1036  0.0375
 1034YOPC   D3B14565  13.295   6.704   6.164  0.1351 -0.0550 -0.0338
 1034YOPC   C4B14566  13.017   6.614   6.480 -0.0081  0.2864 -0.0608
 1035YOPC   NC314567  12.811   6.798   5.576 -0.1738  0.0390 -0.2733
 1035YOPC   PO414568  12.948   6.388   5.591  0.2902 -0.1797  0.0874
 1035YOPC   GL114569  12.846   6.489   6.003  0.0670  0.3829 -0.1637
 1035YOPC   GL214570  12.869   6.874   6.058  0.1913 -0.0967  0.2030
 1035YOPC   C1A14571  12.649   6.340   6.434 -0.1438  0.0640  0.1192
 1035YOPC   D2A14572  12.853   6.320   6.826 -0.0440  0.0418 -0.3797
 1035YOPC   C3A14573  12.656   6.207   7.261  0.2115  0.0031  0.1073
 1035YOPC   C4A14574  12.423   6.416   7.604  0.1286 -0.0090  0.1717
 1035YOPC   C1B14575  13.219   7.121   6.375  0.1186 -0.1109  0.0784
 1035YOPC   C2B14576  13.080   7.438   6.679 -0.1305 -0.0700 -0.0037
 1035YOPC   D3B14577  12.910   7.441   7.102  0.0818  0.0545 -0.3397
 1035YOPC   C4B14578  13.008   7.181   7.400 -0.0030 -0.2153 -0.0860
 1036YOPC   NC314579   3.661  15.839   5.817 -0.1122  0.2500  0.1389
 1036YOPC   PO414580   4.034  16.093   5.685  0.1326 -0.1188 -0.0633
 1036YOPC   GL114581   4.090  16.274   6.041 -0.0777  0.2124  0.3089
 1036YOPC   GL214582   3.940  16.541   6.143  0.2606 -0.2171  0.1467
 1036YOPC   C1A14583   4.139  16.276   6.505 -0.2275  0.1531 -0.0999
 1036YOPC   D2A14584   4.015  16.337   6.898 -0.1934 -0.2059  0.0865
 1036YOPC   C3A14585   4.269  16.407   7.167  0.0774 -0.1449 -0.1445
 1036YOPC   C4A14586   4.679  16.339   7.372 -0.2614  0.0495 -0.1635
 1036YOPC   C1B14587   3.758  16.581   6.517 -0.0456  0.1817  0.0895
 1036YOPC   C2B14588   3.559  16.880   6.651 -0.2377  0.2242  0.1805
 1036YOPC   D3B14589   3.554  17.030   7.068  0.4015 -0.2374 -0.0831
 1036YOPC   C4B14590   3.400  17.067   7.465 -0.1011 -0.1654 -0.2571
 1037YOPC   NC314591  11.346   9.561   5.536 -0.0072 -0.3609 -0.1916
 1037YOPC   PO414592  10.992   9.842   5.503 -0.1721 -0.2489  0.3447
 1037YOPC   GL114593  10.891   9.754   5.967  0.0296 -0.0819 -0.0520
 1037YOPC   GL214594  10.626   9.785   5.932 -0.0220  0.0360  0.0637
 1037YOPC   C1A14595  11.167   9.800   6.353  0.0186 -0.0022 -0.0551
 1037YOPC   D2A14596  11.202   9.786   6.846  0.1564  0.2238 -0.3836
 1037YOPC   C3A14597  11.029   9.733   7.133  0.2458  0.0784 -0.0302
 1037YOPC   C4A14598  11.000   9.586   7.618  0.2431 -0.0155  0.2073
 1037YOPC   C1B14599  10.618   9.637   6.379 -0.0440 -0.1373  0.0731
 1037YOPC   C2B14600  10.507   9.642   6.807  0.1835  0.0665 -0.3287
 1037YOPC   D3B14601  10.580   9.476   7.211  0.2066 -0.2145 -0.0378
 1037YOPC   C4B14602  10.479   9.730   7.608  0.1381 -0.0046  0.1657
 1038YOPC   NC314603   0.568   7.555   5.283 -0.1273  0.0393  0.3069
 1038YOPC   PO414604   0.384   7.548   5.662  0.2151 -0.0709 -0.3441
 1038YOPC   GL114605   0.516   7.552   6.057 -0.1750  0.1256 -0.1465
 1038YOPC   GL214606   0.487   7.774   6.372  0.0039 -0.0217 -0.3346
 1038YOPC   C1A14607   0.587   7.273   6.371 -0.3510 -0.1459 -0.0143
 1038YOPC   D2A14608   0.400   7.131   6.812 -0.1787 -0.2680  0.2178
 1038YOPC   C3A14609   0.557   7.300   7.154  0.0980 -0.2769  0.0275
 1038YOPC   C4A14610   0.852   7.422   7.424  0.0250 -0.1014 -0.0099
 1038YOPC   C1B14611   0.528   7.750   6.790  0.1523 -0.2688  0.0595
 1038YOPC   C2B14612   0.576   7.798   7.167 -0.0908  0.5147  0.0730
 1038YOPC   D3B14613   0.831   8.053   7.524  0.0322 -0.0324  0.1069
 1038YOPC   C4B14614   0.574   8.264   7.843  0.0841  0.2745 -0.0110
 1039YOPC   NC314615  15.405   5.313   5.718  0.2143 -0.1936  0.0152
 1039YOPC   PO414616  15.787   4.992   5.697  0.0623  0.1189 -0.0732
 1039YOPC   GL114617  15.873   5.315   5.910  0.0662 -0.2037  0.1855
 1039YOPC   GL214618  15.779   5.664   5.929  0.0628  0.1771  0.0741
 1039YOPC   C1A14619  15.856   5.270   6.306 -0.0149 -0.5857 -0.1645
 1039YOPC   D2A14620  15.939   5.027   6.775  0.0909 -0.1412 -0.1349
 1039YOPC   C3A14621  15.963   4.932   7.153  0.3466 -0.1239  0.0297
 1039YOPC   C4A14622  16.094   4.950   7.637 -0.4288  0.1278  0.1713
 1039YOPC   C1B14623  15.986   5.827   6.199  0.3879 -0.0969  0.0143
 1039YOPC   C2B14624  16.152   6.307   6.238  0.0169 -0.3147  0.1407
 1039YOPC   D3B14625  16.236   6.476   6.551  0.2758 -0.1230  0.1455
 1039YOPC   C4B14626  16.222   6.315   6.986 -0.1314  0.1702  0.1557
 1040YOPC   NC314627   4.149  16.629   5.695 -0.0596  0.3071  0.2090
 1040YOPC   PO414628   4.182  17.104   5.778 -0.2810 -0.1139 -0.0207
 1040YOPC   GL114629   4.215  17.003   6.126 -0.1366  0.2902 -0.0081
 1040YOPC   GL214630   4.413  16.800   6.197 -0.1592  0.0760  0.1903
 1040YOPC   C1A14631   3.997  17.000   6.483 -0.0143  0.1248  0.0518
 1040YOPC   D2A14632   4.026  16.889   6.883  0.2052  0.1583  0.0847
 1040YOPC   C3A14633   3.898  16.789   7.317  0.0691 -0.1080 -0.1727
 1040YOPC   C4A14634   3.851  16.965   7.793  0.0549 -0.1138 -0.1478
 1040YOPC   C1B14635   4.602  16.772   6.630 -0.0668  0.1868  0.1564
 1040YOPC   C2B14636   4.670  16.790   7.043 -0.1407  0.1875 -0.1956
 1040YOPC   D3B14637   4.379  16.910   7.324 -0.1630  0.0177 -0.0428
 1040YOPC   C4B14638   4.350  17.117   7.665 -0.0206  0.3726  0.1281
 1041YOPC   NC314639  14.161  17.433   5.168 -0.1959  0.3839  0.0057
 1041YOPC   PO414640  14.675  17.398   5.250  0.0359 -0.1265 -0.2103
 1041YOPC   GL114641  14.806  17.491   5.566 -0.0022  0.0183  0.0500
 1041YOPC   GL214642  14.987  17.678   5.650  0.0964 -0.0865 -0.0282
 1041YOPC   C1A14643  14.747  17.420   6.040  0.2270 -0.1390  0.1553
 1041YOPC   D2A14644  14.617  17.285   6.446 -0.1479  0.0258 -0.0427
 1041YOPC   C3A14645  14.605  17.353   6.833 -0.0405 -0.0668  0.2873
 1041YOPC   C4A14646  14.276  17.524   7.192  0.0361  0.0208  0.0657
 1041YOPC   C1B14647  14.951  17.927   6.074 -0.0179 -0.1651 -0.0397
 1041YOPC   C2B14648  14.833  18.193   6.459  0.3058 -0.0519 -0.1892
 1041YOPC   D3B14649  14.530  18.452   6.753  0.0604 -0.0224  0.5175
 1041YOPC   C4B14650  14.361  18.681   7.054 -0.0986  0.2502 -0.0055
 1042YOPC   NC314651  13.338  13.748   5.347 -0.0251  0.1599 -0.2861
 1042YOPC   PO414652  12.973  13.758   5.207 -0.0885  0.1509  0.3478
 1042YOPC   GL114653  12.822  13.503   5.605 -0.0959 -0.2689 -0.0391
 1042YOPC   GL214654  12.544  13.495   5.722  0.0339  0.0319  0.0824
 1042YOPC   C1A14655  13.025  13.165   5.858 -0.2121 -0.0892  0.2611
 1042YOPC   D2A14656  13.197  12.678   5.992  0.1568  0.0509 -0.2544
 1042YOPC   C3A14657  13.172  12.233   6.012 -0.0401 -0.0926  0.0484
 1042YOPC   C4A14658  12.908  11.987   6.119 -0.0080 -0.0748  0.0883
 1042YOPC   C1B14659  12.728  13.556   6.088  0.5538 -0.2249 -0.0449
 1042YOPC   C2B14660  12.627  13.468   6.529  0.1885  0.0986 -0.1843
 1042YOPC   D3B14661  12.979  13.294   6.605 -0.0477 -0.0635  0.2571
 1042YOPC   C4B14662  13.274  13.039   6.358  0.0045  0.2201 -0.2951
 1043YOPC   NC314663  12.629   8.253   5.545  0.4612 -0.1784  0.0057
 1043YOPC   PO414664  13.058   8.148   5.576  0.1380 -0.0459  0.1136
 1043YOPC   GL114665  13.315   8.202   5.855  0.2720  0.2108 -0.0976
 1043YOPC   GL214666  13.160   8.548   6.018 -0.2007 -0.1065  0.1427
 1043YOPC   C1A14667  13.415   8.255   6.421 -0.1104  0.2431 -0.1202
 1043YOPC   D2A14668  13.562   8.247   6.868 -0.0415  0.0823 -0.0113
 1043YOPC   C3A14669  13.871   8.125   7.118 -0.0992 -0.0286  0.0665
 1043YOPC   C4A14670  14.173   8.011   7.554  0.0357 -0.0388  0.2091
 1043YOPC   C1B14671  12.710   8.666   6.188 -0.0955 -0.1103  0.0636
 1043YOPC   C2B14672  12.621   8.999   6.375 -0.0671 -0.2017  0.0129
 1043YOPC   D3B14673  12.789   9.036   6.758 -0.0110 -0.2622  0.0560
 1043YOPC   C4B14674  12.891   9.438   6.940  0.3023  0.0533 -0.2245
 1044YOPC   NC314675  18.428  15.194   5.163 -0.1100  0.0544 -0.1367
 1044YOPC   PO414676  17.945  15.086   5.242 -0.0904 -0.1673  0.1244
 1044YOPC   GL114677  18.085  15.010   5.617  0.1108 -0.0972 -0.2905
 1044YOPC   GL214678  18.365  15.172   5.764  0.2729 -0.0531 -0.0045
 1044YOPC   C1A14679  18.054  14.739   5.994  0.0511 -0.1391 -0.1401
 1044YOPC   D2A14680  17.821  14.670   6.394  0.1537 -0.1742 -0.0391
 1044YOPC   C3A14681  17.860  14.881   6.809  0.0451  0.2037  0.1363
 1044YOPC   C4A14682  17.892  14.895   7.202 -0.2995  0.1581  0.0004
 1044YOPC   C1B14683  18.498  15.346   6.194 -0.0596  0.1505 -0.3500
 1044YOPC   C2B14684  18.458  15.719   6.473 -0.0314  0.0988 -0.1272
 1044YOPC   D3B14685  18.467  15.856   6.925 -0.2291  0.0337 -0.0392
 1044YOPC   C4B14686  18.683  15.737   7.247  0.0145  0.0333  0.3078
 1045YOPC   NC314687  14.403   6.362   5.369 -0.2777 -0.0817 -0.0158
 1045YOPC   PO414688  14.132   6.088   5.407 -0.1676 -0.1094  0.0048
 1045YOPC   GL114689  14.117   6.131   5.817  0.3949  0.3787  0.0644
 1045YOPC   GL214690  13.749   6.022   6.015 -0.1805  0.0986 -0.1200
 1045YOPC   C1A14691  14.178   6.274   6.178 -0.3999 -0.0502  0.1301
 1045YOPC   D2A14692  14.092   6.419   6.633 -0.1013 -0.0848 -0.0155
 1045YOPC   C3A14693  14.295   6.134   7.016 -0.2181  0.1081  0.1865
 1045YOPC   C4A14694  14.226   6.057   7.450  0.0485  0.1973  0.1402
 1045YOPC   C1B14695  13.914   5.956   6.394 -0.1017  0.0288 -0.1300
 1045YOPC   C2B14696  13.882   5.854   6.876  0.1604  0.0078 -0.1341
 1045YOPC   D3B14697  13.958   5.635   7.340  0.1739  0.0578 -0.2024
 1045YOPC   C4B14698  13.948   5.151   7.445  0.3578  0.1809  0.2268
 1046YOPC   NC314699  12.206   7.531   5.744  0.0169 -0.2726 -0.1407
 1046YOPC   PO414700  12.508   7.212   5.672  0.1645  0.0330  0.2247
 1046YOPC   GL114701  12.624   7.315   6.037 -0.1006  0.3284 -0.1235
 1046YOPC   GL214702  12.505   7.609   6.167 -0.1483  0.2061 -0.1046
 1046YOPC   C1A14703  12.749   7.135   6.458 -0.3477 -0.0200 -0.5372
 1046YOPC   D2A14704  12.941   6.964   6.900  0.1682  0.0716  0.0380
 1046YOPC   C3A14705  12.808   6.679   7.260 -0.0461 -0.1998  0.2366
 1046YOPC   C4A14706  12.782   6.732   7.800  0.1443 -0.1821  0.0468
 1046YOPC   C1B14707  12.996   7.625   6.120  0.2083  0.1445  0.0981
 1046YOPC   C2B14708  13.393   7.778   6.346  0.0269 -0.1176  0.2599
 1046YOPC   D3B14709  13.531   7.707   6.740 -0.2355 -0.0549  0.1385
 1046YOPC   C4B14710  13.745   7.640   7.167  0.0837 -0.2329 -0.0626
 1047YOPC   NC314711   1.969   2.597   5.519 -0.0291  0.1232 -0.0812
 1047YOPC   PO414712   1.922   2.970   5.567 -0.5679 -0.0431 -0.0472
 1047YOPC   GL114713   1.960   3.018   5.961 -0.0617  0.0361 -0.2008
 1047YOPC   GL214714   1.692   3.060   6.154 -0.0595 -0.0552  0.0828
 1047YOPC   C1A14715   2.267   3.110   6.340 -0.0252  0.1825 -0.1200
 1047YOPC   D2A14716   2.523   2.922   6.716 -0.0468 -0.1650  0.2714
 1047YOPC   C3A14717   2.472   2.886   7.108  0.1871  0.2390  0.1681
 1047YOPC   C4A14718   2.556   2.896   7.591  0.4601 -0.1999 -0.3853
 1047YOPC   C1B14719   1.480   2.822   6.384 -0.0653  0.0425 -0.1110
 1047YOPC   C2B14720   1.025   2.757   6.408  0.0616 -0.0687  0.0391
 1047YOPC   D3B14721   0.639   2.921   6.466 -0.0374 -0.1543  0.0906
 1047YOPC   C4B14722   0.360   3.169   6.278  0.0909 -0.0698  0.2590
 1048YOPC   NC314723   6.416  15.067   5.278  0.1061  0.2784  0.1446
 1048YOPC   PO414724   6.531  14.625   5.396  0.1041  0.2441  0.2005
 1048YOPC   GL114725   6.795  14.627   5.748  0.1083  0.2058 -0.0215
 1048YOPC   GL214726   6.637  14.964   5.786 -0.0569 -0.1033 -0.1457
 1048YOPC   C1A14727   7.079  14.774   6.107  0.0044  0.0048  0.0017
 1048YOPC   D2A14728   7.041  15.154   6.339  0.0354 -0.1209 -0.0406
 1048YOPC   C3A14729   6.888  15.262   6.741 -0.0324 -0.2280 -0.0646
 1048YOPC   C4A14730   6.949  15.200   7.172 -0.3054 -0.0156  0.0260
 1048YOPC   C1B14731   6.578  15.012   6.134 -0.0201 -0.1574  0.0213
 1048YOPC   C2B14732   6.360  15.065   6.555 -0.1243 -0.1874  0.2597
 1048YOPC   D3B14733   6.487  15.145   7.031  0.2454  0.3380  0.0300
 1048YOPC   C4B14734   6.617  15.009   7.478  0.0631 -0.2352 -0.0777
 1049YOPC   NC314735   3.907  14.333   4.931  0.1078 -0.0223  0.0727
 1049YOPC   PO414736   4.098  14.623   5.156 -0.3234  0.0675 -0.0562
 1049YOPC   GL114737   3.788  14.457   5.409  0.1340  0.1324 -0.0438
 1049YOPC   GL214738   4.141  14.390   5.598  0.2397 -0.1475 -0.2215
 1049YOPC   C1A14739   3.802  14.442   5.933  0.2932  0.1004 -0.0341
 1049YOPC   D2A14740   3.492  14.574   6.162  0.2292  0.2768  0.0515
 1049YOPC   C3A14741   3.318  14.214   6.263  0.2701 -0.2069 -0.2854
 1049YOPC   C4A14742   3.273  13.865   6.398 -0.0837  0.1005  0.0569
 1049YOPC   C1B14743   4.193  14.099   5.916  0.4982  0.2088 -0.1338
 1049YOPC   C2B14744   4.263  13.880   6.266  0.2147 -0.4346  0.2823
 1049YOPC   D3B14745   4.360  13.441   6.360  0.1480  0.2190  0.2076
 1049YOPC   C4B14746   4.611  13.231   6.580  0.2490 -0.2298 -0.3404
 1050YOPC   NC314747   1.454  16.728   5.505 -0.1211 -0.2400  0.2159
 1050YOPC   PO414748   1.830  16.536   5.693  0.1959  0.0832  0.3149
 1050YOPC   GL114749   2.027  16.350   6.079  0.0195 -0.0578  0.2407
 1050YOPC   GL214750   2.351  16.394   6.095 -0.1816 -0.2754 -0.0914
 1050YOPC   C1A14751   1.983  16.443   6.559  0.1599 -0.0211  0.2840
 1050YOPC   D2A14752   1.704  16.635   6.887  0.2730  0.0571 -0.0998
 1050YOPC   C3A14753   1.790  16.610   7.319  0.1349  0.2215  0.0335
 1050YOPC   C4A14754   2.084  16.321   7.633 -0.0311 -0.0859 -0.0637
 1050YOPC   C1B14755   2.374  16.646   6.389 -0.1757 -0.0740  0.2455
 1050YOPC   C2B14756   2.647  16.781   6.721  0.2022  0.1213 -0.2135
 1050YOPC   D3B14757   2.595  16.727   7.121 -0.1398  0.0742 -0.2185
 1050YOPC   C4B14758   2.653  16.545   7.567  0.2107  0.3393  0.1501
 1051YOPC   NC314759   7.554   2.814   5.179 -0.2010 -0.1179 -0.0651
 1051YOPC   PO414760   7.969   3.104   5.287  0.0115 -0.2519 -0.2047
 1051YOPC   GL114761   7.765   3.076   5.761  0.0690 -0.1279  0.0563
 1051YOPC   GL214762   7.971   3.333   5.927  0.1812 -0.2785  0.1666
 1051YOPC   C1A14763   7.683   3.012   6.210 -0.3019  0.3116 -0.0135
 1051YOPC   D2A14764   7.649   2.785   6.556  0.2404 -0.1310 -0.1322
 1051YOPC   C3A14765   7.822   2.848   7.012  0.0433  0.0704  0.0881
 1051YOPC   C4A14766   7.907   2.958   7.427  0.0983 -0.0192 -0.1298
 1051YOPC   C1B14767   8.428   3.254   6.131  0.2100  0.0881  0.2797
 1051YOPC   C2B14768   8.738   3.339   6.379 -0.2128 -0.0636 -0.0413
 1051YOPC   D3B14769   9.070   3.149   6.255 -0.1754 -0.1672 -0.3492
 1051YOPC   C4B14770   9.438   3.093   6.513  0.1651 -0.2600  0.1579
 1052YOPC   NC314771  15.434   7.674   4.836  0.1596 -0.0824 -0.1105
 1052YOPC   PO414772  15.328   7.628   5.305  0.2351 -0.0003 -0.1436
 1052YOPC   GL114773  15.311   7.550   5.695 -0.2924 -0.2096 -0.3797
 1052YOPC   GL214774  15.026   7.524   5.842 -0.1385  0.0048  0.3391
 1052YOPC   C1A14775  15.427   7.631   6.167 -0.1405  0.3425 -0.1401
 1052YOPC   D2A14776  15.844   7.547   6.435 -0.1334 -0.0869 -0.0307
 1052YOPC   C3A14777  15.802   7.549   6.954  0.0076  0.1802 -0.4185
 1052YOPC   C4A14778  15.814   7.510   7.298 -0.2511  0.2950 -0.3119
 1052YOPC   C1B14779  14.866   7.574   6.226  0.0837  0.2094 -0.2767
 1052YOPC   C2B14780  14.833   7.508   6.749  0.0860  0.2314  0.0859
 1052YOPC   D3B14781  14.677   7.823   7.051 -0.2481 -0.2127 -0.0371
 1052YOPC   C4B14782  14.720   8.146   7.381 -0.0957 -0.0843  0.1780
 1053YOPC   NC314783  17.069  15.766   5.786 -0.1685  0.1460  0.2535
 1053YOPC   PO414784  17.434  15.734   5.970 -0.2537  0.0321  0.2456
 1053YOPC   GL114785  17.403  15.361   6.135 -0.1057  0.0537 -0.3360
 1053YOPC   GL214786  17.651  15.064   6.042  0.4237 -0.1700 -0.1176
 1053YOPC   C1A14787  17.570  15.199   6.518  0.0836  0.0429 -0.0496
 1053YOPC   D2A14788  17.457  15.080   6.997  0.1221  0.4092 -0.3888
 1053YOPC   C3A14789  17.130  15.112   7.301 -0.1125  0.1277 -0.0218
 1053YOPC   C4A14790  16.750  15.339   7.338  0.1485 -0.2937  0.1840
 1053YOPC   C1B14791  18.046  15.154   6.316  0.2903 -0.4222 -0.1720
 1053YOPC   C2B14792  18.312  15.143   6.703 -0.0393 -0.1526  0.0679
 1053YOPC   D3B14793  18.352  15.325   7.137  0.0955 -0.1385  0.1640
 1053YOPC   C4B14794  18.181  15.127   7.482 -0.1744 -0.0071  0.1613
 1054YOPC   NC314795   1.926   1.830   5.329  0.1302 -0.0080  0.4713
 1054YOPC   PO414796   2.030   2.137   5.700 -0.0196 -0.2755 -0.1334
 1054YOPC   GL114797   2.051   2.347   6.119  0.0283 -0.0663  0.1346
 1054YOPC   GL214798   1.840   2.531   6.077 -0.0534  0.0923 -0.0731
 1054YOPC   C1A14799   2.282   2.448   6.434 -0.3080 -0.1911 -0.2308
 1054YOPC   D2A14800   2.297   2.497   6.782  0.1360  0.0459  0.0048
 1054YOPC   C3A14801   2.139   2.478   7.177 -0.1796  0.0895 -0.1834
 1054YOPC   C4A14802   1.827   2.723   7.530  0.0392  0.0808  0.2028
 1054YOPC   C1B14803   1.950   2.776   6.541  0.1659  0.1506  0.0295
 1054YOPC   C2B14804   1.973   2.904   6.962  0.2301  0.1106  0.1806
 1054YOPC   D3B14805   2.240   3.323   6.917  0.2462  0.1236 -0.1866
 1054YOPC   C4B14806   2.505   3.721   7.185 -0.2573  0.2426  0.1666
 1055YOPC   NC314807   0.817  17.974   5.705  0.0831 -0.4347  0.1291
 1055YOPC   PO414808   1.259  18.035   5.865  0.2912 -0.4020  0.0229
 1055YOPC   GL114809   1.251  17.806   6.210 -0.1889  0.2397 -0.0997
 1055YOPC   GL214810   1.433  17.662   6.406 -0.2047  0.2035 -0.0386
 1055YOPC   C1A14811   0.885  17.673   6.518 -0.2023  0.2870 -0.2524
 1055YOPC   D2A14812   0.853  17.550   6.981 -0.1563 -0.1729 -0.0399
 1055YOPC   C3A14813   0.976  17.632   7.365 -0.1452  0.0497  0.3701
 1055YOPC   C4A14814   1.178  17.861   7.600  0.4774  0.1691 -0.3974
 1055YOPC   C1B14815   1.416  17.628   6.841  0.2626 -0.1819  0.0581
 1055YOPC   C2B14816   1.495  17.477   7.208 -0.0682 -0.0258  0.0268
 1055YOPC   D3B14817   1.755  17.522   7.595 -0.3338 -0.0713 -0.2340
 1055YOPC   C4B14818   1.552  17.664   8.049  0.0377  0.0641 -0.3246
 1056YOPC   NC314819  12.089  10.854   5.212  0.1522 -0.2231 -0.3308
 1056YOPC   PO414820  11.723  10.660   5.194 -0.3498 -0.3320 -0.0688
 1056YOPC   GL114821  11.763  10.796   5.613  0.2106  0.2390 -0.1783
 1056YOPC   GL214822  11.742  11.120   5.656 -0.3321  0.3230 -0.1386
 1056YOPC   C1A14823  11.899  10.523   5.903  0.1277 -0.1198 -0.1322
 1056YOPC   D2A14824  12.068  10.278   6.192 -0.1317 -0.1638  0.0243
 1056YOPC   C3A14825  12.222   9.801   6.201  0.1764 -0.3091  0.0248
 1056YOPC   C4A14826  12.462   9.478   6.516  0.0631  0.1539  0.0020
 1056YOPC   C1B14827  11.605  11.333   5.991  0.1022  0.3886  0.0628
 1056YOPC   C2B14828  11.858  11.282   6.413  0.0616  0.0113  0.1591
 1056YOPC   D3B14829  12.209  11.408   6.623  0.1478 -0.1576  0.0584
 1056YOPC   C4B14830  12.305  11.512   7.036 -0.0708 -0.0396 -0.0890
 1057YOPC   NC314831  10.914   5.446   5.766 -0.0180  0.1534 -0.1515
 1057YOPC   PO414832  10.635   5.324   6.140 -0.1878  0.0326 -0.3468
 1057YOPC   GL114833  10.552   5.152   6.514 -0.1274 -0.1265  0.1992
 1057YOPC   GL214834  10.155   5.066   6.470 -0.3472  0.2906 -0.0648
 1057YOPC   C1A14835  10.638   4.901   6.795  0.2543  0.2449 -0.1369
 1057YOPC   D2A14836  10.528   4.808   7.163 -0.3504 -0.0209 -0.3219
 1057YOPC   C3A14837  10.805   4.774   7.459  0.1196 -0.0263 -0.0043
 1057YOPC   C4A14838  11.064   5.212   7.636  0.0767  0.1620 -0.1236
 1057YOPC   C1B14839  10.116   4.963   6.831 -0.2295 -0.2779 -0.0612
 1057YOPC   C2B14840   9.989   4.947   7.214  0.0200  0.0842  0.2400
 1057YOPC   D3B14841   9.724   5.168   7.430 -0.1829  0.0482  0.0389
 1057YOPC   C4B14842   9.625   5.063   7.912 -0.0484  0.0916 -0.2838
 1058YOPC   NC314843  15.535  16.743   5.464  0.1022  0.3625 -0.1455
 1058YOPC   PO414844  15.481  16.735   5.866  0.1388 -0.0949 -0.0016
 1058YOPC   GL114845  15.378  16.890   6.241 -0.0310  0.1683 -0.1250
 1058YOPC   GL214846  15.440  16.703   6.445 -0.1233  0.3228  0.0745
 1058YOPC   C1A14847  15.202  17.146   6.660 -0.3745  0.2496 -0.0695
 1058YOPC   D2A14848  15.269  17.356   7.055  0.0112  0.0118 -0.0908
 1058YOPC   C3A14849  14.939  17.476   7.308 -0.3878 -0.2362  0.3559
 1058YOPC   C4A14850  14.658  17.713   7.385 -0.0865 -0.1206  0.2580
 1058YOPC   C1B14851  15.341  16.731   6.905  0.1089 -0.3104  0.0314
 1058YOPC   C2B14852  15.428  16.895   7.260  0.0021  0.0485 -0.2178
 1058YOPC   D3B14853  15.313  16.719   7.671 -0.2070  0.0047 -0.1460
 1058YOPC   C4B14854  15.380  16.350   8.099 -0.2351 -0.2764  0.3060
 1059YOPC   NC314855  15.066  16.149   5.957 -0.2080 -0.3601 -0.1330
 1059YOPC   PO414856  14.818  15.737   5.755 -0.1233 -0.4714  0.0056
 1059YOPC   GL114857  15.026  15.788   6.296  0.0927  0.1153 -0.0538
 1059YOPC   GL214858  15.196  15.948   6.353 -0.0589 -0.1594 -0.3081
 1059YOPC   C1A14859  14.793  15.940   6.724 -0.1377  0.2484 -0.3517
 1059YOPC   D2A14860  14.509  15.935   7.186 -0.1299 -0.2538 -0.0247
 1059YOPC   C3A14861  14.150  15.786   7.305 -0.0578 -0.1767  0.1586
 1059YOPC   C4A14862  14.008  15.409   7.553  0.3609  0.1271  0.0288
 1059YOPC   C1B14863  15.243  15.860   6.793 -0.1286  0.1317  0.1097
 1059YOPC   C2B14864  15.278  15.850   7.253 -0.4562  0.1448  0.0238
 1059YOPC   D3B14865  14.891  15.778   7.504 -0.0787 -0.4750  0.2389
 1059YOPC   C4B14866  14.879  15.714   7.904  0.0703 -0.3858  0.0463
 1060YOPC   NC314867   2.629   1.308   5.492 -0.0571  0.0801 -0.2066
 1060YOPC   PO414868   2.578   0.844   5.440  0.1155 -0.1361  0.0819
 1060YOPC   GL114869   2.593   0.598   5.830 -0.0262 -0.1088 -0.1148
 1060YOPC   GL214870   2.357   0.638   6.019 -0.0352  0.1061  0.0768
 1060YOPC   C1A14871   2.672   0.279   6.111  0.0953  0.2490  0.0826
 1060YOPC   D2A14872   2.835   0.049   6.548 -0.2536 -0.2656  0.2370
 1060YOPC   C3A14873   2.784   0.086   7.019  0.1915 -0.1143 -0.0618
 1060YOPC   C4A14874   2.896  -0.202   7.399 -0.1494 -0.3149 -0.1233
 1060YOPC   C1B14875   2.378   0.599   6.467 -0.1628  0.0030  0.0034
 1060YOPC   C2B14876   2.341   0.367   6.827  0.0409 -0.2488 -0.0612
 1060YOPC   D3B14877   2.387   0.622   7.163  0.0984  0.0429 -0.0022
 1060YOPC   C4B14878   2.532   0.765   7.549  0.2800  0.0499  0.2797
 1061YOPC   NC314879  11.249  13.097   5.064 -0.1534  0.0187 -0.2585
 1061YOPC   PO414880  11.548  13.126   5.282 -0.1811  0.1294  0.0813
 1061YOPC   GL114881  11.651  13.042   5.744  0.1523  0.2127 -0.1933
 1061YOPC   GL214882  11.506  12.774   5.907 -0.1262  0.0282 -0.0377
 1061YOPC   C1A14883  11.789  13.020   6.209 -0.1654 -0.0759  0.3758
 1061YOPC   D2A14884  11.671  13.161   6.536 -0.1319  0.0537 -0.0020
 1061YOPC   C3A14885  11.622  13.068   6.958 -0.1235  0.1939  0.1391
 1061YOPC   C4A14886  11.533  13.071   7.369  0.0776  0.0397  0.1245
 1061YOPC   C1B14887  11.508  12.478   6.176  0.0844  0.1387 -0.3427
 1061YOPC   C2B14888  11.611  12.209   6.482 -0.1154 -0.0977  0.1634
 1061YOPC   D3B14889  11.805  12.247   6.894  0.1113  0.0260  0.2620
 1061YOPC   C4B14890  12.135  12.407   7.070  0.1099  0.2748 -0.1012
 1062YOPC   NC314891   1.889   1.536   5.783  0.1908  0.0771 -0.1527
 1062YOPC   PO414892   2.108   1.194   5.461  0.1483 -0.0926 -0.3237
 1062YOPC   GL114893   2.280   1.158   5.873 -0.1145  0.1102 -0.0365
 1062YOPC   GL214894   2.002   0.995   6.004 -0.0617 -0.1717  0.4574
 1062YOPC   C1A14895   2.369   1.463   6.231 -0.0426 -0.0030  0.4086
 1062YOPC   D2A14896   2.345   1.732   6.529  0.2279 -0.0832 -0.0101
 1062YOPC   C3A14897   2.589   1.708   6.932  0.1523 -0.1105  0.0201
 1062YOPC   C4A14898   2.865   1.944   7.130 -0.2907  0.0439  0.0134
 1062YOPC   C1B14899   2.089   0.992   6.311  0.2134 -0.0297 -0.1349
 1062YOPC   C2B14900   2.115   0.883   6.790  0.0872 -0.0455 -0.2636
 1062YOPC   D3B14901   1.804   0.982   7.123  0.0545 -0.0716 -0.0590
 1062YOPC   C4B14902   1.685   1.243   7.367 -0.0377  0.0369 -0.1058
 1063YOPC   NC314903  16.346   3.125   5.421  0.3713 -0.1228 -0.3257
 1063YOPC   PO414904  15.957   2.863   5.501 -0.0283  0.1338 -0.2389
 1063YOPC   GL114905  16.019   2.596   5.845  0.5178  0.1613  0.0914
 1063YOPC   GL214906  16.035   2.290   5.741 -0.3034 -0.1421 -0.0047
 1063YOPC   C1A14907  16.179   2.635   6.107  0.1021  0.1199  0.0009
 1063YOPC   D2A14908  16.442   2.526   6.467  0.1506  0.0328  0.5780
 1063YOPC   C3A14909  16.828   2.759   6.724  0.1108 -0.1749 -0.2030
 1063YOPC   C4A14910  16.814   3.097   6.980 -0.0704 -0.0655 -0.1360
 1063YOPC   C1B14911  15.867   1.992   6.003 -0.0134 -0.1347 -0.6687
 1063YOPC   C2B14912  15.692   1.946   6.431 -0.0095  0.0697 -0.0054
 1063YOPC   D3B14913  15.568   2.250   6.744 -0.2214 -0.0177 -0.0929
 1063YOPC   C4B14914  15.343   2.390   7.079 -0.0697  0.1756 -0.0213
 1064YOPC   NC314915   6.401   0.837   5.329  0.1273 -0.1995 -0.0597
 1064YOPC   PO414916   6.859   0.831   5.407  0.1325  0.0491 -0.0891
 1064YOPC   GL114917   6.699   0.636   5.911 -0.2653  0.2715 -0.2932
 1064YOPC   GL214918   6.621   0.777   6.242 -0.3723 -0.5608  0.2256
 1064YOPC   C1A14919   6.397   0.311   6.253 -0.0363 -0.0379  0.1514
 1064YOPC   D2A14920   6.105   0.033   6.497 -0.0843 -0.0414 -0.0335
 1064YOPC   C3A14921   6.237   0.037   6.934  0.1294 -0.0163 -0.3152
 1064YOPC   C4A14922   6.223  -0.222   7.285 -0.0347  0.1883 -0.1838
 1064YOPC   C1B14923   6.473   0.674   6.563 -0.1428  0.3478  0.1134
 1064YOPC   C2B14924   6.468   0.560   6.987  0.2327  0.0833  0.0551
 1064YOPC   D3B14925   6.345   0.683   7.328  0.0786 -0.1836  0.1286
 1064YOPC   C4B14926   6.220   1.024   7.515 -0.1604  0.2880  0.0441
 1065YOPC   NC314927   9.023  15.218   5.550  0.0305  0.1689 -0.1777
 1065YOPC   PO414928   9.338  15.381   5.612 -0.0393 -0.1477  0.1357
 1065YOPC   GL114929   9.450  15.221   5.949  0.0503  0.0003 -0.0400
 1065YOPC   GL214930   9.139  15.211   6.064  0.0243  0.1528 -0.1563
 1065YOPC   C1A14931   9.595  14.908   6.175 -0.0483  0.0694  0.0354
 1065YOPC   D2A14932   9.667  14.549   6.389  0.1246  0.2135  0.0293
 1065YOPC   C3A14933   9.543  14.609   6.749 -0.0788  0.1083  0.1352
 1065YOPC   C4A14934   9.337  14.579   7.213 -0.0726 -0.1015 -0.0155
 1065YOPC   C1B14935   8.935  15.417   6.414 -0.0113 -0.4581  0.0910
 1065YOPC   C2B14936   8.921  15.790   6.651 -0.4085 -0.2378 -0.2734
 1065YOPC   D3B14937   8.724  15.743   7.099 -0.3265  0.0382 -0.2677
 1065YOPC   C4B14938   8.557  15.537   7.500 -0.0021  0.3950  0.0979
 1066YOPC   NC314939   9.684  11.004   5.310  0.1444 -0.1392 -0.1679
 1066YOPC   PO414940   9.605  10.680   5.515  0.1598  0.0364 -0.0868
 1066YOPC   GL114941   9.631  10.812   5.933 -0.2285 -0.0208 -0.0892
 1066YOPC   GL214942   9.305  10.772   6.152  0.3147 -0.1104 -0.0017
 1066YOPC   C1A14943   9.891  10.954   6.225  0.0210  0.1093 -0.0892
 1066YOPC   D2A14944   9.833  10.955   6.585 -0.1956  0.0746 -0.1753
 1066YOPC   C3A14945  10.067  11.114   6.873  0.1072  0.0013 -0.0612
 1066YOPC   C4A14946  10.211  11.209   7.269 -0.2636 -0.1433  0.1309
 1066YOPC   C1B14947   9.272  10.694   6.540 -0.1566  0.0802 -0.0638
 1066YOPC   C2B14948   9.150  10.527   6.970  0.0231  0.0156 -0.1303
 1066YOPC   D3B14949   8.928  10.692   7.192  0.2675  0.2614  0.3735
 1066YOPC   C4B14950   8.722  10.679   7.520  0.0603 -0.1925 -0.0076
 1067YOPC   NC314951  15.791   8.486   5.621 -0.1153  0.2663 -0.1068
 1067YOPC   PO414952  16.155   8.536   5.697  0.0204 -0.1900  0.1114
 1067YOPC   GL114953  15.976   8.524   6.034 -0.1416  0.2085 -0.3233
 1067YOPC   GL214954  15.939   8.210   5.964 -0.0767  0.1996 -0.1127
 1067YOPC   C1A14955  16.175   8.418   6.438  0.3677 -0.2688 -0.0658
 1067YOPC   D2A14956  16.356   8.411   6.818 -0.0940  0.1479  0.1558
 1067YOPC   C3A14957  16.145   8.311   7.174  0.1521 -0.2257 -0.0537
 1067YOPC   C4A14958  16.226   8.346   7.601 -0.1118  0.1493  0.0939
 1067YOPC   C1B14959  15.684   8.115   6.294  0.0766  0.0745 -0.0155
 1067YOPC   C2B14960  15.512   7.868   6.599 -0.0870  0.0596 -0.1924
 1067YOPC   D3B14961  15.579   8.063   7.064  0.2118  0.0220 -0.3093
 1067YOPC   C4B14962  15.824   8.060   7.461  0.2276  0.1470 -0.0226
 1068YOPC   NC314963   0.855  16.041   5.070 -0.3742  0.1327 -0.0768
 1068YOPC   PO414964   0.766  16.115   5.515  0.1878 -0.0362 -0.1287
 1068YOPC   GL114965   0.579  16.317   5.923  0.1377  0.1565  0.0054
 1068YOPC   GL214966   0.582  15.956   6.094  0.2570  0.1811 -0.0080
 1068YOPC   C1A14967   0.325  16.492   6.297 -0.3445  0.3262  0.2559
 1068YOPC   D2A14968   0.291  16.649   6.791  0.0830  0.1952  0.4119
 1068YOPC   C3A14969  -0.035  16.731   6.986  0.4315 -0.0281  0.2930
 1068YOPC   C4A14970  -0.499  16.636   6.973 -0.0544 -0.0479  0.2465
 1068YOPC   C1B14971   0.701  15.648   6.274  0.1809  0.0884  0.0951
 1068YOPC   C2B14972   0.751  15.572   6.749  0.3111 -0.0641  0.0191
 1068YOPC   D3B14973   0.493  15.565   7.006 -0.0088 -0.2252  0.1142
 1068YOPC   C4B14974   0.382  15.501   7.429  0.0883  0.2623  0.2470
 1069YOPC   NC314975   9.914  17.313   5.066 -0.0649  0.2967  0.1692
 1069YOPC   PO414976   9.925  17.103   5.440 -0.2203 -0.0221  0.3484
 1069YOPC   GL114977  10.186  17.106   5.754  0.1087  0.2858  0.1771
 1069YOPC   GL214978  10.048  17.336   5.965  0.1437  0.3373 -0.0367
 1069YOPC   C1A14979  10.280  16.906   6.210 -0.1863 -0.1156 -0.2225
 1069YOPC   D2A14980  10.126  16.683   6.468  0.1885 -0.1874 -0.0141
 1069YOPC   C3A14981   9.804  16.440   6.408 -0.1255  0.1510  0.0763
 1069YOPC   C4A14982   9.655  16.294   6.711  0.0475  0.1574 -0.0699
 1069YOPC   C1B14983   9.631  17.680   5.882  0.3583 -0.0258 -0.2747
 1069YOPC   C2B14984   9.356  17.688   5.611  0.0281 -0.1621  0.0476
 1069YOPC   D3B14985   8.858  17.725   5.765  0.0327  0.0620  0.1067
 1069YOPC   C4B14986   8.463  17.678   5.719  0.2711 -0.1349 -0.0413
 1070YOPC   NC314987  10.025   8.477   5.379  0.1415 -0.0051 -0.1789
 1070YOPC   PO414988   9.596   8.279   5.631 -0.0727 -0.4150  0.0397
 1070YOPC   GL114989   9.676   8.289   6.054 -0.1151 -0.3787  0.1640
 1070YOPC   GL214990   9.454   8.523   6.246  0.2018 -0.2322  0.0942
 1070YOPC   C1A14991   9.767   7.996   6.405  0.2259  0.0759 -0.0739
 1070YOPC   D2A14992   9.649   7.852   6.966  0.2274 -0.0513 -0.0593
 1070YOPC   C3A14993   9.665   7.374   7.065  0.1293 -0.1139  0.1569
 1070YOPC   C4A14994   9.780   6.986   6.937 -0.0895 -0.0029  0.0584
 1070YOPC   C1B14995   9.827   8.567   6.528  0.4016  0.1122  0.1085
 1070YOPC   C2B14996  10.095   8.686   6.785 -0.1422 -0.1692  0.1847
 1070YOPC   D3B14997  10.576   8.474   6.686  0.2016 -0.3100  0.2994
 1070YOPC   C4B14998  10.841   8.327   6.311  0.0430  0.1679  0.1204
 1071YOPC   NC314999  15.484  12.067   5.087 -0.0271  0.1187  0.3920
 1071YOPC   PO415000  15.330  12.090   5.509 -0.0287  0.1580  0.2011
 1071YOPC   GL115001  15.446  11.852   5.770 -0.1330  0.2717  0.2524
 1071YOPC   GL215002  15.580  11.995   5.982  0.0882 -0.1760 -0.0177
 1071YOPC   C1A15003  15.290  11.485   5.922  0.0082 -0.1517 -0.0346
 1071YOPC   D2A15004  15.277  11.275   6.361 -0.1081  0.1131  0.0178
 1071YOPC   C3A15005  15.338  11.021   6.611 -0.1628 -0.0159  0.0532
 1071YOPC   C4A15006  15.234  10.839   6.930 -0.0146 -0.3302  0.1250
 1071YOPC   C1B15007  15.648  11.685   6.273  0.2129  0.0949  0.0671
 1071YOPC   C2B15008  15.542  11.542   6.654 -0.0326  0.2103 -0.1360
 1071YOPC   D3B15009  15.457  11.457   7.036 -0.0077 -0.0784 -0.0906
 1071YOPC   C4B15010  15.584  11.615   7.359 -0.2334 -0.2621  0.2192
 1072YOPC   NC315011   2.311  16.535   5.477 -0.1299 -0.1550 -0.0910
 1072YOPC   PO415012   2.482  16.147   5.400  0.2435  0.0804  0.0807
 1072YOPC   GL115013   2.475  15.950   5.772 -0.1049 -0.2481 -0.0784
 1072YOPC   GL215014   2.575  15.703   5.998  0.2376 -0.0466 -0.0748
 1072YOPC   C1A15015   2.721  16.114   6.209 -0.1586  0.1119 -0.1654
 1072YOPC   D2A15016   2.955  16.459   6.239 -0.5027  0.0435 -0.1396
 1072YOPC   C3A15017   3.250  16.464   6.578  0.1590 -0.0018 -0.0195
 1072YOPC   C4A15018   3.502  16.527   7.002  0.2639 -0.1568  0.2318
 1072YOPC   C1B15019   2.661  15.674   6.404  0.0264  0.0178  0.1727
 1072YOPC   C2B15020   2.691  15.735   6.876  0.0620 -0.1173 -0.0535
 1072YOPC   D3B15021   2.510  15.895   7.077 -0.3274 -0.1663 -0.3436
 1072YOPC   C4B15022   2.480  15.958   7.559  0.0588 -0.0668 -0.1893
 1073YOPC   NC315023  15.695  13.722   5.807 -0.2331 -0.2225  0.4189
 1073YOPC   PO415024  15.924  13.379   5.718  0.1003  0.0104 -0.1402
 1073YOPC   GL115025  16.062  13.587   6.070  0.0642  0.1822  0.1913
 1073YOPC   GL215026  16.159  13.960   6.159 -0.0522  0.0434  0.0328
 1073YOPC   C1A15027  15.969  13.702   6.600 -0.2179 -0.0309 -0.1196
 1073YOPC   D2A15028  15.637  13.630   6.943  0.2453 -0.0905  0.0018
 1073YOPC   C3A15029  15.307  13.390   7.296 -0.0124  0.2448  0.0175
 1073YOPC   C4A15030  15.122  13.523   7.615  0.0777  0.1144  0.0445
 1073YOPC   C1B15031  16.232  14.105   6.598  0.0327  0.1904  0.2319
 1073YOPC   C2B15032  15.984  14.203   6.824  0.2152 -0.0270  0.0200
 1073YOPC   D3B15033  15.883  14.013   7.168 -0.0603  0.0924 -0.2822
 1073YOPC   C4B15034  15.534  13.846   7.463  0.0240  0.2444 -0.3043
 1074YOPC   NC315035  18.012  12.359   5.608  0.0083  0.2628 -0.0773
 1074YOPC   PO415036  17.954  11.954   5.794 -0.0784 -0.2746 -0.1052
 1074YOPC   GL115037  17.843  11.852   6.097  0.3408 -0.0597  0.1640
 1074YOPC   GL215038  17.479  11.743   6.111  0.0844 -0.0788  0.1250
 1074YOPC   C1A15039  17.970  11.551   6.446  0.2005 -0.1720  0.0217
 1074YOPC   D2A15040  18.079  11.342   6.876 -0.1842 -0.3745 -0.3495
 1074YOPC   C3A15041  17.806  11.423   7.243  0.0832 -0.0137  0.0702
 1074YOPC   C4A15042  17.777  11.766   7.560  0.2986  0.0342 -0.1985
 1074YOPC   C1B15043  17.495  11.955   6.524  0.0301  0.2122 -0.1518
 1074YOPC   C2B15044  17.227  11.926   6.827  0.1938  0.6572  0.0967
 1074YOPC   D3B15045  17.157  12.279   7.084  0.0234  0.0490  0.1582
 1074YOPC   C4B15046  17.054  12.455   7.498 -0.0749 -0.3242 -0.3418
 1075YOPC   NC315047  11.975   8.890   5.392 -0.0943  0.2590 -0.0341
 1075YOPC   PO415048  12.246   8.592   5.577 -0.1340 -0.1767 -0.0253
 1075YOPC   GL115049  12.320   8.389   5.995  0.2605 -0.1704  0.1133
 1075YOPC   GL215050  12.046   8.313   6.105  0.0095 -0.0443 -0.0309
 1075YOPC   C1A15051  12.341   8.491   6.451 -0.0268 -0.0163 -0.0043
 1075YOPC   D2A15052  12.582   8.558   6.768  0.0538 -0.3550 -0.1920
 1075YOPC   C3A15053  12.690   8.380   7.154  0.0907  0.3311 -0.2490
 1075YOPC   C4A15054  12.696   8.001   7.261  0.2086 -0.1425 -0.1699
 1075YOPC   C1B15055  12.196   8.023   6.455  0.2478  0.1633 -0.1167
 1075YOPC   C2B15056  12.456   8.069   6.818 -0.3899 -0.0129 -0.0188
 1075YOPC   D3B15057  12.192   8.125   7.135 -0.0418  0.1427  0.0107
 1075YOPC   C4B15058  11.825   8.161   7.300  0.0093 -0.2478 -0.1174
 1076YOPC   NC315059   1.221  11.195   5.459  0.0777  0.2188  0.1364
 1076YOPC   PO415060   0.898  11.322   5.797  0.0325 -0.2490  0.2088
 1076YOPC   GL115061   0.982  11.439   6.289  0.0312  0.0272  0.0815
 1076YOPC   GL215062   1.382  11.300   6.363 -0.1280  0.1538 -0.0473
 1076YOPC   C1A15063   1.096  11.368   6.849  0.1217  0.1740 -0.0064
 1076YOPC   D2A15064   1.496  11.477   7.009 -0.3289 -0.0781 -0.0063
 1076YOPC   C3A15065   1.747  11.461   6.694  0.0741 -0.2228 -0.0179
 1076YOPC   C4A15066   2.092  11.232   6.497 -0.4729  0.3340 -0.0653
 1076YOPC   C1B15067   1.163  10.996   6.469  0.3156 -0.0013 -0.0436
 1076YOPC   C2B15068   0.975  10.563   6.826  0.0240  0.1023  0.0236
 1076YOPC   D3B15069   0.767  10.648   7.151 -0.1883 -0.2873 -0.0643
 1076YOPC   C4B15070   0.728  10.263   7.408 -0.0860 -0.1174  0.0852
 1077YOPC   NC315071  11.296   6.736   5.616  0.0590  0.2240 -0.1027
 1077YOPC   PO415072  11.324   7.149   5.951  0.0942  0.2233 -0.0172
 1077YOPC   GL115073  11.121   7.128   6.318  0.0336 -0.0345 -0.1399
 1077YOPC   GL215074  10.969   7.421   6.313 -0.1248  0.3054 -0.2553
 1077YOPC   C1A15075  11.039   7.089   6.784  0.2766 -0.0228 -0.0830
 1077YOPC   D2A15076  11.097   7.408   7.111  0.1154  0.2482  0.0393
 1077YOPC   C3A15077  10.752   7.525   7.326  0.1403  0.0604  0.1721
 1077YOPC   C4A15078  10.411   7.749   7.502  0.1673 -0.0560  0.0247
 1077YOPC   C1B15079  10.756   7.486   6.712 -0.0132  0.0190 -0.3688
 1077YOPC   C2B15080  10.557   7.222   7.014 -0.2393 -0.4412 -0.1477
 1077YOPC   D3B15081  10.153   7.228   7.221 -0.0570  0.0041 -0.0750
 1077YOPC   C4B15082   9.923   7.546   7.604  0.2618  0.1298 -0.0689
 1078YOPC   NC315083  17.501   3.451   5.375  0.0483 -0.0061  0.3425
 1078YOPC   PO415084  17.396   3.250   5.703 -0.2338 -0.1548  0.1461
 1078YOPC   GL115085  17.017   3.151   5.942 -0.3125 -0.1044  0.2223
 1078YOPC   GL215086  16.921   3.219   6.245  0.3115  0.1768 -0.3340
 1078YOPC   C1A15087  16.987   2.737   6.128  0.0690  0.3010  0.5053
 1078YOPC   D2A15088  16.927   2.377   6.407  0.0405  0.0845 -0.2038
 1078YOPC   C3A15089  16.658   2.276   6.841  0.1691  0.0182  0.0352
 1078YOPC   C4A15090  16.634   2.168   7.336  0.1339 -0.0869 -0.0870
 1078YOPC   C1B15091  16.566   3.014   6.244  0.0736  0.2335  0.0772
 1078YOPC   C2B15092  16.245   2.980   6.512 -0.1616  0.0890  0.0250
 1078YOPC   D3B15093  16.283   3.251   6.857  0.0316  0.2160  0.3610
 1078YOPC   C4B15094  16.304   3.575   7.117 -0.0480 -0.1982  0.2642
 1079YOPC   NC315095  17.419  12.975   4.942 -0.1706  0.1661  0.2482
 1079YOPC   PO415096  17.354  13.208   5.457 -0.2045  0.0296  0.1641
 1079YOPC   GL115097  17.420  13.526   5.888 -0.3241  0.2017 -0.1382
 1079YOPC   GL215098  17.443  13.252   6.071  0.2010 -0.1527  0.1961
 1079YOPC   C1A15099  17.295  13.883   6.122  0.1756 -0.0597  0.0535
 1079YOPC   D2A15100  17.486  14.256   6.286 -0.0209  0.0739 -0.2415
 1079YOPC   C3A15101  17.712  14.224   6.590 -0.0093 -0.1284  0.1397
 1079YOPC   C4A15102  17.704  14.384   6.915  0.1053 -0.0662  0.1903
 1079YOPC   C1B15103  17.409  13.251   6.547  0.1136 -0.0868  0.2563
 1079YOPC   C2B15104  17.293  13.434   6.968  0.0227 -0.1545 -0.3770
 1079YOPC   D3B15105  17.145  13.244   7.373 -0.0887 -0.3737  0.0921
 1079YOPC   C4B15106  17.263  12.933   7.635  0.0645  0.0069 -0.1853
 1080YOPC   NC315107   1.378   4.994   5.530 -0.4027 -0.1020 -0.0195
 1080YOPC   PO415108   1.470   5.484   5.669  0.0928 -0.1910 -0.0361
 1080YOPC   GL115109   1.482   5.127   6.079  0.1333  0.0334 -0.0682
 1080YOPC   GL215110   1.730   4.994   6.202  0.2809  0.0400  0.0524
 1080YOPC   C1A15111   1.269   4.948   6.436  0.2338  0.0780 -0.0807
 1080YOPC   D2A15112   1.350   4.872   6.834 -0.0883  0.0502  0.1690
 1080YOPC   C3A15113   1.685   5.017   7.131 -0.3707 -0.0621  0.0701
 1080YOPC   C4A15114   1.847   5.021   7.611  0.1821  0.1036  0.1662
 1080YOPC   C1B15115   1.854   5.078   6.624  0.0878  0.1723 -0.0924
 1080YOPC   C2B15116   1.926   5.411   6.850  0.0460  0.0841  0.0411
 1080YOPC   D3B15117   2.019   5.373   7.280 -0.2023 -0.2135 -0.2024
 1080YOPC   C4B15118   2.036   5.497   7.766  0.1800 -0.1743 -0.0586
 1081YOPC   NC315119   3.256  17.474   5.502 -0.2383  0.2433 -0.1731
 1081YOPC   PO415120   3.190  17.031   5.546 -0.1016  0.1712 -0.1931
 1081YOPC   GL115121   3.001  16.900   5.962  0.0491 -0.3754  0.2546
 1081YOPC   GL215122   2.728  17.049   6.143  0.1870  0.2731  0.0673
 1081YOPC   C1A15123   3.114  16.895   6.475  0.1269  0.0829 -0.0822
 1081YOPC   D2A15124   3.113  16.910   6.915 -0.0381  0.2202  0.1339
 1081YOPC   C3A15125   2.941  17.125   7.181  0.0571 -0.2542  0.1534
 1081YOPC   C4A15126   2.928  17.067   7.725  0.1708 -0.3259 -0.0574
 1081YOPC   C1B15127   2.759  17.226   6.652 -0.0516  0.0047  0.0058
 1081YOPC   C2B15128   2.431  17.141   6.959 -0.2086  0.0848 -0.3202
 1081YOPC   D3B15129   2.180  16.778   6.870 -0.1490  0.0296  0.1433
 1081YOPC   C4B15130   2.238  16.380   6.995 -0.1035 -0.2575  0.2513
 1082YOPC   NC315131  13.690  10.482   5.505 -0.1830  0.2745 -0.0016
 1082YOPC   PO415132  14.132  10.412   5.290  0.4203  0.0836 -0.0441
 1082YOPC   GL115133  14.205  10.289   5.671  0.1930  0.3434  0.0154
 1082YOPC   GL215134  14.132   9.938   5.737 -0.3895 -0.1244  0.0446
 1082YOPC   C1A15135  14.128  10.382   6.094  0.1448 -0.2565  0.0697
 1082YOPC   D2A15136  13.823  10.432   6.409  0.1888  0.2769  0.2159
 1082YOPC   C3A15137  13.938  10.548   6.816 -0.0331  0.0623 -0.0097
 1082YOPC   C4A15138  14.021  10.572   7.221  0.1717  0.1050  0.1088
 1082YOPC   C1B15139  13.808  10.021   5.963  0.2734  0.0684  0.1680
 1082YOPC   C2B15140  13.444   9.776   6.170  0.1023  0.0271  0.0190
 1082YOPC   D3B15141  13.399   9.839   6.591 -0.2009  0.2992  0.1272
 1082YOPC   C4B15142  13.633  10.152   6.809 -0.1050 -0.2327  0.0434
 1083YOPC   NC315143   7.191   4.423   5.572 -0.1717  0.2793  0.1715
 1083YOPC   PO415144   6.745   4.572   5.545  0.3647 -0.0921 -0.0219
 1083YOPC   GL115145   6.718   4.462   5.925  0.1060 -0.0409  0.1909
 1083YOPC   GL215146   6.930   4.187   5.960 -0.0505 -0.2111 -0.2359
 1083YOPC   C1A15147   6.586   4.455   6.327 -0.0809  0.1302 -0.2166
 1083YOPC   D2A15148   6.480   4.292   6.778  0.0160 -0.3208 -0.1431
 1083YOPC   C3A15149   6.382   4.515   7.066  0.2730 -0.3167 -0.1466
 1083YOPC   C4A15150   6.513   4.593   7.494  0.2569 -0.0496 -0.1177
 1083YOPC   C1B15151   6.856   3.964   6.382  0.0298 -0.1419 -0.1810
 1083YOPC   C2B15152   6.752   3.910   6.870  0.1679 -0.3961  0.1991
 1083YOPC   D3B15153   6.327   3.880   7.084 -0.0129  0.2729  0.0909
 1083YOPC   C4B15154   5.955   4.062   7.020  0.0732  0.0620  0.2208
 1084YOPC   NC315155   5.225  15.249   5.673 -0.2219 -0.1689  0.0980
 1084YOPC   PO415156   5.205  14.866   5.790 -0.0666  0.3708  0.1467
 1084YOPC   GL115157   5.155  14.877   6.194 -0.2287 -0.4975 -0.1081
 1084YOPC   GL215158   4.856  14.688   6.196  0.2266 -0.1200 -0.2558
 1084YOPC   C1A15159   5.087  14.986   6.522  0.1846 -0.0273 -0.0623
 1084YOPC   D2A15160   4.984  15.316   6.686 -0.1187  0.0635 -0.0165
 1084YOPC   C3A15161   5.055  15.439   7.095  0.1032  0.2052  0.1344
 1084YOPC   C4A15162   4.944  15.285   7.444 -0.0700  0.2759 -0.3771
 1084YOPC   C1B15163   4.897  14.542   6.538  0.3124  0.0405  0.2778
 1084YOPC   C2B15164   4.929  14.583   6.980 -0.0329 -0.1305 -0.1065
 1084YOPC   D3B15165   5.230  14.419   7.186 -0.0080  0.0609  0.1223
 1084YOPC   C4B15166   5.202  14.216   7.609 -0.0509 -0.0315  0.1005
 1085YOPC   NC315167  10.722  15.375   5.136 -0.1353 -0.2585  0.3168
 1085YOPC   PO415168  10.615  15.638   5.521  0.1439 -0.3109  0.1535
 1085YOPC   GL115169  10.639  15.443   5.907  0.1749 -0.0563  0.1917
 1085YOPC   GL215170  10.922  15.416   5.945 -0.0623  0.1489 -0.1413
 1085YOPC   C1A15171  10.494  15.318   6.304 -0.1026 -0.0750  0.1118
 1085YOPC   D2A15172  10.243  15.369   6.670 -0.2049  0.1521  0.1293
 1085YOPC   C3A15173   9.993  15.424   7.117  0.0534 -0.1356  0.2518
 1085YOPC   C4A15174   9.936  15.249   7.546  0.5040  0.0722  0.3092
 1085YOPC   C1B15175  11.129  15.270   6.263 -0.0364 -0.1323 -0.4445
 1085YOPC   C2B15176  11.031  15.266   6.663  0.2475 -0.0513 -0.1360
 1085YOPC   D3B15177  11.297  15.336   7.042 -0.0130  0.0285  0.0140
 1085YOPC   C4B15178  11.577  15.256   7.348  0.0715  0.2763 -0.3367
 1086YOPC   NC315179   1.515   9.403   5.605 -0.4754  0.3096  0.0703
 1086YOPC   PO415180   1.606   9.751   5.418  0.0086 -0.3966  0.2594
 1086YOPC   GL115181   1.742   9.876   5.775 -0.2292  0.1548 -0.0759
 1086YOPC   GL215182   1.909   9.616   5.926  0.1108  0.1383 -0.3070
 1086YOPC   C1A15183   1.559   9.982   6.213  0.0537 -0.2112 -0.0213
 1086YOPC   D2A15184   1.113  10.030   6.349 -0.0408  0.1005  0.0904
 1086YOPC   C3A15185   1.004  10.008   6.748  0.1056  0.1815 -0.1060
 1086YOPC   C4A15186   1.091  10.049   7.158  0.1997  0.0584 -0.0037
 1086YOPC   C1B15187   2.072   9.755   6.388 -0.3233  0.0006 -0.0956
 1086YOPC   C2B15188   2.245   9.635   6.881 -0.1869 -0.0691  0.2517
 1086YOPC   D3B15189   2.184   9.618   7.280  0.0372  0.0578 -0.2586
 1086YOPC   C4B15190   2.331   9.780   7.831  0.0657  0.0651 -0.3723
 1087YOPC   NC315191  12.700   2.290   5.591  0.0684  0.5269 -0.2219
 1087YOPC   PO415192  12.301   2.122   5.533  0.1583 -0.0250  0.2506
 1087YOPC   GL115193  12.073   2.145   5.953 -0.1038 -0.0158  0.0870
 1087YOPC   GL215194  11.860   1.890   6.074 -0.2556 -0.0829  0.0669
 1087YOPC   C1A15195  11.835   2.308   6.290 -0.0764  0.2753  0.1746
 1087YOPC   D2A15196  11.907   2.669   6.627  0.0604  0.0527 -0.0779
 1087YOPC   C3A15197  11.891   2.672   7.031 -0.0578  0.0585  0.0115
 1087YOPC   C4A15198  11.898   2.556   7.437  0.0512  0.2815  0.2514
 1087YOPC   C1B15199  11.645   1.975   6.565 -0.0062 -0.0595  0.1498
 1087YOPC   C2B15200  11.559   2.392   6.756 -0.2044 -0.0647 -0.0407
 1087YOPC   D3B15201  11.381   2.353   7.133  0.1852  0.0227 -0.0103
 1087YOPC   C4B15202  11.457   2.182   7.500 -0.1473 -0.1885  0.1852
 1088YOPC   NC315203   3.993   5.074   5.634 -0.1259  0.3077  0.0838
 1088YOPC   PO415204   3.610   5.201   5.806  0.2770 -0.0607 -0.4524
 1088YOPC   GL115205   3.430   5.371   6.177  0.2327 -0.0156  0.0148
 1088YOPC   GL215206   3.512   5.657   6.209 -0.0080 -0.0531  0.0091
 1088YOPC   C1A15207   3.225   5.373   6.554 -0.2432 -0.1841 -0.1112
 1088YOPC   D2A15208   2.908   5.334   6.875  0.0046  0.1812  0.0830
 1088YOPC   C3A15209   3.098   5.281   7.247 -0.1238 -0.0297  0.0155
 1088YOPC   C4A15210   3.415   4.896   7.324 -0.0952  0.1092 -0.0965
 1088YOPC   C1B15211   3.682   5.473   6.562  0.0872  0.1202 -0.0247
 1088YOPC   C2B15212   4.012   5.477   6.930 -0.3047  0.3049 -0.1893
 1088YOPC   D3B15213   3.939   5.260   7.243 -0.2476  0.1589  0.2179
 1088YOPC   C4B15214   3.911   5.013   7.574 -0.0707  0.0627 -0.3767
 1089YOPC   NC315215   3.176   6.002   5.965 -0.2028 -0.3835 -0.0569
 1089YOPC   PO415216   3.608   6.113   5.904  0.0956  0.2284 -0.0216
 1089YOPC   GL115217   3.478   6.402   6.216 -0.4549 -0.1705 -0.0244
 1089YOPC   GL215218   3.689   6.638   6.133  0.0177  0.1251 -0.0510
 1089YOPC   C1A15219   3.499   6.384   6.729 -0.0199  0.0856  0.3158
 1089YOPC   D2A15220   3.621   6.478   7.118  0.0069 -0.2616  0.0813
 1089YOPC   C3A15221   3.578   6.694   7.508  0.1444 -0.3921  0.1680
 1089YOPC   C4A15222   3.445   6.658   7.923  0.0666  0.2194  0.0588
 1089YOPC   C1B15223   3.823   6.833   6.583  0.1512 -0.3235 -0.0684
 1089YOPC   C2B15224   3.763   6.983   7.009  0.0820 -0.0006 -0.0682
 1089YOPC   D3B15225   3.562   7.215   7.376  0.3097 -0.2751  0.1921
 1089YOPC   C4B15226   3.262   7.142   7.722 -0.3509  0.0905  0.0819
 1090YOPC   NC315227   7.907  11.321   5.218 -0.0588  0.2360  0.1072
 1090YOPC   PO415228   7.594  11.427   5.417  0.1029  0.0484  0.0611
 1090YOPC   GL115229   7.489  11.234   5.773 -0.3690 -0.0242 -0.0427
 1090YOPC   GL215230   7.282  10.984   5.813  0.1469 -0.2334 -0.0034
 1090YOPC   C1A15231   7.476  11.246   6.245 -0.3091 -0.1665 -0.1136
 1090YOPC   D2A15232   7.658  11.058   6.567  0.3986  0.2823 -0.0184
 1090YOPC   C3A15233   7.703  11.045   6.870 -0.0020  0.1368 -0.0516
 1090YOPC   C4A15234   7.913  10.868   7.105  0.0698 -0.1640 -0.3240
 1090YOPC   C1B15235   7.254  10.823   6.187 -0.0268  0.2021 -0.1125
 1090YOPC   C2B15236   7.245  10.558   6.526 -0.0575  0.1912 -0.1634
 1090YOPC   D3B15237   7.305  10.580   6.824  0.2726 -0.2462  0.4116
 1090YOPC   C4B15238   7.248  10.215   7.005  0.2755  0.0867 -0.1556
 1091YOPC   NC315239  14.022   2.453   5.502 -0.1960  0.0800  0.0954
 1091YOPC   PO415240  13.911   2.802   5.669  0.0306  0.0738 -0.2251
 1091YOPC   GL115241  14.004   2.790   5.989 -0.0764  0.2586 -0.1181
 1091YOPC   GL215242  14.175   2.643   6.162 -0.1419  0.2627  0.2421
 1091YOPC   C1A15243  13.799   2.917   6.339 -0.0090  0.3910 -0.1300
 1091YOPC   D2A15244  13.623   3.078   6.637 -0.1742 -0.1369 -0.3888
 1091YOPC   C3A15245  13.629   2.926   7.036  0.3088 -0.2067  0.1165
 1091YOPC   C4A15246  13.592   3.040   7.356  0.1238  0.3186  0.0989
 1091YOPC   C1B15247  14.460   2.477   6.460 -0.2839 -0.2504 -0.2691
 1091YOPC   C2B15248  14.428   2.283   6.903 -0.0058  0.5050 -0.0906
 1091YOPC   D3B15249  14.526   2.523   7.271  0.3372  0.1617 -0.2451
 1091YOPC   C4B15250  14.567   2.724   7.578  0.0056  0.0151  0.4330
 1092YOPC   NC315251   0.203   3.618   5.643  0.2568  0.3523 -0.0556
 1092YOPC   PO415252   0.447   3.993   5.807 -0.4141 -0.1580  0.0768
 1092YOPC   GL115253   0.427   3.612   6.092 -0.0536 -0.6044 -0.2062
 1092YOPC   GL215254   0.674   3.529   6.337 -0.2054 -0.0511 -0.4329
 1092YOPC   C1A15255   0.192   3.625   6.433 -0.2184  0.0546  0.1573
 1092YOPC   D2A15256  -0.185   3.713   6.558 -0.1425  0.0103  0.1860
 1092YOPC   C3A15257  -0.270   4.006   6.905  0.1489 -0.2776 -0.1886
 1092YOPC   C4A15258  -0.402   4.232   7.239  0.0699 -0.1844  0.0641
 1092YOPC   C1B15259   0.823   3.457   6.679  0.1253 -0.1439  0.0151
 1092YOPC   C2B15260   0.812   3.437   7.052 -0.0142  0.0876 -0.1579
 1092YOPC   D3B15261   0.737   2.979   6.972  0.0216  0.0970 -0.2046
 1092YOPC   C4B15262   1.015   2.721   6.980  0.1610 -0.3036 -0.0804
 1093YOPC   NC315263  17.027   3.587   5.707  0.1981  0.3341  0.0377
 1093YOPC   PO415264  17.329   3.931   5.509 -0.0440  0.0128  0.0030
 1093YOPC   GL115265  17.543   4.123   5.822 -0.0173  0.1226 -0.0196
 1093YOPC   GL215266  17.533   4.396   6.111  0.1231  0.1927 -0.0126
 1093YOPC   C1A15267  17.714   3.883   6.197  0.2390 -0.1998 -0.0200
 1093YOPC   D2A15268  17.893   3.850   6.652 -0.3941 -0.0494 -0.0403
 1093YOPC   C3A15269  17.917   3.831   7.123 -0.0983  0.0034  0.0535
 1093YOPC   C4A15270  18.106   3.771   7.517 -0.4134 -0.2240 -0.0351
 1093YOPC   C1B15271  17.355   4.308   6.452  0.0970  0.0401  0.0060
 1093YOPC   C2B15272  17.089   4.282   6.869  0.0801 -0.0450 -0.2420
 1093YOPC   D3B15273  17.200   4.483   7.185 -0.1302 -0.3073 -0.1148
 1093YOPC   C4B15274  17.432   4.751   7.494  0.1635 -0.0311  0.1213
 1094YOPC   NC315275  14.257  16.657   5.638 -0.1807 -0.0890 -0.0954
 1094YOPC   PO415276  14.547  16.251   5.703 -0.1036 -0.0448  0.0939
 1094YOPC   GL115277  14.166  16.332   6.055  0.0405  0.0137  0.0354
 1094YOPC   GL215278  14.012  16.490   6.106  0.0308  0.2904 -0.2303
 1094YOPC   C1A15279  14.308  16.146   6.541  0.1614 -0.2963  0.3412
 1094YOPC   D2A15280  14.367  16.320   6.878  0.3173  0.2058  0.0462
 1094YOPC   C3A15281  14.078  16.341   7.183 -0.2587 -0.1075  0.1881
 1094YOPC   C4A15282  13.941  16.192   7.625  0.1000 -0.0163  0.1436
 1094YOPC   C1B15283  13.864  16.197   6.432 -0.1547  0.3647  0.0278
 1094YOPC   C2B15284  13.513  15.915   6.501 -0.1165  0.0072  0.3089
 1094YOPC   D3B15285  13.453  15.581   6.715  0.2318 -0.0717 -0.1135
 1094YOPC   C4B15286  13.267  15.493   7.069  0.2542 -0.1375  0.0224
 1095YOPC   NC315287  13.438   2.614   5.745 -0.0737 -0.3670  0.2732
 1095YOPC   PO415288  13.552   3.098   5.788  0.1968 -0.3707  0.3656
 1095YOPC   GL115289  13.859   3.332   5.867  0.0944  0.1850 -0.1639
 1095YOPC   GL215290  13.665   3.610   5.974  0.3770 -0.1890  0.1047
 1095YOPC   C1A15291  14.233   3.216   6.131  0.3189  0.2950  0.2136
 1095YOPC   D2A15292  14.438   3.044   6.400  0.2977 -0.3025  0.1620
 1095YOPC   C3A15293  14.841   3.153   6.503 -0.0413  0.0983 -0.1317
 1095YOPC   C4A15294  15.123   3.155   6.810 -0.0805  0.0403  0.4777
 1095YOPC   C1B15295  13.759   3.484   6.357  0.0643  0.2023 -0.1475
 1095YOPC   C2B15296  13.904   3.443   6.788 -0.0578  0.2450  0.0282
 1095YOPC   D3B15297  14.062   3.108   6.913 -0.3070  0.0562 -0.0571
 1095YOPC   C4B15298  14.131   2.715   6.803 -0.3022 -0.0990 -0.0871
 1096YOPC   NC315299   6.703  12.136   5.106  0.1753 -0.0261  0.2269
 1096YOPC   PO415300   6.588  12.364   5.373  0.1598  0.2980 -0.1068
 1096YOPC   GL115301   6.481  12.498   5.727  0.0139  0.2907 -0.1971
 1096YOPC   GL215302   6.256  12.285   5.829  0.0324 -0.1734 -0.2327
 1096YOPC   C1A15303   6.501  12.801   6.003  0.2783  0.3806  0.3133
 1096YOPC   D2A15304   6.506  13.183   6.266 -0.1295 -0.0597 -0.0121
 1096YOPC   C3A15305   6.526  13.625   6.107  0.0732  0.2029 -0.1380
 1096YOPC   C4A15306   6.824  13.877   6.266  0.1458  0.0497 -0.3448
 1096YOPC   C1B15307   6.090  12.559   6.121  0.3019  0.1470  0.1210
 1096YOPC   C2B15308   6.084  12.701   6.530  0.1910 -0.1249  0.0081
 1096YOPC   D3B15309   6.033  12.516   6.815  0.1945 -0.0388  0.2517
 1096YOPC   C4B15310   6.419  12.421   7.160  0.1192  0.0609 -0.1040
 1097YOPC   NC315311   0.013  10.691   5.531 -0.0948 -0.1976  0.0739
 1097YOPC   PO415312   0.122  11.087   5.593  0.0268  0.0004 -0.1193
 1097YOPC   GL115313   0.368  11.022   5.906 -0.0450 -0.0772  0.0551
 1097YOPC   GL215314   0.414  10.731   5.948  0.0382  0.1452  0.1681
 1097YOPC   C1A15315   0.258  11.196   6.319 -0.1054 -0.1806 -0.1764
 1097YOPC   D2A15316   0.212  11.391   6.711 -0.1013  0.1984  0.0839
 1097YOPC   C3A15317   0.098  11.707   6.938  0.0561  0.3920  0.0408
 1097YOPC   C4A15318  -0.098  11.789   7.180  0.2591 -0.1821 -0.1910
 1097YOPC   C1B15319   0.428  10.673   6.345 -0.0418  0.2693  0.2667
 1097YOPC   C2B15320   0.353  10.562   6.744 -0.0307 -0.2729  0.0404
 1097YOPC   D3B15321   0.326  10.861   7.176 -0.0458 -0.2476 -0.0819
 1097YOPC   C4B15322   0.254  11.349   7.253  0.0978  0.1468 -0.2625
 1098YOPC   NC315323  18.232  14.313   5.162  0.0670 -0.1637  0.2189
 1098YOPC   PO415324  18.296  14.719   5.214 -0.1350  0.2135  0.1803
 1098YOPC   GL115325  18.507  14.567   5.677 -0.4513 -0.0159 -0.0845
 1098YOPC   GL215326  18.438  14.227   5.823  0.0767 -0.2231  0.4534
 1098YOPC   C1A15327  18.817  14.595   6.058 -0.0527  0.3034  0.0571
 1098YOPC   D2A15328  19.104  14.727   6.331 -0.0981  0.0277 -0.0802
 1098YOPC   C3A15329  18.951  15.226   6.484  0.1800  0.0057  0.3660
 1098YOPC   C4A15330  18.736  15.455   6.782  0.1701 -0.1834 -0.2315
 1098YOPC   C1B15331  18.360  14.474   6.227  0.2248 -0.2021  0.0178
 1098YOPC   C2B15332  18.411  14.822   6.321  0.1706 -0.3033  0.2830
 1098YOPC   D3B15333  18.663  14.770   6.682  0.2243 -0.2661  0.1987
 1098YOPC   C4B15334  18.943  15.052   7.020  0.2497 -0.0766  0.2758
 1099YOPC   NC315335   5.575   2.567   5.604  0.1251 -0.0088  0.2634
 1099YOPC   PO415336   5.958   2.806   5.559  0.0022 -0.0486  0.3379
 1099YOPC   GL115337   5.991   2.772   5.960 -0.0049 -0.0822  0.2397
 1099YOPC   GL215338   5.756   2.519   6.015  0.0464  0.1121 -0.3021
 1099YOPC   C1A15339   6.312   2.506   6.052  0.0582  0.1664  0.1377
 1099YOPC   D2A15340   6.723   2.364   6.232 -0.1032  0.3557  0.0831
 1099YOPC   C3A15341   6.732   2.506   6.656  0.2724  0.1052  0.0089
 1099YOPC   C4A15342   6.683   2.536   7.095 -0.0757  0.2918 -0.2422
 1099YOPC   C1B15343   5.924   2.564   6.430 -0.1391  0.3297  0.0363
 1099YOPC   C2B15344   5.833   2.503   6.813 -0.1110 -0.0221  0.1115
 1099YOPC   D3B15345   6.104   2.375   7.201 -0.2907 -0.1185 -0.0171
 1099YOPC   C4B15346   6.416   2.461   7.540  0.1871  0.1929 -0.3041
 1100YOPC   NC315347  17.835   1.353   5.674  0.3476 -0.0827  0.1220
 1100YOPC   PO415348  17.759   0.897   5.499  0.1323 -0.0296  0.0022
 1100YOPC   GL115349  17.767   0.712   5.878 -0.1279 -0.0774  0.3020
 1100YOPC   GL215350  17.729   0.421   5.824 -0.0184  0.1737 -0.1436
 1100YOPC   C1A15351  17.413   0.887   6.233  0.1163 -0.0229  0.4396
 1100YOPC   D2A15352  16.998   1.159   6.124  0.2687  0.0251 -0.0821
 1100YOPC   C3A15353  16.497   1.079   6.246 -0.0739 -0.0924  0.0180
 1100YOPC   C4A15354  16.456   0.958   6.631  0.2951  0.0618 -0.1851
 1100YOPC   C1B15355  17.792   0.445   6.298  0.0370 -0.0997  0.2724
 1100YOPC   C2B15356  17.643   0.482   6.701 -0.0038 -0.0408 -0.1280
 1100YOPC   D3B15357  17.286   0.680   6.811  0.0313 -0.1506  0.0192
 1100YOPC   C4B15358  17.170   1.065   6.629 -0.1574 -0.1012 -0.2572
 1101YOPC   NC315359   5.972  17.657   5.371 -0.0825  0.1322 -0.0508
 1101YOPC   PO415360   6.200  17.324   5.401  0.1243 -0.0224 -0.0152
 1101YOPC   GL115361   6.115  17.427   5.859 -0.0314 -0.0605  0.0087
 1101YOPC   GL215362   5.808  17.652   5.840  0.1431  0.1120 -0.0461
 1101YOPC   C1A15363   6.089  17.477   6.285  0.0807  0.1191 -0.3056
 1101YOPC   D2A15364   5.831  17.748   6.425  0.0110 -0.1827 -0.0744
 1101YOPC   C3A15365   5.848  17.727   6.901  0.1126  0.0945 -0.0556
 1101YOPC   C4A15366   5.933  17.439   7.289 -0.3455  0.0084 -0.0930
 1101YOPC   C1B15367   5.663  17.383   6.145 -0.3516 -0.1841 -0.0672
 1101YOPC   C2B15368   5.780  17.287   6.627  0.2553  0.0352  0.1034
 1101YOPC   D3B15369   5.522  17.149   6.910 -0.1437  0.0749  0.1298
 1101YOPC   C4B15370   5.195  16.888   7.216  0.0648  0.1982  0.0886
 1102YOPC   NC315371  12.573  16.694   5.372  0.1167  0.0448  0.2001
 1102YOPC   PO415372  12.235  16.464   5.638  0.0513  0.0998  0.1532
 1102YOPC   GL115373  12.282  16.596   6.005  0.3280 -0.0480  0.3941
 1102YOPC   GL215374  12.632  16.629   5.985 -0.0942 -0.1557  0.2843
 1102YOPC   C1A15375  12.195  16.553   6.393 -0.0714 -0.3499  0.0810
 1102YOPC   D2A15376  12.002  16.524   6.757 -0.2583 -0.3624 -0.1342
 1102YOPC   C3A15377  12.090  16.765   7.144  0.0213 -0.1616 -0.1946
 1102YOPC   C4A15378  12.223  17.139   7.150  0.1593  0.0749  0.2768
 1102YOPC   C1B15379  12.742  16.593   6.372 -0.1259 -0.2094 -0.1685
 1102YOPC   C2B15380  12.560  16.690   6.843  0.1941 -0.1341 -0.0318
 1102YOPC   D3B15381  12.649  16.874   7.164 -0.1477 -0.1537 -0.0571
 1102YOPC   C4B15382  12.621  16.795   7.587  0.1932 -0.0762  0.2537
 1103YOPC   NC315383   9.299   5.137   5.603 -0.0245 -0.1821 -0.0473
 1103YOPC   PO415384   8.855   5.077   5.788 -0.1341 -0.0437 -0.1616
 1103YOPC   GL115385   9.057   5.141   6.204  0.1397  0.0667  0.0767
 1103YOPC   GL215386   8.960   5.377   6.509  0.0019 -0.0727 -0.0011
 1103YOPC   C1A15387   9.295   4.972   6.562  0.1326  0.1452 -0.0586
 1103YOPC   D2A15388   9.467   4.972   7.053  0.1642  0.1141 -0.1662
 1103YOPC   C3A15389   9.319   4.697   7.544  0.0962 -0.2389 -0.1183
 1103YOPC   C4A15390   9.241   4.788   8.006  0.0302  0.1921 -0.0657
 1103YOPC   C1B15391   9.020   5.263   6.949 -0.1331  0.1880 -0.1024
 1103YOPC   C2B15392   9.209   5.287   7.400  0.0554 -0.0672 -0.1847
 1103YOPC   D3B15393   9.025   5.207   7.828  0.1411 -0.0903  0.0513
 1103YOPC   C4B15394   9.005   5.178   8.248 -0.2447  0.1848 -0.0702
 1104YOPC   NC315395  16.905   5.418   5.237 -0.1559 -0.0472  0.3073
 1104YOPC   PO415396  17.196   5.682   5.499 -0.0876 -0.2632  0.0244
 1104YOPC   GL115397  17.093   5.725   5.931  0.5488  0.1393 -0.2561
 1104YOPC   GL215398  16.833   5.672   6.091  0.1549 -0.0598 -0.0701
 1104YOPC   C1A15399  17.229   5.658   6.373 -0.1532 -0.1294  0.0196
 1104YOPC   D2A15400  17.221   5.367   6.811 -0.0702  0.0888 -0.2191
 1104YOPC   C3A15401  17.643   5.318   7.037  0.0147  0.0651  0.1980
 1104YOPC   C4A15402  17.744   5.133   7.578  0.0721 -0.1404 -0.0744
 1104YOPC   C1B15403  16.584   6.064   6.282 -0.0133 -0.2088  0.4838
 1104YOPC   C2B15404  16.609   6.223   6.672 -0.3701  0.0882 -0.1317
 1104YOPC   D3B15405  16.684   6.270   7.048 -0.1706 -0.0909 -0.1093
 1104YOPC   C4B15406  16.515   6.136   7.514  0.3330 -0.3676 -0.1903
 1105YOPC   NC315407  12.794   9.411   5.476 -0.4465  0.2730  0.0704
 1105YOPC   PO415408  12.766   9.748   5.705 -0.1801  0.1488 -0.0127
 1105YOPC   GL115409  12.915   9.940   6.065 -0.2291  0.3070 -0.2027
 1105YOPC   GL215410  13.013  10.248   6.040  0.2921 -0.0149 -0.0884
 1105YOPC   C1A15411  12.789   9.887   6.486  0.1241  0.1973 -0.0744
 1105YOPC   D2A15412  12.519   9.776   6.874  0.0051 -0.3202  0.3109
 1105YOPC   C3A15413  12.057   9.786   6.675  0.1827  0.0606 -0.0518
 1105YOPC   C4A15414  11.703   9.705   6.848  0.2518  0.0695 -0.3050
 1105YOPC   C1B15415  13.122  10.301   6.425 -0.0655  0.0996 -0.0302
 1105YOPC   C2B15416  13.133  10.272   6.887 -0.1379 -0.0712 -0.1275
 1105YOPC   D3B15417  12.947   9.942   7.081  0.0380 -0.0750 -0.1171
 1105YOPC   C4B15418  12.997   9.842   7.576 -0.3890 -0.0529  0.0894
 1106YOPC   NC315419   7.532  18.360   5.280  0.2003  0.1200 -0.4257
 1106YOPC   PO415420   7.149  18.250   5.424  0.2077 -0.0048 -0.2668
 1106YOPC   GL115421   7.419  18.107   5.770 -0.1905  0.0191  0.2510
 1106YOPC   GL215422   7.757  18.154   5.686 -0.1823 -0.1138 -0.2068
 1106YOPC   C1A15423   7.638  18.003   6.180 -0.1775 -0.0822  0.0087
 1106YOPC   D2A15424   8.076  18.172   6.391  0.1465  0.2488  0.0115
 1106YOPC   C3A15425   8.135  18.184   6.760  0.4918 -0.1820 -0.3400
 1106YOPC   C4A15426   7.988  18.516   7.055  0.0539 -0.1532 -0.2198
 1106YOPC   C1B15427   7.702  18.436   5.998  0.0606  0.0496 -0.0332
 1106YOPC   C2B15428   7.504  18.737   6.117 -0.2535 -0.0479  0.0326
 1106YOPC   D3B15429   7.225  18.709   6.318  0.1199  0.0911  0.2816
 1106YOPC   C4B15430   7.117  18.560   6.765 -0.1394  0.0548  0.0134
 1107YOPC   NC315431   0.336   2.298   5.930  0.0784 -0.2793 -0.1077
 1107YOPC   PO415432   0.120   1.952   5.655  0.0022 -0.0299  0.0929
 1107YOPC   GL115433   0.279   1.743   6.030 -0.2943 -0.0197 -0.1799
 1107YOPC   GL215434  -0.018   1.661   6.129 -0.1927  0.0366 -0.0846
 1107YOPC   C1A15435   0.577   1.836   6.432  0.2992 -0.1157  0.1523
 1107YOPC   D2A15436   0.914   1.893   6.687  0.0587  0.1964 -0.2139
 1107YOPC   C3A15437   0.814   1.890   7.094  0.2052  0.0987 -0.2145
 1107YOPC   C4A15438   0.790   1.835   7.604  0.2253 -0.3610  0.1916
 1107YOPC   C1B15439   0.051   1.680   6.506 -0.0614 -0.1785 -0.4364
 1107YOPC   C2B15440   0.329   1.853   6.834  0.0351  0.2460  0.0614
 1107YOPC   D3B15441   0.251   1.986   7.316  0.0167 -0.0162 -0.2784
 1107YOPC   C4B15442   0.453   2.173   7.648  0.2236  0.0455  0.1180
 1108YOPC   NC315443  11.360  17.666   5.466 -0.1896  0.1564 -0.0330
 1108YOPC   PO415444  11.147  18.033   5.418  0.1806  0.2196 -0.3200
 1108YOPC   GL115445  10.963  17.936   5.776 -0.3610 -0.0261  0.0248
 1108YOPC   GL215446  11.143  17.753   5.952 -0.2558  0.1359 -0.0493
 1108YOPC   C1A15447  10.683  17.845   6.155 -0.3260  0.1448 -0.4444
 1108YOPC   D2A15448  10.495  17.747   6.593 -0.0941 -0.1373  0.1528
 1108YOPC   C3A15449  10.086  17.805   6.727 -0.1122 -0.1729  0.1956
 1108YOPC   C4A15450  10.051  18.013   7.123  0.2717 -0.0999  0.2559
 1108YOPC   C1B15451  11.509  17.914   6.163 -0.1659 -0.1304  0.4147
 1108YOPC   C2B15452  11.734  18.239   6.401  0.0345  0.0079  0.1528
 1108YOPC   D3B15453  12.001  18.028   6.717  0.2152  0.0303  0.0383
 1108YOPC   C4B15454  11.932  17.639   7.063  0.0429  0.2398  0.2553
 1109YOPC   NC315455  17.122  11.515   5.371  0.2839 -0.2504  0.0601
 1109YOPC   PO415456  17.452  11.483   5.640 -0.2362  0.0340  0.0805
 1109YOPC   GL115457  17.437  11.275   6.050  0.2004 -0.1228 -0.0781
 1109YOPC   GL215458  17.110  11.232   6.220 -0.1607  0.1868 -0.0114
 1109YOPC   C1A15459  17.470  11.462   6.491  0.4127  0.1409 -0.1764
 1109YOPC   D2A15460  17.546  11.246   6.876  0.2300 -0.1604 -0.0409
 1109YOPC   C3A15461  17.257  11.115   7.143 -0.0188  0.0389  0.0246
 1109YOPC   C4A15462  16.857  11.317   7.344  0.2469 -0.2689  0.2893
 1109YOPC   C1B15463  17.189  10.971   6.555  0.0595  0.4663  0.2616
 1109YOPC   C2B15464  17.485  10.746   6.731  0.0764  0.1281  0.3201
 1109YOPC   D3B15465  17.342  10.586   7.211  0.0713 -0.3831 -0.0938
 1109YOPC   C4B15466  17.124  10.373   7.541 -0.1445  0.2694  0.1132
 1110YOPC   NC315467   6.468   7.740   5.848  0.0424  0.1719 -0.3551
 1110YOPC   PO415468   6.826   7.638   5.997  0.2290  0.1691 -0.0955
 1110YOPC   GL115469   6.584   7.783   6.336  0.1363 -0.3227  0.0610
 1110YOPC   GL215470   6.899   7.690   6.567 -0.0596 -0.1065 -0.0149
 1110YOPC   C1A15471   6.464   7.813   6.713 -0.2113 -0.0997  0.0480
 1110YOPC   D2A15472   6.408   7.847   7.114 -0.1149 -0.3233  0.4781
 1110YOPC   C3A15473   6.593   8.088   7.426 -0.0903  0.1003  0.2868
 1110YOPC   C4A15474   6.973   8.105   7.512  0.2326 -0.1140 -0.1816
 1110YOPC   C1B15475   6.974   7.621   6.943  0.0357  0.2063 -0.0129
 1110YOPC   C2B15476   6.851   7.670   7.238  0.0940  0.2511 -0.0179
 1110YOPC   D3B15477   6.737   7.632   7.654 -0.1917  0.1882  0.1341
 1110YOPC   C4B15478   6.893   7.848   8.018  0.2636 -0.0112  0.3931
 1111YOPC   NC315479   5.415   8.156   5.558  0.0721  0.0005 -0.0171
 1111YOPC   PO415480   5.610   7.784   5.245  0.0524  0.2614  0.0495
 1111YOPC   GL115481   5.557   7.754   5.775 -0.0549 -0.0258 -0.1873
 1111YOPC   GL215482   5.223   7.725   5.822 -0.0933  0.0401  0.0147
 1111YOPC   C1A15483   5.619   7.624   6.230 -0.0753  0.2076 -0.1462
 1111YOPC   D2A15484   5.478   7.656   6.685 -0.2277  0.1134  0.0435
 1111YOPC   C3A15485   5.440   7.368   6.993 -0.0065 -0.0644 -0.1118
 1111YOPC   C4A15486   5.344   7.255   7.415 -0.0190 -0.0782 -0.1879
 1111YOPC   C1B15487   5.113   7.812   6.243  0.1576  0.1563  0.3453
 1111YOPC   C2B15488   5.020   7.758   6.706 -0.0347 -0.1520 -0.1907
 1111YOPC   D3B15489   5.247   7.862   7.081 -0.1183 -0.2808  0.0661
 1111YOPC   C4B15490   5.432   7.856   7.427 -0.2383  0.0482  0.1361
 1112YOPC   NC315491   2.583  10.494   5.927 -0.0494  0.1669 -0.0138
 1112YOPC   PO415492   2.323  10.786   5.946 -0.2479 -0.2627 -0.0030
 1112YOPC   GL115493   2.263  10.774   6.356  0.0896 -0.3444  0.2970
 1112YOPC   GL215494   2.508  10.480   6.398  0.1715 -0.2066 -0.2146
 1112YOPC   C1A15495   2.134  10.652   6.771 -0.2274 -0.0599  0.2359
 1112YOPC   D2A15496   1.852  10.527   7.021  0.0700 -0.3907  0.3096
 1112YOPC   C3A15497   1.711  10.770   7.323  0.2014  0.2672 -0.1421
 1112YOPC   C4A15498   1.830  10.933   7.764 -0.0047  0.1001 -0.1743
 1112YOPC   C1B15499   2.509  10.429   6.873  0.0080 -0.0376 -0.1037
 1112YOPC   C2B15500   2.595  10.466   7.346  0.2743 -0.0322 -0.2770
 1112YOPC   D3B15501   2.463  10.314   7.786  0.1036  0.1022 -0.0740
 1112YOPC   C4B15502   2.509  10.053   8.228 -0.0379 -0.3211 -0.0030
 1113YOPC   NC315503   2.102  15.588   5.475 -0.2055 -0.0176 -0.1738
 1113YOPC   PO415504   2.487  15.432   5.604  0.3583  0.1037  0.1342
 1113YOPC   GL115505   2.241  15.318   5.869 -0.2576  0.2710  0.1403
 1113YOPC   GL215506   2.193  14.989   5.781 -0.0518  0.0164  0.1194
 1113YOPC   C1A15507   2.253  15.340   6.337  0.1754  0.1021  0.1773
 1113YOPC   D2A15508   2.274  15.503   6.753 -0.0034  0.1716  0.1064
 1113YOPC   C3A15509   2.225  15.900   6.671 -0.1336 -0.1169 -0.2071
 1113YOPC   C4A15510   2.591  16.271   6.658  0.1620  0.1600 -0.0437
 1113YOPC   C1B15511   2.284  14.812   6.082  0.0536 -0.2192  0.0803
 1113YOPC   C2B15512   2.233  14.878   6.524  0.0654 -0.1836  0.0863
 1113YOPC   D3B15513   2.172  14.419   6.726 -0.2382  0.0917 -0.6112
 1113YOPC   C4B15514   2.383  13.971   6.596  0.0197  0.1730  0.0479
 1114YOPC   NC315515  11.131   2.710   5.764 -0.1288  0.0230  0.1089
 1114YOPC   PO415516  11.276   2.252   5.585  0.0292  0.2035 -0.0589
 1114YOPC   GL115517  11.203   2.177   5.970 -0.0880  0.1523 -0.0377
 1114YOPC   GL215518  10.981   2.267   6.015 -0.1752  0.2551  0.0144
 1114YOPC   C1A15519  11.266   2.103   6.327 -0.0526  0.0505  0.1783
 1114YOPC   D2A15520  11.164   2.002   6.777  0.1901  0.0798 -0.1168
 1114YOPC   C3A15521  11.574   1.897   7.109 -0.1052 -0.1269  0.1979
 1114YOPC   C4A15522  11.829   1.848   7.449  0.0147 -0.2647  0.0624
 1114YOPC   C1B15523  10.780   2.184   6.383 -0.0136  0.5696 -0.1818
 1114YOPC   C2B15524  10.653   2.170   6.772  0.2883 -0.0154 -0.1307
 1114YOPC   D3B15525  10.805   2.231   7.127 -0.1232  0.2243 -0.0560
 1114YOPC   C4B15526  10.989   2.467   7.418  0.2243 -0.0155 -0.3801
 1115YOPC   NC315527  14.902   3.336   5.314  0.2594 -0.0582 -0.0961
 1115YOPC   PO415528  14.927   2.941   5.606 -0.1314 -0.0371 -0.1315
 1115YOPC   GL115529  14.997   3.169   5.920 -0.1664 -0.1425 -0.4234
 1115YOPC   GL215530  14.711   3.214   5.985  0.1777 -0.0809  0.0450
 1115YOPC   C1A15531  15.359   3.256   6.225  0.0144  0.0514 -0.4020
 1115YOPC   D2A15532  15.452   3.486   6.562 -0.1587  0.2422 -0.0630
 1115YOPC   C3A15533  15.543   3.344   7.031  0.0133 -0.0552 -0.2098
 1115YOPC   C4A15534  15.561   3.365   7.467  0.0513 -0.0684 -0.0889
 1115YOPC   C1B15535  14.554   3.604   6.228 -0.1826  0.2742 -0.0917
 1115YOPC   C2B15536  14.373   3.530   6.609 -0.0450  0.0024 -0.0513
 1115YOPC   D3B15537  14.552   3.384   6.964 -0.3016 -0.1822 -0.1715
 1115YOPC   C4B15538  14.520   3.042   7.176 -0.4712 -0.0496 -0.0141
 1116YOPC   NC315539   2.402  12.187   5.446 -0.1079  0.1083  0.1194
 1116YOPC   PO415540   2.489  12.598   5.317 -0.2444 -0.0875  0.0519
 1116YOPC   GL115541   2.611  12.556   5.771 -0.0981 -0.1085 -0.1002
 1116YOPC   GL215542   2.989  12.646   5.847  0.0105 -0.0155  0.2573
 1116YOPC   C1A15543   2.346  12.679   6.104 -0.0000  0.2379 -0.4854
 1116YOPC   D2A15544   2.113  12.587   6.457  0.0667  0.1913  0.3096
 1116YOPC   C3A15545   1.827  12.685   6.513  0.3135 -0.1797  0.1280
 1116YOPC   C4A15546   1.347  12.738   6.599 -0.1234 -0.0107  0.2142
 1116YOPC   C1B15547   2.831  12.616   6.275  0.1470 -0.1945 -0.1232
 1116YOPC   C2B15548   2.529  12.635   6.701 -0.0864  0.0852  0.0457
 1116YOPC   D3B15549   2.543  12.936   7.052 -0.1544 -0.1582 -0.5964
 1116YOPC   C4B15550   2.665  13.358   7.122  0.1278  0.0106 -0.0646
 1117YOPC   NC315551  13.499  17.163   5.496 -0.1923 -0.0614  0.1052
 1117YOPC   PO415552  13.937  17.089   5.448  0.2229  0.2640 -0.0660
 1117YOPC   GL115553  14.282  17.343   5.644 -0.1749  0.1283  0.1624
 1117YOPC   GL215554  14.360  17.716   5.736 -0.2503  0.4534 -0.0447
 1117YOPC   C1A15555  14.277  17.416   6.133  0.1444 -0.0897 -0.2792
 1117YOPC   D2A15556  14.149  17.470   6.558  0.1260  0.0285  0.2170
 1117YOPC   C3A15557  13.903  17.820   6.940  0.1157  0.0120  0.2073
 1117YOPC   C4A15558  14.107  17.990   7.321  0.0787 -0.1758 -0.0823
 1117YOPC   C1B15559  14.359  17.912   6.100  0.0706  0.2309 -0.2299
 1117YOPC   C2B15560  14.522  17.768   6.461 -0.1176 -0.0809  0.3587
 1117YOPC   D3B15561  14.484  17.962   6.816  0.3415  0.1806 -0.1628
 1117YOPC   C4B15562  14.612  18.187   7.206 -0.3046  0.1259  0.2747
 1118YOPC   NC315563  16.184   4.863   5.413 -0.1007  0.2241  0.0549
 1118YOPC   PO415564  16.302   5.292   5.385  0.0642 -0.2497  0.0549
 1118YOPC   GL115565  16.403   5.251   5.729 -0.1571 -0.1795 -0.1854
 1118YOPC   GL215566  16.303   4.939   5.884 -0.2289  0.0728 -0.2550
 1118YOPC   C1A15567  16.364   5.546   6.060  0.2094 -0.0981 -0.4087
 1118YOPC   D2A15568  16.326   5.483   6.470  0.2366  0.1463 -0.1267
 1118YOPC   C3A15569  16.207   5.905   6.664 -0.3377  0.0683 -0.0267
 1118YOPC   C4A15570  15.862   6.051   6.646  0.0523 -0.1754  0.0585
 1118YOPC   C1B15571  16.245   4.975   6.268 -0.0110  0.2302  0.0409
 1118YOPC   C2B15572  16.471   5.010   6.562  0.2383  0.5065 -0.4819
 1118YOPC   D3B15573  16.460   4.928   6.988  0.1948 -0.0394  0.2036
 1118YOPC   C4B15574  16.436   5.125   7.308  0.2304  0.1537  0.3496
 1119YOPC   NC315575   2.621  17.586   4.996  0.0836  0.2502  0.1934
 1119YOPC   PO415576   2.741  17.717   5.407  0.0897  0.1050 -0.0192
 1119YOPC   GL115577   2.839  17.731   5.859 -0.0946  0.0268  0.0416
 1119YOPC   GL215578   3.029  17.463   5.936  0.1931 -0.2180 -0.1752
 1119YOPC   C1A15579   2.817  17.791   6.277  0.0027  0.4399 -0.0302
 1119YOPC   D2A15580   2.870  17.835   6.772  0.1072 -0.2107  0.1810
 1119YOPC   C3A15581   3.122  17.613   7.087 -0.1910  0.4680  0.1122
 1119YOPC   C4A15582   3.121  17.534   7.462  0.0405 -0.0963  0.2189
 1119YOPC   C1B15583   3.109  17.394   6.334 -0.0928 -0.1728  0.1646
 1119YOPC   C2B15584   3.201  17.529   6.585  0.0119 -0.1710 -0.0333
 1119YOPC   D3B15585   3.446  17.438   6.745  0.1449  0.2592  0.0644
 1119YOPC   C4B15586   3.869  17.399   6.702  0.1667 -0.1351  0.2771
 1120YOPC   NC315587   4.036   6.820   5.300  0.2788  0.0597 -0.1859
 1120YOPC   PO415588   4.185   6.780   5.714 -0.0904 -0.1762 -0.1667
 1120YOPC   GL115589   4.133   6.924   6.142 -0.0516 -0.0010  0.0851
 1120YOPC   GL215590   4.075   7.174   6.263 -0.0232  0.3717  0.0108
 1120YOPC   C1A15591   4.509   6.783   6.449 -0.1512 -0.3089 -0.0048
 1120YOPC   D2A15592   4.687   6.909   6.821  0.2367 -0.0675  0.1181
 1120YOPC   C3A15593   5.117   6.869   6.946  0.0153  0.0112 -0.1727
 1120YOPC   C4A15594   5.292   6.505   7.120  0.0233  0.3575  0.1116
 1120YOPC   C1B15595   4.208   7.100   6.640 -0.0390 -0.1403 -0.1368
 1120YOPC   C2B15596   4.297   7.072   7.136  0.2845 -0.3301 -0.0202
 1120YOPC   D3B15597   4.054   6.918   7.477 -0.0505 -0.1658  0.0496
 1120YOPC   C4B15598   3.926   6.687   7.844  0.1285 -0.0557  0.1141
 1121YOPC   NC315599   1.429  17.543   5.850 -0.1623  0.2088 -0.5658
 1121YOPC   PO415600   1.782  17.674   5.714 -0.2250  0.1576  0.1810
 1121YOPC   GL115601   1.837  17.976   6.062 -0.4073 -0.2344 -0.0784
 1121YOPC   GL215602   1.760  18.227   6.041  0.3328 -0.0199  0.2966
 1121YOPC   C1A15603   1.744  18.041   6.533 -0.0304 -0.0484  0.0689
 1121YOPC   D2A15604   1.869  17.849   6.842 -0.3298  0.0931  0.0158
 1121YOPC   C3A15605   1.789  17.878   7.234  0.4594 -0.0408  0.1008
 1121YOPC   C4A15606   1.605  17.997   7.657  0.1531  0.0878  0.0916
 1121YOPC   C1B15607   1.806  18.530   6.359  0.4032  0.2047 -0.1051
 1121YOPC   C2B15608   1.918  18.618   6.739 -0.0452 -0.0319 -0.3369
 1121YOPC   D3B15609   1.890  18.364   7.062  0.0167 -0.1924  0.0630
 1121YOPC   C4B15610   1.988  18.284   7.428 -0.1388 -0.2042  0.0475
 1122YOPC   NC315611  14.851  13.731   5.576  0.0833  0.0970 -0.0134
 1122YOPC   PO415612  14.419  13.962   5.626  0.3411  0.0917 -0.0033
 1122YOPC   GL115613  14.171  14.009   6.024  0.0837 -0.2060 -0.0765
 1122YOPC   GL215614  13.950  13.743   6.087  0.2154  0.1107 -0.1004
 1122YOPC   C1A15615  14.214  14.053   6.443 -0.2347 -0.2918 -0.0212
 1122YOPC   D2A15616  14.497  14.132   6.662  0.2359  0.1738  0.0603
 1122YOPC   C3A15617  14.687  13.969   7.036 -0.1792  0.0495 -0.0611
 1122YOPC   C4A15618  14.674  14.332   7.349 -0.0702  0.0323 -0.0468
 1122YOPC   C1B15619  14.078  13.550   6.493 -0.0650 -0.1073  0.3998
 1122YOPC   C2B15620  13.969  13.241   6.796  0.0043 -0.1400 -0.4249
 1122YOPC   D3B15621  13.941  13.231   7.107  0.1288  0.4020 -0.1104
 1122YOPC   C4B15622  13.735  13.115   7.477  0.0085  0.0898 -0.2426
 1123YOPC   NC315623   0.105   4.424   5.846 -0.1510 -0.1118  0.0714
 1123YOPC   PO415624   0.239   4.629   6.131 -0.1413  0.3342 -0.0849
 1123YOPC   GL115625   0.626   4.646   6.435  0.1837  0.0330 -0.2341
 1123YOPC   GL215626   0.325   4.540   6.629 -0.0468  0.2538  0.0731
 1123YOPC   C1A15627   0.871   4.502   6.664  0.0367  0.1550 -0.1948
 1123YOPC   D2A15628   1.146   4.421   7.016 -0.1252 -0.0175  0.2197
 1123YOPC   C3A15629   1.435   4.580   7.265 -0.0053  0.0114  0.3687
 1123YOPC   C4A15630   1.623   4.516   7.699 -0.3003 -0.0538  0.1138
 1123YOPC   C1B15631   0.553   4.420   7.045 -0.0480  0.0220  0.4360
 1123YOPC   C2B15632   0.447   4.619   7.478 -0.0551 -0.0786 -0.2606
 1123YOPC   D3B15633  -0.002   4.647   7.572 -0.0331  0.0625  0.0698
 1123YOPC   C4B15634  -0.468   4.639   7.534  0.0655  0.1802 -0.0143
 1124YOPC   NC315635   9.136  12.875   5.410  0.0766 -0.1926 -0.0424
 1124YOPC   PO415636   8.653  12.972   5.361  0.1065  0.0117 -0.0277
 1124YOPC   GL115637   8.405  12.985   5.719 -0.1827 -0.0347 -0.1108
 1124YOPC   GL215638   8.177  12.853   5.929 -0.2932  0.2580  0.0355
 1124YOPC   C1A15639   8.438  13.259   6.109  0.1368 -0.1670 -0.2040
 1124YOPC   D2A15640   8.491  13.534   6.408 -0.1990  0.1376  0.1839
 1124YOPC   C3A15641   8.841  13.517   6.666 -0.2115  0.1059  0.0828
 1124YOPC   C4A15642   8.912  13.827   7.079  0.1419  0.0780 -0.0013
 1124YOPC   C1B15643   8.199  12.949   6.408 -0.1896  0.1955  0.1146
 1124YOPC   C2B15644   8.196  13.226   6.712 -0.1033 -0.2160  0.0197
 1124YOPC   D3B15645   8.141  13.162   7.115  0.0142 -0.1477 -0.1175
 1124YOPC   C4B15646   8.220  13.391   7.532 -0.0907 -0.0626 -0.1694
 1125YOPC   NC315647  10.399  14.834   5.766  0.1291  0.2021 -0.0073
 1125YOPC   PO415648  10.287  14.447   5.571 -0.5458  0.0057 -0.2642
 1125YOPC   GL115649  10.621  14.197   5.878  0.2806 -0.2157  0.0843
 1125YOPC   GL215650  10.520  13.924   5.819 -0.1047 -0.1805 -0.1467
 1125YOPC   C1A15651  10.683  13.961   6.282  0.2302 -0.2383 -0.1104
 1125YOPC   D2A15652  10.678  13.892   6.663  0.0337  0.0770  0.0040
 1125YOPC   C3A15653  10.652  14.244   6.860  0.4039 -0.2737 -0.3996
 1125YOPC   C4A15654  10.556  14.365   7.291 -0.1907  0.1814 -0.0773
 1125YOPC   C1B15655  10.228  13.806   6.190  0.0026  0.1269 -0.1895
 1125YOPC   C2B15656  10.167  13.924   6.567  0.3547 -0.5561 -0.0880
 1125YOPC   D3B15657  10.118  13.840   6.986 -0.5226 -0.2510  0.3845
 1125YOPC   C4B15658  10.115  14.097   7.360  0.1286  0.1212 -0.0462
 1126YOPC   NC315659   3.321   3.237   5.295  0.0996 -0.0260  0.0532
 1126YOPC   PO415660   3.567   3.460   5.534  0.2892  0.2576 -0.1936
 1126YOPC   GL115661   3.364   3.416   5.867  0.1701  0.2078 -0.0019
 1126YOPC   GL215662   3.404   3.115   6.001 -0.0392 -0.0285  0.2784
 1126YOPC   C1A15663   3.237   3.586   6.335 -0.1247  0.0555 -0.0465
 1126YOPC   D2A15664   3.232   3.482   6.830  0.0101  0.0067 -0.1286
 1126YOPC   C3A15665   3.162   3.613   7.177 -0.0695  0.0588  0.3783
 1126YOPC   C4A15666   2.993   3.660   7.537 -0.2795  0.0725  0.1426
 1126YOPC   C1B15667   3.655   3.313   6.281 -0.5220 -0.4074 -0.1578
 1126YOPC   C2B15668   3.738   3.574   6.647  0.1374  0.1622  0.3071
 1126YOPC   D3B15669   3.675   3.466   7.086  0.2587 -0.2130  0.0499
 1126YOPC   C4B15670   3.787   3.338   7.395 -0.0241 -0.4242 -0.2074
 1127YOPC   NC315671  16.169   1.957   5.294 -0.2488  0.0592 -0.2567
 1127YOPC   PO415672  15.917   1.572   5.195  0.1641  0.2075  0.0262
 1127YOPC   GL115673  16.217   1.546   5.572 -0.0748 -0.0834 -0.0056
 1127YOPC   GL215674  16.350   1.775   5.818  0.2792 -0.1862 -0.3251
 1127YOPC   C1A15675  16.468   1.269   5.768 -0.0790  0.0147  0.3106
 1127YOPC   D2A15676  16.805   0.946   5.694 -0.1506 -0.0706 -0.1932
 1127YOPC   C3A15677  16.634   0.633   5.931 -0.2014 -0.0650 -0.3296
 1127YOPC   C4A15678  16.802   0.703   6.387  0.0063 -0.2706  0.0297
 1127YOPC   C1B15679  16.637   1.533   6.153 -0.2652 -0.3709 -0.2436
 1127YOPC   C2B15680  16.790   1.374   6.491 -0.1305  0.1197 -0.1866
 1127YOPC   D3B15681  16.744   1.339   6.954 -0.0163 -0.2789 -0.1655
 1127YOPC   C4B15682  16.496   1.193   7.323  0.2814  0.0077  0.1447
 1128YOPC   NC315683  17.781  17.559   5.298  0.1238  0.0313  0.0286
 1128YOPC   PO415684  18.172  17.781   5.448 -0.1937  0.0321  0.0549
 1128YOPC   GL115685  18.314  17.662   5.856 -0.1601 -0.2819  0.0837
 1128YOPC   GL215686  18.279  17.918   6.072 -0.1589 -0.0036  0.1678
 1128YOPC   C1A15687  18.097  17.428   6.095  0.0284  0.1658 -0.2687
 1128YOPC   D2A15688  18.146  17.402   6.561 -0.1769  0.3304 -0.0729
 1128YOPC   C3A15689  17.775  17.501   6.780 -0.1058  0.0109  0.0079
 1128YOPC   C4A15690  17.385  17.570   6.501  0.0421  0.0983  0.0006
 1128YOPC   C1B15691  18.458  17.824   6.347  0.0360  0.0486 -0.0601
 1128YOPC   C2B15692  18.330  17.850   6.705  0.0766  0.2082 -0.2052
 1128YOPC   D3B15693  18.322  17.567   7.019  0.0152 -0.0788  0.0228
 1128YOPC   C4B15694  17.950  17.391   7.255  0.0180  0.1301 -0.1300
 1129YOPC   NC315695   1.102  14.167   5.312  0.0254 -0.0440 -0.3871
 1129YOPC   PO415696   1.246  13.839   5.630  0.1581  0.0007 -0.0899
 1129YOPC   GL115697   0.965  13.814   5.885  0.2973 -0.3577  0.1976
 1129YOPC   GL215698   0.897  14.187   5.931  0.0535  0.1343  0.0530
 1129YOPC   C1A15699   0.582  13.894   6.239 -0.1321 -0.3182  0.1277
 1129YOPC   D2A15700   0.339  13.811   6.548  0.1368  0.2180 -0.0453
 1129YOPC   C3A15701   0.362  13.718   6.911  0.1102 -0.3512  0.1228
 1129YOPC   C4A15702   0.243  13.690   7.296  0.0453 -0.0813  0.0293
 1129YOPC   C1B15703   0.531  14.373   6.043  0.0674 -0.1194  0.0617
 1129YOPC   C2B15704   0.484  14.343   6.548 -0.1147 -0.0295 -0.1067
 1129YOPC   D3B15705   0.401  14.599   6.823  0.0075  0.0850 -0.3394
 1129YOPC   C4B15706   0.343  14.648   7.287 -0.0470 -0.0463  0.2375
 1130YOPC   NC315707  11.749   8.321   5.465 -0.0750 -0.0061 -0.1056
 1130YOPC   PO415708  11.497   8.088   5.759  0.1017 -0.2087 -0.3328
 1130YOPC   GL115709  11.508   8.299   6.132  0.2226  0.1278  0.2044
 1130YOPC   GL215710  11.271   8.553   6.130 -0.0904  0.2695 -0.0324
 1130YOPC   C1A15711  11.645   8.027   6.453  0.0959  0.0323 -0.1279
 1130YOPC   D2A15712  11.837   8.090   6.821 -0.2045  0.1711  0.3786
 1130YOPC   C3A15713  12.064   8.510   6.899  0.1519 -0.0507  0.0270
 1130YOPC   C4A15714  12.203   8.921   6.716  0.0886 -0.2963  0.2016
 1130YOPC   C1B15715  11.037   8.777   6.425 -0.1125 -0.2564 -0.4041
 1130YOPC   C2B15716  10.971   8.823   6.785  0.0287  0.0955  0.0667
 1130YOPC   D3B15717  11.026   9.028   7.199 -0.0267 -0.2347 -0.1768
 1130YOPC   C4B15718  11.027   9.116   7.666 -0.2818 -0.1130 -0.0944
 1131YOPC   NC315719  10.020  10.451   5.753 -0.0776  0.1506  0.0447
 1131YOPC   PO415720  10.083   9.981   5.694  0.2460 -0.3916 -0.1896
 1131YOPC   GL115721  10.116   9.828   6.033 -0.1678  0.1166  0.0125
 1131YOPC   GL215722   9.859   9.954   6.250  0.3129 -0.2010  0.1104
 1131YOPC   C1A15723  10.123   9.541   6.395  0.3792  0.5235  0.0519
 1131YOPC   D2A15724  10.012   9.466   6.775 -0.0755 -0.2248  0.0606
 1131YOPC   C3A15725  10.075   9.370   7.143  0.0455  0.1218 -0.1359
 1131YOPC   C4A15726   9.949   9.589   7.512  0.0646  0.3669  0.0271
 1131YOPC   C1B15727  10.062   9.946   6.680  0.0708  0.0249 -0.3210
 1131YOPC   C2B15728  10.031   9.928   7.048  0.0740  0.0007  0.1778
 1131YOPC   D3B15729  10.186  10.154   7.418 -0.2175 -0.2079 -0.1348
 1131YOPC   C4B15730  10.105  10.066   7.765 -0.1632  0.2196 -0.3527
 1132YOPC   NC315731   4.163   9.713   5.316 -0.3097  0.1000 -0.6305
 1132YOPC   PO415732   4.324   9.393   5.592 -0.1142  0.0666  0.0844
 1132YOPC   GL115733   4.202   9.195   5.959 -0.1064 -0.0374  0.0428
 1132YOPC   GL215734   4.233   8.910   6.047  0.0131 -0.0307  0.0197
 1132YOPC   C1A15735   3.837   9.306   6.177 -0.0994 -0.1452 -0.0496
 1132YOPC   D2A15736   3.628   9.071   6.616  0.1037 -0.0153 -0.0945
 1132YOPC   C3A15737   3.960   8.847   6.850  0.0257  0.0309 -0.2800
 1132YOPC   C4A15738   3.945   8.852   7.336  0.0816 -0.3232 -0.1416
 1132YOPC   C1B15739   3.966   8.733   6.316  0.1453 -0.2350 -0.1400
 1132YOPC   C2B15740   3.826   8.334   6.571  0.0938  0.3333  0.0458
 1132YOPC   D3B15741   3.385   8.333   6.808 -0.0262  0.0084 -0.3094
 1132YOPC   C4B15742   3.297   8.780   6.867  0.1289 -0.0029 -0.0448
 1133YOPC   NC315743  12.035   3.634   5.579 -0.0253  0.3608 -0.3391
 1133YOPC   PO415744  12.468   3.348   5.794  0.0787  0.0241 -0.0671
 1133YOPC   GL115745  12.610   3.380   6.164 -0.0097 -0.0955 -0.0936
 1133YOPC   GL215746  12.784   3.181   6.262  0.1586 -0.5217 -0.3229
 1133YOPC   C1A15747  12.427   3.590   6.541 -0.1913 -0.1302  0.1073
 1133YOPC   D2A15748  12.169   3.606   6.757  0.0818  0.0724  0.1475
 1133YOPC   C3A15749  12.196   3.735   7.132  0.1879 -0.0358  0.0618
 1133YOPC   C4A15750  12.085   3.540   7.488  0.1846  0.0184  0.1531
 1133YOPC   C1B15751  12.804   3.254   6.678 -0.0539  0.0531 -0.1566
 1133YOPC   C2B15752  12.622   3.462   7.054  0.0382 -0.1021 -0.1759
 1133YOPC   D3B15753  12.427   3.216   7.440  0.1268  0.1067  0.0524
 1133YOPC   C4B15754  12.568   3.046   7.833 -0.3704  0.0905  0.0899
 1134YOPC   NC315755   0.997   1.362   5.729  0.1159  0.0071 -0.2832
 1134YOPC   PO415756   1.302   1.288   5.938  0.2349  0.3538 -0.1372
 1134YOPC   GL115757   1.420   1.166   6.261 -0.1760 -0.0693 -0.0473
 1134YOPC   GL215758   1.433   0.830   6.253  0.1386 -0.0126  0.1204
 1134YOPC   C1A15759   1.696   1.360   6.594  0.0204  0.1184 -0.0190
 1134YOPC   D2A15760   2.046   1.382   6.725 -0.0363 -0.2811  0.1776
 1134YOPC   C3A15761   2.296   1.310   7.016  0.0901  0.2035 -0.1633
 1134YOPC   C4A15762   2.353   1.532   7.483  0.3045  0.2088 -0.1170
 1134YOPC   C1B15763   1.550   0.884   6.687  0.0828  0.1059  0.0039
 1134YOPC   C2B15764   1.298   1.055   6.979  0.1205  0.2866 -0.4826
 1134YOPC   D3B15765   0.779   0.957   7.089 -0.3523  0.1749 -0.2766
 1134YOPC   C4B15766   0.557   0.993   7.435  0.3777 -0.1875 -0.0126
 1135YOPC   NC315767   9.592   9.132   5.689 -0.0287 -0.1672 -0.1319
 1135YOPC   PO415768   9.972   9.044   5.494 -0.2128  0.0508 -0.0074
 1135YOPC   GL115769  10.119   9.139   5.900 -0.3070  0.0394 -0.1681
 1135YOPC   GL215770  10.538   9.235   5.954 -0.1451  0.0291  0.1777
 1135YOPC   C1A15771  10.092   9.031   6.301  0.2484 -0.1091 -0.3495
 1135YOPC   D2A15772   9.757   9.137   6.501 -0.1028 -0.1398 -0.0632
 1135YOPC   C3A15773   9.749   9.015   6.839  0.0784 -0.1620  0.1597
 1135YOPC   C4A15774   9.597   9.000   7.277  0.3298  0.1725  0.0668
 1135YOPC   C1B15775  10.566   9.107   6.438 -0.1492 -0.1175 -0.3088
 1135YOPC   C2B15776  10.411   9.106   6.864  0.1520 -0.0293  0.0059
 1135YOPC   D3B15777  10.516   8.786   7.146  0.1033  0.1403  0.1190
 1135YOPC   C4B15778  10.821   8.498   7.117 -0.1066 -0.0884 -0.0370
 1136YOPC   NC315779  16.572   9.463   5.853  0.3035  0.0753  0.2917
 1136YOPC   PO415780  16.762   9.076   5.608  0.1667 -0.0691 -0.3023
 1136YOPC   GL115781  16.773   8.956   6.054  0.0331 -0.2509  0.0091
 1136YOPC   GL215782  16.480   8.852   6.174 -0.2077 -0.1492 -0.0147
 1136YOPC   C1A15783  17.029   9.070   6.463 -0.1382  0.1561 -0.0047
 1136YOPC   D2A15784  16.953   9.105   6.989  0.0134  0.2822 -0.2052
 1136YOPC   C3A15785  16.642   8.867   7.098  0.2464 -0.1683 -0.2510
 1136YOPC   C4A15786  16.603   8.760   7.596  0.1693 -0.3009  0.1053
 1136YOPC   C1B15787  16.664   8.756   6.556  0.3801 -0.2433 -0.3889
 1136YOPC   C2B15788  16.899   8.549   6.827  0.2054  0.0692 -0.0504
 1136YOPC   D3B15789  16.830   8.220   7.096 -0.3181 -0.3957 -0.0273
 1136YOPC   C4B15790  17.022   8.215   7.540 -0.1435 -0.0964 -0.1754
 1137YOPC   NC315791   6.912   7.164   5.857 -0.1335  0.0189 -0.1264
 1137YOPC   PO415792   6.848   6.722   5.689  0.0101 -0.2033 -0.2212
 1137YOPC   GL115793   6.995   6.678   6.142  0.2331 -0.2202 -0.1966
 1137YOPC   GL215794   6.760   6.790   6.218 -0.0930 -0.1069 -0.1933
 1137YOPC   C1A15795   7.162   6.517   6.501 -0.2124  0.2392 -0.0196
 1137YOPC   D2A15796   7.181   6.628   6.906 -0.0195 -0.1034  0.2052
 1137YOPC   C3A15797   7.659   6.415   7.092 -0.1605  0.0048 -0.1232
 1137YOPC   C4A15798   7.811   6.504   7.439 -0.2506  0.0432 -0.1404
 1137YOPC   C1B15799   6.773   6.781   6.616 -0.1449  0.1490  0.1135
 1137YOPC   C2B15800   6.786   6.827   7.054 -0.2480 -0.2493  0.2188
 1137YOPC   D3B15801   6.526   6.722   7.383  0.1045  0.1040 -0.0677
 1137YOPC   C4B15802   6.208   6.481   7.695 -0.3728 -0.2018  0.1753
 1138YOPC   NC315803   7.092   1.223   5.340 -0.0609 -0.5239  0.1178
 1138YOPC   PO415804   7.384   1.328   5.255 -0.3212 -0.0533  0.0241
 1138YOPC   GL115805   7.434   1.322   5.647  0.0398 -0.0888  0.0846
 1138YOPC   GL215806   7.695   1.105   5.685  0.3419 -0.0156 -0.1013
 1138YOPC   C1A15807   7.314   1.514   6.054  0.0112  0.1032 -0.0265
 1138YOPC   D2A15808   7.090   1.512   6.479 -0.0779  0.0966  0.3381
 1138YOPC   C3A15809   7.266   1.663   6.814  0.4340 -0.2011  0.2577
 1138YOPC   C4A15810   7.425   1.557   7.216  0.0652  0.1760  0.2942
 1138YOPC   C1B15811   7.779   1.222   6.146  0.0241 -0.0538 -0.0237
 1138YOPC   C2B15812   7.618   1.538   6.484  0.2033  0.2677  0.0468
 1138YOPC   D3B15813   7.758   1.339   6.867  0.0521  0.2707 -0.1564
 1138YOPC   C4B15814   7.769   1.201   7.273  0.2726  0.5510 -0.0846
 1139YOPC   NC315815   8.336   7.125   5.658 -0.0631  0.0108 -0.0342
 1139YOPC   PO415816   8.192   7.592   5.830  0.0332 -0.0818  0.3679
 1139YOPC   GL115817   8.320   7.906   6.178 -0.1283  0.0528 -0.1938
 1139YOPC   GL215818   8.643   7.825   6.323 -0.0726 -0.0902  0.1093
 1139YOPC   C1A15819   8.345   8.130   6.572  0.1196  0.0634  0.2800
 1139YOPC   D2A15820   8.429   8.169   6.999 -0.2218  0.1262  0.1711
 1139YOPC   C3A15821   8.214   8.083   7.365  0.1285 -0.1754  0.2686
 1139YOPC   C4A15822   8.150   7.989   7.790  0.0593  0.0987 -0.1895
 1139YOPC   C1B15823   8.583   7.698   6.742  0.4695 -0.0177  0.1971
 1139YOPC   C2B15824   8.487   7.640   7.122 -0.3314  0.1739  0.2960
 1139YOPC   D3B15825   8.665   7.802   7.479  0.1889  0.0523  0.1637
 1139YOPC   C4B15826   8.655   8.026   7.870  0.1269 -0.1217 -0.0320
 1140YOPC   NC315827   6.169  15.512   5.589 -0.0600  0.0536  0.0621
 1140YOPC   PO415828   6.511  15.855   5.530 -0.0595  0.0832  0.1607
 1140YOPC   GL115829   6.569  15.977   5.953 -0.2214 -0.1522  0.1897
 1140YOPC   GL215830   6.250  16.068   6.089 -0.2504 -0.0851  0.2328
 1140YOPC   C1A15831   6.892  16.014   6.250 -0.1675  0.4425  0.2709
 1140YOPC   D2A15832   7.060  16.304   6.488 -0.0168  0.0187 -0.2729
 1140YOPC   C3A15833   6.730  16.641   6.585  0.1363  0.0235  0.0417
 1140YOPC   C4A15834   6.687  16.821   6.968 -0.1263 -0.2209 -0.2581
 1140YOPC   C1B15835   6.543  16.188   6.506 -0.2488 -0.1016  0.0129
 1140YOPC   C2B15836   6.778  16.154   6.858  0.0382 -0.2081 -0.2893
 1140YOPC   D3B15837   6.752  16.156   7.234  0.1197 -0.0568  0.3521
 1140YOPC   C4B15838   7.087  15.989   7.555  0.0806  0.0832 -0.2701
 1141YOPC   NC315839   4.100  17.520   5.451  0.2370 -0.2534 -0.5709
 1141YOPC   PO415840   3.709  17.685   5.391  0.2632  0.0035  0.1292
 1141YOPC   GL115841   3.799  17.847   5.785  0.1307 -0.1401  0.1472
 1141YOPC   GL215842   4.041  17.600   5.920  0.1171  0.2772  0.1425
 1141YOPC   C1A15843   3.894  18.123   6.059 -0.2603 -0.2399 -0.1077
 1141YOPC   D2A15844   3.822  18.353   6.414  0.0005 -0.5164 -0.1597
 1141YOPC   C3A15845   3.826  18.317   6.820  0.0731  0.1008  0.0681
 1141YOPC   C4A15846   3.914  18.341   7.210 -0.2626 -0.2379 -0.1837
 1141YOPC   C1B15847   4.196  17.463   6.315  0.0936  0.1475 -0.0239
 1141YOPC   C2B15848   4.530  17.253   6.472  0.5231  0.1622 -0.0244
 1141YOPC   D3B15849   4.386  17.221   6.864  0.2878  0.1557  0.0538
 1141YOPC   C4B15850   4.078  17.311   7.253  0.1927 -0.0918  0.0436
 1142YOPC   NC315851  12.842  11.584   4.959 -0.0995 -0.0290  0.2335
 1142YOPC   PO415852  13.089  11.230   5.173  0.0447 -0.1718 -0.0462
 1142YOPC   GL115853  13.177  11.411   5.473 -0.1992  0.1300  0.0727
 1142YOPC   GL215854  13.590  11.498   5.476 -0.0537 -0.0222 -0.1038
 1142YOPC   C1A15855  13.051  11.563   5.823  0.0473  0.1067 -0.2174
 1142YOPC   D2A15856  13.216  11.601   6.265  0.0917  0.0163  0.1060
 1142YOPC   C3A15857  13.023  11.640   6.626 -0.1606 -0.0392 -0.1952
 1142YOPC   C4A15858  12.647  11.657   6.752  0.0205  0.0950 -0.2560
 1142YOPC   C1B15859  13.563  11.685   5.921 -0.0945  0.5066  0.0193
 1142YOPC   C2B15860  13.536  11.998   6.292  0.0759 -0.3189 -0.1890
 1142YOPC   D3B15861  13.518  11.922   6.744  0.1343 -0.0393  0.3663
 1142YOPC   C4B15862  13.219  11.816   7.054  0.0838 -0.0807  0.1092
 1143ERGO   ROH15863   3.976   3.682   6.002  0.1335  0.0173 -0.0486
 1143ERGO    R115864   4.057   3.606   6.262  0.0565  0.2138  0.0353
 1143ERGO    R215865   4.315   3.525   6.320 -0.0323 -0.0294  0.1076
 1143ERGO    R315866   4.299   3.721   6.508  0.2091  0.2081 -0.1105
 1143ERGO    R415867   4.492   3.529   6.617 -0.1419  0.0025  0.1732
 1143ERGO    R515868   4.314   3.604   6.717 -0.0651  0.4058  0.0257
 1143ERGO    C115869   4.581   3.715   6.966  0.0211  0.2441  0.0066
 1143ERGO    C215870   4.647   3.642   7.316 -0.1108 -0.1871  0.1117
 1144ERGO   ROH15871   9.018  13.028   5.863  0.0536  0.0068  0.1591
 1144ERGO    R115872   8.863  12.931   6.079  0.0116  0.0381  0.1437
 1144ERGO    R215873   8.974  12.862   6.324 -0.0378  0.0950  0.1854
 1144ERGO    R315874   8.789  13.037   6.419 -0.0726  0.1018  0.1051
 1144ERGO    R415875   8.885  12.895   6.656 -0.0949  0.1895  0.1608
 1144ERGO    R515876   8.678  12.917   6.594 -0.0853  0.1458  0.1240
 1144ERGO    C115877   8.660  13.078   6.939 -0.1609  0.2510  0.0711
 1144ERGO    C215878   8.643  13.136   7.263  0.1852  0.0240  0.2367
 1145ERGO   ROH15879  12.268  10.931   5.736  0.3082  0.0203  0.1719
 1145ERGO    R115880  12.166  10.915   5.999  0.1881  0.0446  0.1279
 1145ERGO    R215881  12.258  10.731   6.183 -0.0206 -0.0585  0.1333
 1145ERGO    R315882  12.298  10.952   6.336  0.0789 -0.1150  0.1893
 1145ERGO    R415883  12.306  10.728   6.526 -0.1664 -0.1570  0.1536
 1145ERGO    R515884  12.181  10.905   6.540 -0.0418 -0.0657  0.1316
 1145ERGO    C115885  12.372  10.934   6.868 -0.1579 -0.2673  0.2181
 1145ERGO    C215886  12.442  10.919   7.218 -0.0877 -0.0806  0.0861
 1146ERGO   ROH15887   9.256   8.013   6.451  0.0990 -0.0957 -0.0240
 1146ERGO    R115888   9.404   8.140   6.656  0.1148  0.0723 -0.1361
 1146ERGO    R215889   9.378   8.409   6.714 -0.0901  0.0647 -0.1663
 1146ERGO    R315890   9.330   8.317   6.965  0.1440  0.0580 -0.1220
 1146ERGO    R415891   9.478   8.566   7.006 -0.1274  0.2378 -0.2463
 1146ERGO    R515892   9.528   8.371   7.088  0.1421  0.3134 -0.2303
 1146ERGO    C115893   9.490   8.571   7.411  0.0706  0.3321 -0.2512
 1146ERGO    C215894   9.235   8.764   7.636  0.0667 -0.2273  0.3408
 1147ERGO   ROH15895  15.077  15.295   6.225  0.2859  0.1796  0.0142
 1147ERGO    R115896  15.137  15.373   6.490  0.0511  0.2148  0.0587
 1147ERGO    R215897  14.944  15.466   6.665 -0.1600 -0.0526 -0.0243
 1147ERGO    R315898  15.040  15.269   6.825  0.0065  0.0393 -0.0081
 1147ERGO    R415899  14.876  15.435   7.002 -0.0786 -0.0484 -0.0071
 1147ERGO    R515900  15.084  15.377   7.034 -0.0329  0.1025 -0.0331
 1147ERGO    C115901  14.927  15.231   7.349  0.1251  0.0405  0.0181
 1147ERGO    C215902  15.006  15.028   7.691  0.0232  0.0040  0.2511
 1148ERGO   ROH15903   9.386   9.781   6.308  0.0195 -0.1852 -0.0475
 1148ERGO    R115904   9.520   9.630   6.507 -0.0700 -0.1891  0.0099
 1148ERGO    R215905   9.598   9.738   6.749  0.0053 -0.1397 -0.0375
 1148ERGO    R315906   9.456   9.531   6.851 -0.1226 -0.0091  0.0534
 1148ERGO    R415907   9.553   9.678   7.086  0.2073 -0.1209 -0.0058
 1148ERGO    R515908   9.579   9.465   7.046 -0.0335 -0.1467 -0.0465
 1148ERGO    C115909   9.393   9.448   7.379  0.2048  0.0125  0.0981
 1148ERGO    C215910   9.373   9.275   7.643  0.0019 -0.0486 -0.1023
 1149ERGO   ROH15911   2.867   1.064   5.923  0.1313 -0.2592  0.0065
 1149ERGO    R115912   2.797   1.163   6.178  0.1899 -0.0852 -0.0437
 1149ERGO    R215913   2.613   1.038   6.341  0.0539  0.1509 -0.0100
 1149ERGO    R315914   2.816   1.046   6.522  0.0409  0.0432  0.0094
 1149ERGO    R415915   2.572   1.034   6.685  0.0208  0.1407 -0.0143
 1149ERGO    R515916   2.732   1.182   6.700  0.0867  0.0665  0.0128
 1149ERGO    C115917   2.739   1.039   7.054 -0.0107  0.0336  0.0015
 1149ERGO    C215918   2.772   1.206   7.387  0.1761 -0.0260  0.1611
 1150ERGO   ROH15919   6.088  11.774   5.883 -0.0310 -0.0115  0.0001
 1150ERGO    R115920   6.222  11.774   6.132 -0.0092 -0.2219 -0.0105
 1150ERGO    R215921   6.245  12.000   6.289  0.3855 -0.2464 -0.0271
 1150ERGO    R315922   6.134  11.841   6.479  0.1286 -0.0511 -0.0068
 1150ERGO    R415923   6.229  12.076   6.626  0.4421 -0.1436 -0.0471
 1150ERGO    R515924   6.277  11.868   6.670  0.1431 -0.2069  0.0081
 1150ERGO    C115925   6.116  11.971   7.000  0.2338  0.0996 -0.0397
 1150ERGO    C215926   5.997  12.135   7.251  0.0910 -0.0842 -0.0022
 1151ERGO   ROH15927   5.631  16.891   6.399 -0.0998  0.1110  0.0273
 1151ERGO    R115928   5.555  16.757   6.636 -0.0190  0.1474  0.0731
 1151ERGO    R215929   5.703  16.549   6.743 -0.0528  0.0804 -0.0188
 1151ERGO    R315930   5.698  16.703   6.966  0.1559  0.0799 -0.0109
 1151ERGO    R415931   5.821  16.451   7.052 -0.1885 -0.1051 -0.0231
 1151ERGO    R515932   5.649  16.550   7.144 -0.0610  0.1311 -0.0198
 1151ERGO    C115933   5.885  16.539   7.443 -0.0716 -0.2135 -0.0181
 1151ERGO    C215934   5.887  16.655   7.856 -0.1810  0.1028  0.2108
 1152ERGO   ROH15935   0.282   2.026   8.116 -0.0294  0.0126 -0.0046
 1152ERGO    R115936   0.141   1.918   8.336 -0.0288  0.0028 -0.0063
 1152ERGO    R215937   0.246   1.913   8.593 -0.0545  0.0599  0.0173
 1152ERGO    R315938   0.014   2.041   8.654 -0.0917  0.0152 -0.0397
 1152ERGO    R415939   0.120   1.954   8.912 -0.0254  0.2687  0.0011
 1152ERGO    R515940  -0.079   1.915   8.834 -0.0142  0.1311  0.0722
 1152ERGO    C115941  -0.171   2.098   9.155 -0.0434  0.3484 -0.0618
 1152ERGO    C215942  -0.197   2.181   9.464  0.3515 -0.3122  0.1785
 1153ERGO   ROH15943  11.403  15.779   5.830  0.2076 -0.1530 -0.0491
 1153ERGO    R115944  11.367  15.672   6.090  0.1071 -0.1205 -0.0495
 1153ERGO    R215945  11.554  15.701   6.290  0.0256 -0.0882  0.0220
 1153ERGO    R315946  11.344  15.803   6.429 -0.0334 -0.0777 -0.0748
 1153ERGO    R415947  11.546  15.744   6.633 -0.1592 -0.1658  0.0281
 1153ERGO    R515948  11.339  15.675   6.631 -0.1739 -0.1243 -0.1058
 1153ERGO    C115949  11.343  15.864   6.963 -0.3223 -0.2010 -0.0593
 1153ERGO    C215950  11.554  15.801   7.203 -0.0997 -0.0209 -0.0703
 1154ERGO   ROH15951   8.012  15.410   6.110  0.0520  0.1173 -0.0316
 1154ERGO    R115952   8.156  15.517   6.329  0.0787  0.0638 -0.0225
 1154ERGO    R215953   8.106  15.444   6.591 -0.0251  0.1473 -0.0170
 1154ERGO    R315954   8.372  15.388   6.592 -0.0619 -0.0307  0.0469
 1154ERGO    R415955   8.293  15.376   6.873 -0.1113  0.1466  0.0401
 1154ERGO    R515956   8.454  15.494   6.789 -0.0194  0.0011  0.0112
 1154ERGO    C115957   8.651  15.283   7.039 -0.1961 -0.0208  0.1334
 1154ERGO    C215958   8.899  15.162   7.317 -0.1662 -0.1418 -0.3016
 1155ERGO   ROH15959  14.872   5.497   6.092 -0.2132  0.1184  0.1780
 1155ERGO    R115960  15.021   5.512   6.332 -0.1282  0.0747  0.1290
 1155ERGO    R215961  14.947   5.675   6.544 -0.0060  0.1034  0.1529
 1155ERGO    R315962  14.961   5.443   6.684 -0.0350  0.1001  0.1495
 1155ERGO    R415963  15.006   5.652   6.883 -0.0066  0.0868  0.1517
 1155ERGO    R515964  15.134   5.480   6.845 -0.0306  0.0727  0.1487
 1155ERGO    C115965  15.054   5.422   7.213 -0.0341  0.0741  0.1478
 1155ERGO    C215966  15.093   5.308   7.486 -0.1205  0.3505 -0.1997
 1156ERGO   ROH15967   7.470   8.726   6.326 -0.2290  0.0081 -0.0335
 1156ERGO    R115968   7.405   8.741   6.601 -0.2076 -0.0265 -0.0260
 1156ERGO    R215969   7.264   8.543   6.731 -0.1285 -0.0810 -0.0202
 1156ERGO    R315970   7.477   8.548   6.900 -0.1131 -0.0166 -0.0422
 1156ERGO    R415971   7.256   8.447   7.063 -0.0870 -0.0004  0.0038
 1156ERGO    R515972   7.385   8.616   7.110 -0.1005  0.0249 -0.0504
 1156ERGO    C115973   7.450   8.397   7.415 -0.0485  0.1070 -0.0029
 1156ERGO    C215974   7.343   8.345   7.765  0.0468  0.1691  0.0168
 1157ERGO   ROH15975   0.508  17.379   6.167 -0.2052  0.0335 -0.0652
 1157ERGO    R115976   0.543  17.259   6.421 -0.1270  0.0566 -0.0627
 1157ERGO    R215977   0.526  17.403   6.657 -0.0154  0.0912 -0.0628
 1157ERGO    R315978   0.342  17.214   6.721 -0.0243  0.1282  0.0129
 1157ERGO    R415979   0.475  17.276   6.974  0.1408  0.0145 -0.0688
 1157ERGO    R515980   0.450  17.079   6.886  0.0297  0.0549 -0.0957
 1157ERGO    C115981   0.273  17.024   7.219  0.2234  0.0043 -0.0013
 1157ERGO    C215982   0.227  16.936   7.497  0.2164  0.3244  0.3479
 1158ERGO   ROH15983   0.513   1.327   6.113  0.1336  0.2477  0.1299
 1158ERGO    R115984   0.527   1.262   6.389  0.1505  0.1088  0.0960
 1158ERGO    R215985   0.704   1.385   6.562  0.0136  0.1701  0.1845
 1158ERGO    R315986   0.478   1.436   6.704 -0.0514 -0.1085  0.1907
 1158ERGO    R415987   0.695   1.456   6.900 -0.0450  0.2014  0.1770
 1158ERGO    R515988   0.516   1.333   6.916  0.1084 -0.0391  0.2040
 1158ERGO    C115989   0.478   1.546   7.230 -0.1402 -0.0418  0.1785
 1158ERGO    C215990   0.374   1.522   7.476  0.0619  0.1795  0.2468
 1159ERGO   ROH15991   6.731   7.275   6.321  0.0690  0.1154  0.0753
 1159ERGO    R115992   6.594   7.339   6.560  0.0788  0.0796  0.0907
 1159ERGO    R215993   6.472   7.147   6.718  0.0515  0.0605  0.0471
 1159ERGO    R315994   6.626   7.256   6.913  0.0679 -0.0070  0.0718
 1159ERGO    R415995   6.397   7.139   7.055  0.0115  0.0573  0.0378
 1159ERGO    R515996   6.468   7.345   7.070  0.0796  0.0330  0.0618
 1159ERGO    C115997   6.498   7.237   7.435  0.0036 -0.0082  0.0556
 1159ERGO    C215998   6.499   7.098   7.737 -0.0995 -0.0618 -0.3303
 1160ERGO   ROH15999  10.315  10.288   6.083 -0.0819 -0.2465  0.0203
 1160ERGO    R116000  10.465  10.112   6.245 -0.0337 -0.1219  0.1131
 1160ERGO    R216001  10.734  10.151   6.298 -0.0238 -0.0632  0.0302
 1160ERGO    R316002  10.652  10.134   6.557  0.0303  0.1122  0.0594
 1160ERGO    R416003  10.938  10.192   6.573  0.0854 -0.1295 -0.0408
 1160ERGO    R516004  10.834  10.027   6.670 -0.0322  0.0001  0.0531
 1160ERGO    C116005  10.981  10.200   6.977  0.1998 -0.0034 -0.0547
 1160ERGO    C216006  11.195  10.267   7.285 -0.3095  0.1241  0.0203
 1161ERGO   ROH16007   8.082  13.410   5.756 -0.0369 -0.1022  0.0763
 1161ERGO    R116008   7.937  13.468   5.992 -0.0251 -0.0647  0.0736
 1161ERGO    R216009   7.896  13.282   6.192  0.0290 -0.0172  0.1272
 1161ERGO    R316010   8.005  13.476   6.350  0.0074  0.0465  0.0657
 1161ERGO    R416011   7.788  13.360   6.511  0.0314  0.0644  0.1092
 1161ERGO    R516012   7.817  13.571   6.464 -0.0013  0.0545  0.0448
 1161ERGO    C116013   7.827  13.586   6.845  0.0125  0.1716  0.0410
 1161ERGO    C216014   7.972  13.718   7.205 -0.0318  0.1035  0.0670
 1162ERGO   ROH16015   7.184   4.570   6.153 -0.2640 -0.0312 -0.1860
 1162ERGO    R116016   7.189   4.558   6.436 -0.1393 -0.0448 -0.1883
 1162ERGO    R216017   6.978   4.646   6.592  0.0018  0.1112 -0.0852
 1162ERGO    R316018   6.993   4.395   6.696 -0.1415  0.0951 -0.1008
 1162ERGO    R416019   6.894   4.561   6.916  0.0706  0.1670 -0.0523
 1162ERGO    R516020   7.067   4.429   6.922 -0.0227  0.0363 -0.1283
 1162ERGO    C116021   6.859   4.276   7.203 -0.0238  0.1845 -0.0478
 1162ERGO    C216022   6.790   4.095   7.516  0.1923  0.3144 -0.0453
 1163ERGO   ROH16023  15.072  12.094   5.940 -0.1775 -0.0817 -0.0550
 1163ERGO    R116024  15.119  11.926   6.163  0.1056 -0.0059 -0.0527
 1163ERGO    R216025  15.263  12.008   6.384 -0.1433  0.2929  0.0100
 1163ERGO    R316026  15.040  11.930   6.518 -0.0371 -0.1989 -0.0814
 1163ERGO    R416027  15.253  11.923   6.719 -0.1042  0.2829  0.0083
 1163ERGO    R516028  15.117  11.761   6.669  0.2733 -0.0264 -0.0426
 1163ERGO    C116029  15.038  11.800   7.040  0.0183 -0.1847 -0.0785
 1163ERGO    C216030  15.072  11.734   7.260  0.0428  0.3586 -0.1479
 1164ERGO   ROH16031   2.717   2.598   6.258  0.0168 -0.0493  0.0636
 1164ERGO    R116032   2.872   2.548   6.489  0.0318 -0.0200  0.0597
 1164ERGO    R216033   2.969   2.749   6.650  0.0223 -0.0010  0.0403
 1164ERGO    R316034   2.843   2.611   6.847  0.0439  0.0027  0.0570
 1164ERGO    R416035   3.027   2.792   6.988 -0.1276  0.1929  0.0436
 1164ERGO    R516036   3.013   2.575   7.012  0.0103  0.1925  0.1365
 1164ERGO    C116037   2.942   2.686   7.370 -0.1947  0.3092  0.0612
 1164ERGO    C216038   3.084   2.750   7.703 -0.1871  0.2462 -0.2039
 1165ERGO   ROH16039   9.651   6.072   6.092  0.1820  0.2039 -0.0363
 1165ERGO    R116040   9.601   6.016   6.365  0.1189 -0.0065 -0.0888
 1165ERGO    R216041   9.775   5.870   6.522  0.1412 -0.0242 -0.1299
 1165ERGO    R316042   9.761   6.088   6.684 -0.0234 -0.1389  0.0143
 1165ERGO    R416043   9.875   5.878   6.853  0.0936 -0.1791 -0.1115
 1165ERGO    R516044   9.700   6.000   6.897  0.0063 -0.3226 -0.0512
 1165ERGO    C116045   9.919   6.086   7.197 -0.0887 -0.3770  0.0346
 1165ERGO    C216046  10.145   6.263   7.432  0.1244 -0.0868 -0.0997
 1166ERGO   ROH16047  16.583   9.345   6.322  0.0964 -0.0487  0.0815
 1166ERGO    R116048  16.415   9.228   6.517  0.0394 -0.0146  0.0533
 1166ERGO    R216049  16.456   9.263   6.789  0.0122 -0.0391  0.0610
 1166ERGO    R316050  16.198   9.347   6.784  0.0348  0.0293  0.0301
 1166ERGO    R416051  16.263   9.321   7.069  0.0155  0.0803  0.0386
 1166ERGO    R516052  16.094   9.230   6.966 -0.0046  0.1009  0.0537
 1166ERGO    C116053  15.908   9.435   7.228  0.0388  0.2141 -0.0034
 1166ERGO    C216054  15.858   9.756   7.343 -0.0385  0.0128 -0.1773
 1167ERGO   ROH16055   1.755   3.921   6.418 -0.5390 -0.0956 -0.1986
 1167ERGO    R116056   1.746   4.056   6.667 -0.2788 -0.0134 -0.2307
 1167ERGO    R216057   1.518   4.067   6.823 -0.1675  0.1846 -0.0748
 1167ERGO    R316058   1.682   3.966   7.014 -0.1010  0.1332 -0.1585
 1167ERGO    R416059   1.453   4.072   7.162 -0.0132  0.1613 -0.0443
 1167ERGO    R516060   1.663   4.120   7.196  0.0107  0.1170 -0.1332
 1167ERGO    C116061   1.570   3.981   7.540  0.1390  0.0994 -0.1052
 1167ERGO    C216062   1.428   3.921   7.860  0.2646 -0.2208 -0.1423
 1168ERGO   ROH16063  13.606  14.115   6.037  0.2877  0.2219  0.1536
 1168ERGO    R116064  13.667  14.057   6.308  0.0177  0.2322  0.2179
 1168ERGO    R216065  13.478  14.071   6.509 -0.2813 -0.1351 -0.0310
 1168ERGO    R316066  13.558  13.816   6.558  0.0644 -0.0295 -0.0065
 1168ERGO    R416067  13.561  13.947   6.820 -0.3350 -0.0409  0.0226
 1168ERGO    R516068  13.725  13.838   6.727 -0.0903  0.2096  0.1296
 1168ERGO    C116069  13.684  13.634   7.047 -0.0418  0.1132  0.0770
 1168ERGO    C216070  13.490  13.526   7.435 -0.1588 -0.2116  0.2188
 1169ERGO   ROH16071   9.843  16.771   5.884 -0.1414 -0.0115 -0.0409
 1169ERGO    R116072   9.727  16.950   6.070 -0.1346 -0.0807  0.0307
 1169ERGO    R216073   9.685  16.884   6.335 -0.0037 -0.1330  0.0381
 1169ERGO    R316074   9.827  17.112   6.380 -0.0709 -0.0860  0.0134
 1169ERGO    R416075   9.659  17.080   6.619  0.0196 -0.1743  0.0689
 1169ERGO    R516076   9.672  17.257   6.492 -0.0880 -0.1547  0.0819
 1169ERGO    C116077   9.776  17.407   6.826 -0.0299 -0.1545  0.0636
 1169ERGO    C216078   9.901  17.532   7.084  0.1481  0.2323 -0.0296
 1170ERGO   ROH16079   7.233   0.874   5.819 -0.0605  0.0185 -0.0962
 1170ERGO    R116080   7.306   1.001   6.062 -0.1640  0.0262 -0.0681
 1170ERGO    R216081   7.158   0.974   6.294 -0.1388 -0.1558 -0.0679
 1170ERGO    R316082   7.396   0.895   6.398 -0.0659  0.0231 -0.0965
 1170ERGO    R416083   7.236   0.976   6.630 -0.0143  0.0989 -0.0967
 1170ERGO    R516084   7.436   1.048   6.578 -0.0690  0.1560 -0.2115
 1170ERGO    C116085   7.505   0.904   6.924  0.1266  0.4152 -0.1401
 1170ERGO    C216086   7.410   0.790   7.265 -0.0140  0.1816 -0.1476
 1171ERGO   ROH16087   1.935  17.443   6.163 -0.1719 -0.1062  0.0396
 1171ERGO    R116088   1.897  17.473   6.441  0.1279  0.0426  0.0677
 1171ERGO    R216089   1.760  17.288   6.594 -0.0826  0.3304  0.2363
 1171ERGO    R316090   1.988  17.289   6.742  0.0595 -0.0453  0.0355
 1171ERGO    R416091   1.792  17.150   6.910 -0.0269  0.2656  0.2030
 1171ERGO    R516092   1.913  17.322   6.967  0.3088  0.0723  0.1062
 1171ERGO    C116093   2.025  17.071   7.232  0.1388 -0.1247 -0.0048
 1171ERGO    C216094   2.206  16.838   7.426  0.1561  0.1305  0.1050
 1172ERGO   ROH16095  14.512   7.874   6.427  0.0094 -0.2766  0.1554
 1172ERGO    R116096  14.490   7.977   6.690 -0.0828 -0.2543  0.1392
 1172ERGO    R216097  14.594   8.223   6.762  0.0070 -0.3065  0.1860
 1172ERGO    R316098  14.340   8.269   6.847 -0.0174 -0.1677  0.0434
 1172ERGO    R416099  14.510   8.405   7.044 -0.0579 -0.1060  0.0393
 1172ERGO    R516100  14.355   8.258   7.086 -0.1284 -0.0285  0.0587
 1172ERGO    C116101  14.223   8.554   7.288 -0.1187  0.1410 -0.1799
 1172ERGO    C216102  14.100   8.865   7.376 -0.2617 -0.1797  0.2912
 1173ERGO   ROH16103  11.282   4.075   6.013 -0.1255 -0.0723 -0.0781
 1173ERGO    R116104  11.397   4.098   6.270 -0.0754  0.0960 -0.1157
 1173ERGO    R216105  11.258   4.195   6.487 -0.1194 -0.0221 -0.0960
 1173ERGO    R316106  11.336   3.961   6.601  0.1725  0.0799 -0.0728
 1173ERGO    R416107  11.261   4.133   6.827 -0.4916 -0.1253 -0.1063
 1173ERGO    R516108  11.450   4.027   6.801 -0.2356  0.2435  0.1225
 1173ERGO    C116109  11.335   3.876   7.132 -0.4346 -0.0896 -0.0906
 1173ERGO    C216110  11.215   3.872   7.437  0.1535 -0.3504  0.1268
 1174ERGO   ROH16111   2.662  14.789   5.657  0.0927 -0.0720 -0.0297
 1174ERGO    R116112   2.797  14.867   5.893  0.1158 -0.0296 -0.0565
 1174ERGO    R216113   2.756  15.113   6.013  0.0797 -0.0325 -0.0608
 1174ERGO    R316114   2.703  14.961   6.232  0.1522 -0.0354 -0.0452
 1174ERGO    R416115   2.766  15.226   6.340 -0.0365  0.0213 -0.0755
 1174ERGO    R516116   2.858  15.037   6.397  0.0804  0.0911 -0.0360
 1174ERGO    C116117   2.722  15.148   6.735 -0.0362  0.0498 -0.0695
 1174ERGO    C216118   2.686  15.047   7.147  0.0410  0.0862 -0.1400
 1175ERGO   ROH16119   1.373  11.781   6.258 -0.0133 -0.1819  0.1197
 1175ERGO    R116120   1.303  11.747   6.530  0.2304 -0.0069  0.2076
 1175ERGO    R216121   1.431  11.882   6.735  0.0359  0.5722 -0.0354
 1175ERGO    R316122   1.178  11.957   6.799 -0.1207  0.0465  0.0090
 1175ERGO    R416123   1.319  11.944   7.056  0.0244  0.5467 -0.0339
 1175ERGO    R516124   1.133  11.843   7.005  0.2214  0.0813  0.1102
 1175ERGO    C116125   1.016  12.051   7.303 -0.1293  0.0383  0.0085
 1175ERGO    C216126   1.048  12.157   7.649  0.3316  0.0007 -0.1039
 1176ERGO   ROH16127   5.975  10.782   5.990 -0.0028  0.0782 -0.0216
 1176ERGO    R116128   5.973  10.850   6.264  0.1013  0.0619 -0.0154
 1176ERGO    R216129   5.741  10.911   6.401  0.1718  0.2448  0.0319
 1176ERGO    R316130   5.826  10.715   6.569  0.0422  0.1607 -0.0009
 1176ERGO    R416131   5.684  10.906   6.741  0.1572  0.2162  0.0282
 1176ERGO    R516132   5.887  10.832   6.769  0.1080  0.0833  0.0223
 1176ERGO    C116133   5.730  10.719   7.098  0.0269  0.1206 -0.0048
 1176ERGO    C216134   5.458  10.837   7.404  0.1078 -0.1472 -0.1515
 1177ERGO   ROH16135  18.227  16.978   6.279  0.0061 -0.1777 -0.3563
 1177ERGO    R116136  18.272  16.790   6.486  0.1466  0.0873 -0.1406
 1177ERGO    R216137  18.266  16.518   6.443  0.0268  0.0281  0.2320
 1177ERGO    R316138  18.513  16.527   6.556  0.1384  0.1128 -0.0108
 1177ERGO    R416139  18.473  16.244   6.489  0.0648  0.0573  0.2375
 1177ERGO    R516140  18.527  16.325   6.684  0.2549  0.2056  0.1295
 1177ERGO    C116141  18.825  16.094   6.622  0.1916  0.1541  0.0128
 1177ERGO    C216142  19.004  15.799   6.478 -0.0758  0.2014  0.0510
 1178ERGO   ROH16143   3.198   5.923   6.474  0.1230 -0.0850 -0.0973
 1178ERGO    R116144   3.373   5.862   6.688  0.1145 -0.2560 -0.1385
 1178ERGO    R216145   3.304   5.903   6.952  0.2529 -0.0918 -0.1285
 1178ERGO    R316146   3.370   5.640   6.977 -0.0825 -0.1759 -0.0768
 1178ERGO    R416147   3.404   5.751   7.247  0.2580 -0.1113 -0.1398
 1178ERGO    R516148   3.552   5.639   7.132  0.0306 -0.3584 -0.2052
 1178ERGO    C116149   3.523   5.416   7.441 -0.0539 -0.2016 -0.0977
 1178ERGO    C216150   3.395   5.248   7.696 -0.0202  0.1214  0.0367
 1179ERGO   ROH16151  17.928  18.151   5.797 -0.1331 -0.0211  0.0301
 1179ERGO    R116152  17.846  18.144   6.068 -0.0731 -0.1801  0.0445
 1179ERGO    R216153  17.665  17.958   6.163 -0.0463 -0.2384 -0.0246
 1179ERGO    R316154  17.862  17.906   6.343 -0.0070 -0.3395 -0.0947
 1179ERGO    R416155  17.640  18.011   6.504  0.1430 -0.1101 -0.0282
 1179ERGO    R516156  17.845  18.084   6.502  0.2044 -0.2728 -0.1418
 1179ERGO    C116157  17.811  17.992   6.871  0.2901 -0.1303 -0.0961
 1179ERGO    C216158  17.931  17.873   7.048 -0.1059 -0.1116  0.1695
 1180ERGO   ROH16159  10.848   3.697   6.124 -0.0856 -0.1088  0.0593
 1180ERGO    R116160  10.953   3.750   6.381 -0.0078  0.1234 -0.0188
 1180ERGO    R216161  10.864   3.960   6.537 -0.2139  0.0502 -0.0385
 1180ERGO    R316162  10.825   3.764   6.721  0.1714  0.0511  0.0535
 1180ERGO    R416163  10.823   4.013   6.876 -0.3769  0.1408 -0.0714
 1180ERGO    R516164  10.947   3.838   6.914 -0.0057  0.4121  0.0373
 1180ERGO    C116165  10.762   3.860   7.246 -0.1101  0.1944 -0.0043
 1180ERGO    C216166  10.425   4.041   7.360  0.1148  0.2117  0.4282
 1181ERGO   ROH16167   9.406  16.731   5.829 -0.2417 -0.0758  0.2592
 1181ERGO    R116168   9.228  16.916   5.948 -0.1775  0.0479  0.1651
 1181ERGO    R216169   9.296  17.067   6.169 -0.1436  0.0989  0.1211
 1181ERGO    R316170   9.222  17.275   6.009 -0.0263  0.0739  0.0331
 1181ERGO    R416171   9.246  17.392   6.277 -0.1211  0.1393  0.0113
 1181ERGO    R516172   9.073  17.404   6.145 -0.0585  0.1435 -0.0691
 1181ERGO    C116173   9.148  17.775   6.190  0.0022  0.1396 -0.1354
 1181ERGO    C216174   9.100  18.116   6.389 -0.4303  0.2522  0.1375
 1182ERGO   ROH16175   7.998   3.919   5.868 -0.0081  0.0339  0.0854
 1182ERGO    R116176   7.847   3.856   6.098  0.0338 -0.0371  0.0937
 1182ERGO    R216177   7.941   3.691   6.298  0.1121 -0.0126  0.0757
 1182ERGO    R316178   7.880   3.902   6.458  0.0440 -0.0455  0.0941
 1182ERGO    R416179   7.889   3.672   6.639 -0.0496 -0.0884  0.0479
 1182ERGO    R516180   7.724   3.814   6.617 -0.0353 -0.0770  0.0013
 1182ERGO    C116181   7.801   3.859   6.988 -0.2077 -0.1634  0.0489
 1182ERGO    C216182   7.776   3.794   7.313 -0.0818 -0.0879 -0.0676
 1183ERGO   ROH16183  10.043  13.038   5.737  0.0535  0.0116  0.0759
 1183ERGO    R116184  10.032  12.911   5.990 -0.1412 -0.0764  0.0271
 1183ERGO    R216185  10.180  12.997   6.207  0.0634 -0.4265  0.0431
 1183ERGO    R316186   9.937  13.004   6.329  0.0760 -0.0267  0.0770
 1183ERGO    R416187  10.129  12.970   6.548  0.0593 -0.3088  0.0512
 1183ERGO    R516188   9.955  12.845   6.507 -0.1540 -0.0433  0.0890
 1183ERGO    C116189   9.871  12.961   6.860  0.0687  0.1352  0.0877
 1183ERGO    C216190   9.777  12.895   7.232 -0.1131  0.0852  0.0309
 1184ERGO   ROH16191  17.094  15.730   6.315  0.1234  0.3808  0.0644
 1184ERGO    R116192  17.067  15.626   6.577 -0.0148  0.3088  0.0229
 1184ERGO    R216193  17.285  15.572   6.738 -0.0929  0.1264  0.0698
 1184ERGO    R316194  17.155  15.734   6.914 -0.0492  0.1462  0.0844
 1184ERGO    R416195  17.356  15.596   7.076  0.0097  0.1921  0.0442
 1184ERGO    R516196  17.142  15.606   7.116  0.0236  0.1822  0.1106
 1184ERGO    C116197  17.276  15.762   7.437  0.1107  0.2488  0.0430
 1184ERGO    C216198  17.209  16.009   7.750  0.0377  0.1473 -0.0711
 1185ERGO   ROH16199  12.801  17.155   6.058 -0.2303 -0.1056  0.0739
 1185ERGO    R116200  12.949  17.006   6.248  0.0269  0.0410 -0.0066
 1185ERGO    R216201  13.147  17.119   6.404 -0.1858  0.3083  0.0762
 1185ERGO    R316202  13.001  17.015   6.608 -0.0187 -0.0851  0.0035
 1185ERGO    R416203  13.277  17.010   6.705 -0.0151  0.4301  0.0483
 1185ERGO    R516204  13.139  16.841   6.698  0.3209  0.1469 -0.0533
 1185ERGO    C116205  13.216  16.848   7.071  0.2411  0.1319 -0.0363
 1185ERGO    C216206  13.291  16.947   7.388 -0.1186 -0.0667 -0.1011
 1186ERGO   ROH16207   3.760  11.047   6.298  0.1157  0.2361 -0.1016
 1186ERGO    R116208   3.785  10.999   6.575  0.0433  0.0886 -0.1187
 1186ERGO    R216209   3.776  11.202   6.763  0.1178  0.0067 -0.0196
 1186ERGO    R316210   3.580  11.048   6.872  0.0167  0.0550 -0.1327
 1186ERGO    R416211   3.686  11.203   7.097  0.1563 -0.2261 -0.0070
 1186ERGO    R516212   3.665  10.987   7.087 -0.0061 -0.2011 -0.1966
 1186ERGO    C116213   3.450  11.060   7.393  0.0838 -0.3163 -0.1058
 1186ERGO    C216214   3.286  10.908   7.740 -0.0665 -0.3495  0.0450
 1187ERGO   ROH16215   0.730   2.312   6.306  0.0844  0.2015 -0.0956
 1187ERGO    R116216   0.564   2.350   6.532  0.0225 -0.0308 -0.0994
 1187ERGO    R216217   0.626   2.246   6.781  0.1591  0.0455 -0.0978
 1187ERGO    R316218   0.595   2.504   6.860 -0.1974  0.0077 -0.0959
 1187ERGO    R416219   0.628   2.352   7.109  0.1566  0.0674 -0.1051
 1187ERGO    R516220   0.465   2.489   7.061 -0.0788 -0.1817 -0.0324
 1187ERGO    C116221   0.601   2.657   7.376 -0.1796  0.0446 -0.1076
 1187ERGO    C216222   0.678   2.644   7.817  0.0822 -0.1145  0.3924
 1188ERGO   ROH16223   4.739   3.553   6.126 -0.1780  0.3129  0.0756
 1188ERGO    R116224   4.869   3.554   6.377 -0.1549  0.1686  0.0650
 1188ERGO    R216225   5.063   3.740   6.443 -0.0092  0.0115  0.0832
 1188ERGO    R316226   4.902   3.785   6.657  0.0425  0.0938  0.1053
 1188ERGO    R416227   5.175   3.794   6.765  0.0642 -0.0334  0.0657
 1188ERGO    R516228   5.010   3.670   6.838  0.0148  0.0461  0.0924
 1188ERGO    C116229   5.088   3.869   7.154  0.1556  0.0177  0.0763
 1188ERGO    C216230   5.068   3.972   7.445  0.0349  0.1046 -0.0596
 1189ERGO   ROH16231   9.431  12.060   5.834  0.1195 -0.0253 -0.1297
 1189ERGO    R116232   9.502  11.925   6.073 -0.2755 -0.1869 -0.0986
 1189ERGO    R216233   9.630  12.051   6.282  0.2279 -0.5315 -0.1922
 1189ERGO    R316234   9.421  11.954   6.426 -0.0900  0.2360 -0.0814
 1189ERGO    R416235   9.638  11.984   6.621  0.2880 -0.8235 -0.2473
 1189ERGO    R516236   9.522  11.803   6.583 -0.5453 -0.3424 -0.2922
 1189ERGO    C116237   9.447  11.854   6.954  0.0247 -0.2731 -0.1754
 1189ERGO    C216238   9.510  11.903   7.306 -0.0085  0.0949  0.1656
 1190ERGO   ROH16239  17.787   3.225   6.071  0.0407 -0.0143  0.0182
 1190ERGO    R116240  17.828   3.169   6.346 -0.2176 -0.1786  0.0273
 1190ERGO    R216241  17.905   3.363   6.527  0.1276 -0.3877  0.1122
 1190ERGO    R316242  17.685   3.278   6.662 -0.1381  0.0640 -0.0177
 1190ERGO    R416243  17.869   3.374   6.870  0.1364 -0.6888  0.1249
 1190ERGO    R516244  17.773   3.178   6.861 -0.4245 -0.4287 -0.1202
 1190ERGO    C116245  17.642   3.301   7.198 -0.1080 -0.4400  0.0104
 1190ERGO    C216246  17.636   3.548   7.439 -0.0280 -0.0091 -0.1011
 1191ERGO   ROH16247  13.222   1.822   6.339  0.2082 -0.1933  0.0258
 1191ERGO    R116248  12.962   1.911   6.405  0.1785 -0.1967 -0.0835
 1191ERGO    R216249  12.783   1.756   6.548  0.1768 -0.1375 -0.0149
 1191ERGO    R316250  12.774   1.974   6.709  0.1100 -0.0318 -0.1602
 1191ERGO    R416251  12.581   1.788   6.826  0.1857 -0.0118 -0.0226
 1191ERGO    R516252  12.543   1.995   6.770  0.1113 -0.0668 -0.1580
 1191ERGO    C116253  12.455   2.012   7.140  0.1282  0.1607 -0.1634
 1191ERGO    C216254  12.357   2.181   7.344 -0.1591  0.0849  0.1812
 1192ERGO   ROH16255   9.070   3.660   6.210 -0.0250  0.1623  0.0340
 1192ERGO    R116256   9.146   3.632   6.481 -0.0524  0.0476  0.0306
 1192ERGO    R216257   9.064   3.807   6.677  0.0747  0.0710  0.0671
 1192ERGO    R316258   8.977   3.580   6.799 -0.1012  0.1088  0.0139
 1192ERGO    R416259   8.974   3.785   7.010  0.1994  0.0253  0.0978
 1192ERGO    R516260   9.074   3.590   7.018  0.0062 -0.0787 -0.0248
 1192ERGO    C116261   8.841   3.558   7.319  0.1066  0.0342  0.0657
 1192ERGO    C216262   8.631   3.707   7.611  0.1824 -0.0554  0.0259
 1193ERGO   ROH16263  18.639   0.173   5.984 -0.0409 -0.0055 -0.0271
 1193ERGO    R116264  18.723   0.293   6.226 -0.0115 -0.0132 -0.0335
 1193ERGO    R216265  18.662   0.555   6.291  0.0058 -0.0124 -0.0232
 1193ERGO    R316266  18.562   0.441   6.517  0.0241 -0.0117 -0.0144
 1193ERGO    R416267  18.679   0.695   6.607  0.0690 -0.0309 -0.0180
 1193ERGO    R516268  18.721   0.496   6.687  0.0560 -0.0405 -0.0344
 1193ERGO    C116269  18.594   0.670   7.002  0.1229 -0.0409 -0.0067
 1193ERGO    C216270  18.484   0.770   7.222  0.1633 -0.0289  0.1022
 1194ERGO   ROH16271   5.337  15.347   6.159  0.2294 -0.0944 -0.0882
 1194ERGO    R116272   5.492  15.305   6.392  0.2494  0.1293 -0.0563
 1194ERGO    R216273   5.548  15.506   6.572 -0.0759  0.2202 -0.0382
 1194ERGO    R316274   5.441  15.332   6.752  0.1328  0.0597 -0.0689
 1194ERGO    R416275   5.588  15.527   6.915 -0.0165  0.1352 -0.0414
 1194ERGO    R516276   5.610  15.310   6.920  0.1887  0.1591 -0.1185
 1194ERGO    C116277   5.512  15.375   7.283  0.2140 -0.0649 -0.0721
 1194ERGO    C216278   5.677  15.648   7.498 -0.3884 -0.2520 -0.2473
 1195ERGO   ROH16279  18.666  10.846   6.103 -0.0258  0.1063 -0.1755
 1195ERGO    R116280  18.672  10.722   6.357 -0.0154  0.0755 -0.1909
 1195ERGO    R216281  18.733  10.860   6.589  0.0920  0.0253 -0.1904
 1195ERGO    R316282  18.495  10.758   6.673  0.0721  0.1085 -0.1450
 1195ERGO    R416283  18.675  10.725   6.902  0.0414  0.2656 -0.0934
 1195ERGO    R516284  18.555  10.569   6.808  0.0401  0.2029  0.0064
 1195ERGO    C116285  18.418  10.551   7.163 -0.0069  0.4840  0.0057
 1195ERGO    C216286  18.567  10.509   7.515 -0.5341 -0.1309 -0.1122
 1196ERGO   ROH16287   6.561  16.953   6.242 -0.1221 -0.1126 -0.0490
 1196ERGO    R116288   6.537  17.163   6.430 -0.0412 -0.0943 -0.0618
 1196ERGO    R216289   6.318  17.189   6.597  0.0074 -0.0424 -0.0219
 1196ERGO    R316290   6.508  17.192   6.792  0.0453 -0.0529 -0.0554
 1196ERGO    R416291   6.287  17.350   6.902  0.0252 -0.1049  0.0152
 1196ERGO    R516292   6.495  17.412   6.884  0.0208 -0.0651 -0.0116
 1196ERGO    C116293   6.447  17.446   7.261  0.0711 -0.1511  0.0054
 1196ERGO    C216294   6.324  17.679   7.537  0.1877 -0.2556 -0.1784
 1197ERGO   ROH16295   2.118   8.591   6.143 -0.1378  0.4398  0.0422
 1197ERGO    R116296   2.027   8.726   6.374  0.0222  0.2731  0.2043
 1197ERGO    R216297   1.851   8.612   6.554 -0.0327  0.2309  0.1149
 1197ERGO    R316298   2.044   8.675   6.734  0.0525 -0.1178  0.1537
 1197ERGO    R416299   1.807   8.614   6.896 -0.1751  0.4839  0.0983
 1197ERGO    R516300   1.928   8.795   6.906  0.2416  0.2326  0.0542
 1197ERGO    C116301   1.963   8.674   7.266 -0.1780  0.3037  0.1250
 1197ERGO    C216302   2.149   8.612   7.580 -0.1863 -0.2959 -0.0344
 1198ERGO   ROH16303   8.983  13.978   5.774 -0.3022  0.2568  0.0129
 1198ERGO    R116304   8.813  13.953   5.999 -0.1327  0.0556  0.1218
 1198ERGO    R216305   8.908  13.889   6.251  0.1030  0.1581  0.0643
 1198ERGO    R316306   8.776  14.116   6.322 -0.1143  0.0085  0.1467
 1198ERGO    R416307   8.845  13.987   6.576  0.1072  0.0429  0.0999
 1198ERGO    R516308   8.647  14.051   6.513  0.0175 -0.1566  0.1797
 1198ERGO    C116309   8.684  14.256   6.833 -0.0943 -0.1645  0.1979
 1198ERGO    C216310   8.649  14.276   7.142  0.1443  0.0481  0.0296
 1199ERGO   ROH16311   9.842   0.683   5.720 -0.1019 -0.0178  0.0881
 1199ERGO    R116312   9.847   0.646   6.001 -0.2992  0.2662  0.1326
 1199ERGO    R216313   9.650   0.747   6.168 -0.6474  0.0805 -0.1534
 1199ERGO    R316314   9.633   0.488   6.250 -0.2554  0.1214  0.0799
 1199ERGO    R416315   9.529   0.644   6.475 -0.7467  0.1668 -0.1628
 1199ERGO    R516316   9.689   0.496   6.483 -0.4782  0.4528  0.1297
 1199ERGO    C116317   9.444   0.342   6.731 -0.4364  0.2555  0.0508
 1199ERGO    C216318   9.277   0.190   7.000  0.2395  0.3770 -0.1624
 1200ERGO   ROH16319   3.898   0.978   5.738  0.2212 -0.0767  0.0409
 1200ERGO    R116320   3.958   1.043   6.007  0.1637  0.0320  0.0275
 1200ERGO    R216321   3.823   1.240   6.146  0.1298  0.0825 -0.0797
 1200ERGO    R316322   3.781   1.040   6.325  0.0990  0.1535 -0.0063
 1200ERGO    R416323   3.729   1.286   6.475  0.0280  0.2147 -0.1260
 1200ERGO    R516324   3.866   1.126   6.531  0.0300  0.2520 -0.0171
 1200ERGO    C116325   3.635   1.126   6.835 -0.0602  0.3583 -0.0841
 1200ERGO    C216326   3.420   1.213   7.187 -0.0276 -0.0686  0.0461
 1201ERGO   ROH16327  15.806   6.743   5.945 -0.1154 -0.0326 -0.0453
 1201ERGO    R116328  15.796   6.738   6.228  0.0329 -0.0007 -0.0385
 1201ERGO    R216329  15.562   6.691   6.367  0.0596  0.2359  0.0917
 1201ERGO    R316330  15.710   6.496   6.485 -0.0638  0.1000  0.0249
 1201ERGO    R416331  15.551   6.610   6.703 -0.0349  0.0849  0.0531
 1201ERGO    R516332  15.767   6.586   6.700 -0.0473 -0.0308  0.0760
 1201ERGO    C116333  15.683   6.380   7.010 -0.2058 -0.1306 -0.0321
 1201ERGO    C216334  15.560   6.149   7.340  0.2295 -0.1452  0.0566
 1202ERGO   ROH16335  17.857   1.152   6.209 -0.0705 -0.0991  0.0430
 1202ERGO    R116336  17.783   1.193   6.479  0.0059 -0.0415  0.0569
 1202ERGO    R216337  17.694   0.989   6.642 -0.1154  0.0200  0.0799
 1202ERGO    R316338  17.894   1.074   6.804 -0.0199 -0.1199  0.0351
 1202ERGO    R416339  17.710   0.932   6.982 -0.0366 -0.0399  0.0652
 1202ERGO    R516340  17.784   1.135   7.008  0.0833 -0.0913  0.0768
 1202ERGO    C116341  17.908   0.979   7.333  0.0988 -0.2060  0.0145
 1202ERGO    C216342  17.913   0.767   7.553 -0.2179  0.1352  0.0774
 1203ERGO   ROH16343   4.897  11.375   6.180 -0.0419 -0.1473  0.0668
 1203ERGO    R116344   4.773  11.300   6.424  0.0064 -0.1390  0.0944
 1203ERGO    R216345   4.903  11.154   6.619  0.0996  0.0054  0.1450
 1203ERGO    R316346   4.829  11.361   6.778 -0.0231  0.0179  0.0724
 1203ERGO    R416347   4.762  11.121   6.932 -0.2439  0.0346 -0.0021
 1203ERGO    R516348   4.627  11.286   6.884 -0.1540  0.0649 -0.1413
 1203ERGO    C116349   4.610  11.296   7.265 -0.5590  0.0633 -0.1560
 1203ERGO    C216350   4.729  11.214   7.467  0.3939  0.0376  0.1511
 1204ERGO   ROH16351  14.093   7.193   5.640  0.3399 -0.4383  0.1441
 1204ERGO    R116352  13.916   7.294   5.836  0.3748 -0.1837  0.0471
 1204ERGO    R216353  13.776   7.129   6.009  0.0003  0.0128 -0.0722
 1204ERGO    R316354  13.891   7.285   6.199  0.1263 -0.2030  0.0345
 1204ERGO    R416355  13.707   7.110   6.347 -0.2294 -0.0017 -0.1171
 1204ERGO    R516356  13.714   7.328   6.356  0.0823  0.0032 -0.0544
 1204ERGO    C116357  13.775   7.244   6.723 -0.2448 -0.2129 -0.0430
 1204ERGO    C216358  14.001   7.217   7.031 -0.0151  0.3331 -0.2283
 1205ERGO   ROH16359  17.189   0.662   5.881  0.2176  0.0865 -0.0272
 1205ERGO    R116360  17.125   0.463   6.071  0.0792 -0.0027 -0.1710
 1205ERGO    R216361  17.314   0.296   6.182  0.0158  0.0685  0.0021
 1205ERGO    R316362  17.213   0.388   6.416 -0.3186 -0.0775 -0.0749
 1205ERGO    R416363  17.362   0.146   6.489  0.3839  0.3387  0.0865
 1205ERGO    R516364  17.154   0.189   6.537  0.2106 -0.2188  0.0058
 1205ERGO    C116365  17.295   0.145   6.889  0.2841  0.3590  0.0633
 1205ERGO    C216366  17.313   0.010   7.259 -0.1569  0.1278  0.1299
 1206ERGO   ROH16367  18.236  18.393   6.199  0.0841 -0.0079  0.0033
 1206ERGO    R116368  18.287  18.304   6.463  0.2729  0.2297  0.0514
 1206ERGO    R216369  18.330  18.478   6.674 -0.1865  0.4427 -0.0154
 1206ERGO    R316370  18.128  18.337   6.788  0.1335 -0.0186  0.0103
 1206ERGO    R416371  18.264  18.468   7.013 -0.1579  0.3263 -0.0127
 1206ERGO    R516372  18.221  18.255   6.993  0.3321  0.2171  0.0159
 1206ERGO    C116373  18.035  18.330   7.318  0.1594 -0.1744  0.0129
 1206ERGO    C216374  17.777  18.351   7.602  0.1331  0.1000  0.0996
 1207ERGO   ROH16375   4.518  17.590   5.876 -0.0115  0.0914  0.1770
 1207ERGO    R116376   4.586  17.803   6.050  0.0775  0.0946  0.1400
 1207ERGO    R216377   4.405  17.997   6.126  0.1701  0.2165  0.0658
 1207ERGO    R316378   4.479  17.922   6.377  0.0858  0.2278  0.0936
 1207ERGO    R416379   4.339  18.176   6.414  0.0701  0.2211  0.0401
 1207ERGO    R516380   4.539  18.126   6.485  0.0438  0.2291  0.1092
 1207ERGO    C116381   4.371  18.210   6.817 -0.0672  0.2343  0.0512
 1207ERGO    C216382   4.439  18.182   7.171  0.2252  0.0843 -0.2416
 1208ERGO   ROH16383  17.743   5.815   6.128  0.0883 -0.1427  0.1385
 1208ERGO    R116384  17.771   5.851   6.407 -0.0159 -0.0143  0.1329
 1208ERGO    R216385  17.585   5.989   6.559 -0.0871  0.0307  0.0046
 1208ERGO    R316386  17.583   5.760   6.705 -0.1110  0.0956  0.1075
 1208ERGO    R416387  17.537   5.973   6.901  0.1369  0.2071  0.0465
 1208ERGO    R516388  17.691   5.819   6.910  0.0615  0.1287  0.0087
 1208ERGO    C116389  17.508   5.749   7.237  0.2450  0.3708  0.1674
 1208ERGO    C216390  17.540   5.552   7.546 -0.1475 -0.0856 -0.2956
 1209ERGO   ROH16391  11.131   1.675   5.862  0.3020 -0.2950  0.1455
 1209ERGO    R116392  11.014   1.716   6.116  0.2711 -0.1096  0.1024
 1209ERGO    R216393  10.811   1.555   6.213  0.1491  0.0624  0.1271
 1209ERGO    R316394  10.979   1.526   6.424  0.0811  0.0465  0.1803
 1209ERGO    R416395  10.718   1.436   6.524  0.0742 -0.1049  0.0428
 1209ERGO    R516396  10.847   1.587   6.615 -0.0215 -0.0852  0.1557
 1209ERGO    C116397  10.822   1.339   6.904 -0.0329 -0.2173  0.0437
 1209ERGO    C216398  10.776   1.135   7.224  0.2947 -0.2058  0.4582
 1210ERGO   ROH16399   7.928  10.977   6.159  0.0928  0.3453 -0.3322
 1210ERGO    R116400   8.134  10.921   6.345  0.0846  0.1453 -0.3814
 1210ERGO    R216401   8.269  11.119   6.481  0.1709  0.0059 -0.2623
 1210ERGO    R316402   8.192  10.977   6.699  0.1321 -0.1057 -0.3473
 1210ERGO    R416403   8.421  11.136   6.791 -0.0839  0.0962 -0.1392
 1210ERGO    R516404   8.398  10.920   6.808  0.1044  0.0682 -0.1979
 1210ERGO    C116405   8.437  11.013   7.176 -0.2688  0.0439 -0.1473
 1210ERGO    C216406   8.634  11.123   7.485 -0.1749  0.0913  0.0962
 1211ERGO   ROH16407  16.095  12.016   6.168 -0.1491 -0.0437 -0.0054
 1211ERGO    R116408  16.164  11.909   6.421 -0.0420 -0.0198 -0.0243
 1211ERGO    R216409  16.086  11.656   6.502 -0.1033  0.0320  0.0762
 1211ERGO    R316410  16.353  11.622   6.544 -0.0910 -0.0760 -0.0777
 1211ERGO    R416411  16.223  11.447   6.740 -0.0499 -0.1176 -0.0835
 1211ERGO    R516412  16.373  11.600   6.782  0.0246 -0.1841 -0.0953
 1211ERGO    C116413  16.553  11.294   6.919 -0.0076 -0.3063 -0.3209
 1211ERGO    C216414  16.761  10.967   7.002 -0.2440  0.0679  0.2333
 1212ERGO   ROH16415   7.023  12.534   5.820  0.0668 -0.0109  0.0077
 1212ERGO    R116416   7.138  12.669   6.041  0.1271 -0.0494  0.0000
 1212ERGO    R216417   6.988  12.812   6.223  0.1981  0.1048 -0.0590
 1212ERGO    R316418   7.114  12.652   6.403  0.0441  0.0464 -0.0010
 1212ERGO    R416419   7.074  12.906   6.545  0.2748  0.1307 -0.0868
 1212ERGO    R516420   7.263  12.800   6.520  0.1777 -0.0529 -0.0450
 1212ERGO    C116421   7.243  12.811   6.901  0.1750  0.0909 -0.0485
 1212ERGO    C216422   7.098  13.041   7.192  0.3077 -0.1446 -0.2205
 1213ERGO   ROH16423   4.526   9.196   6.375 -0.0846  0.1153 -0.0815
 1213ERGO    R116424   4.304   9.170   6.549 -0.0002 -0.0255  0.0098
 1213ERGO    R216425   4.330   9.164   6.824  0.1106  0.0457  0.0102
 1213ERGO    R316426   4.151   9.368   6.813 -0.0467 -0.0918  0.0294
 1213ERGO    R416427   4.152   9.287   7.093  0.0718 -0.0512  0.0272
 1213ERGO    R516428   3.978   9.304   6.965  0.0355 -0.1972  0.0700
 1213ERGO    C116429   3.880   9.550   7.239 -0.0984 -0.2366  0.0551
 1213ERGO    C216430   3.616   9.832   7.206  0.0665 -0.1698 -0.0580
 1214ERGO   ROH16431   8.885  11.138   6.126  0.0202  0.1122  0.0048
 1214ERGO    R116432   8.837  11.024   6.380  0.0130  0.0990 -0.0021
 1214ERGO    R216433   8.626  10.852   6.429  0.0064  0.1006 -0.0146
 1214ERGO    R316434   8.823  10.688   6.521  0.0019  0.0914 -0.0224
 1214ERGO    R416435   8.574  10.563   6.612  0.0076  0.1740  0.1020
 1214ERGO    R516436   8.745  10.617   6.736  0.0581  0.1810  0.0272
 1214ERGO    C116437   8.729  10.242   6.805  0.0042  0.2081  0.1625
 1214ERGO    C216438   8.640   9.944   6.920 -0.1030 -0.1645 -0.1173
 1215ERGO   ROH16439  18.680   6.725   5.971  0.2687  0.1025 -0.0482
 1215ERGO    R116440  18.721   6.776   6.246  0.1233 -0.0691  0.0067
 1215ERGO    R216441  18.680   7.025   6.359  0.2054 -0.1053  0.1104
 1215ERGO    R316442  18.518   6.887   6.528  0.0105 -0.0941 -0.0626
 1215ERGO    R416443  18.659   7.079   6.699  0.2761 -0.4782  0.1783
 1215ERGO    R516444  18.648   6.863   6.728 -0.0182 -0.5092 -0.0813
 1215ERGO    C116445  18.495   6.980   7.056  0.1344 -0.6848  0.0554
 1215ERGO    C216446  18.455   6.966   7.395 -0.0239 -0.3444 -0.2008
 1216ERGO   ROH16447  12.267   8.872   5.966 -0.1038 -0.0285 -0.0343
 1216ERGO    R116448  12.136   8.866   6.216 -0.0051 -0.0847  0.0174
 1216ERGO    R216449  11.864   8.905   6.242 -0.0001 -0.1064  0.1329
 1216ERGO    R316450  11.874   8.667   6.373  0.0690 -0.1314  0.0811
 1216ERGO    R416451  11.606   8.772   6.431  0.0385 -0.2267  0.1006
 1216ERGO    R516452  11.755   8.706   6.577  0.0547 -0.2137  0.0872
 1216ERGO    C116453  11.467   8.472   6.664  0.1257 -0.3204  0.0333
 1216ERGO    C216454  11.155   8.295   6.677 -0.0596  0.2116  0.3631
 1217ERGO   ROH16455  16.567   4.538   6.119 -0.0823  0.0418  0.3330
 1217ERGO    R116456  16.581   4.276   6.225 -0.1453  0.0326  0.3178
 1217ERGO    R216457  16.812   4.172   6.336 -0.0981 -0.1157  0.0881
 1217ERGO    R316458  16.649   4.125   6.549  0.0806 -0.0106  0.2512
 1217ERGO    R416459  16.874   3.940   6.585  0.0508 -0.0742  0.0907
 1217ERGO    R516460  16.663   3.888   6.583  0.0318 -0.0055  0.2983
 1217ERGO    C116461  16.759   3.762   6.929  0.3054  0.0486  0.2453
 1217ERGO    C216462  16.761   3.821   7.251  0.1557  0.1307  0.0854
 1218ERGO   ROH16463   2.017   1.832   6.162 -0.1227 -0.1656  0.0174
 1218ERGO    R116464   1.876   1.932   6.386 -0.2964 -0.1127 -0.1150
 1218ERGO    R216465   1.985   2.116   6.561 -0.3187 -0.2992  0.0917
 1218ERGO    R316466   1.760   2.257   6.502 -0.1064 -0.0388 -0.1250
 1218ERGO    R416467   1.840   2.352   6.767 -0.4066 -0.3551  0.0955
 1218ERGO    R516468   1.644   2.274   6.711 -0.4043 -0.1290 -0.2730
 1218ERGO    C116469   1.545   2.622   6.832 -0.2586 -0.1432 -0.1056
 1218ERGO    C216470   1.513   2.674   7.189 -0.0093  0.0439  0.1795
 1219ERGO   ROH16471   4.240  14.842   5.864 -0.0039 -0.1450 -0.1310
 1219ERGO    R116472   4.223  14.753   6.132 -0.0353 -0.0452 -0.0995
 1219ERGO    R216473   4.241  14.486   6.201 -0.1007 -0.0229 -0.0033
 1219ERGO    R316474   4.439  14.575   6.365 -0.0869 -0.0131 -0.0253
 1219ERGO    R416475   4.297  14.372   6.523 -0.1321  0.0504  0.0281
 1219ERGO    R516476   4.339  14.578   6.583 -0.0951  0.0632 -0.0269
 1219ERGO    C116477   4.516  14.389   6.863 -0.1373  0.1022  0.0258
 1219ERGO    C216478   4.532  14.457   7.255  0.0183  0.1164  0.1199
 1220ERGO   ROH16479   9.988   3.450   6.136 -0.0643  0.1420  0.0755
 1220ERGO    R116480   9.897   3.557   6.382 -0.0396  0.0800  0.1111
 1220ERGO    R216481   9.640   3.521   6.474 -0.0179  0.0269  0.1437
 1220ERGO    R316482   9.766   3.426   6.696  0.0279  0.0006  0.1072
 1220ERGO    R416483   9.521   3.553   6.797  0.0901  0.0716  0.1798
 1220ERGO    R516484   9.726   3.593   6.863  0.1242  0.0199  0.1142
 1220ERGO    C116485   9.571   3.482   7.193  0.1958  0.0729  0.1665
 1220ERGO    C216486   9.508   3.449   7.506 -0.0265 -0.1809  0.1368
 1221ERGO   ROH16487  12.815  16.066   5.965 -0.1468  0.0611  0.0062
 1221ERGO    R116488  12.662  16.153   6.187 -0.0809  0.0652  0.0502
 1221ERGO    R216489  12.487  15.987   6.321 -0.1282  0.1002  0.0307
 1221ERGO    R316490  12.631  16.064   6.538 -0.0668 -0.0138  0.0316
 1221ERGO    R416491  12.402  15.916   6.648 -0.1154  0.0572  0.0252
 1221ERGO    R516492  12.465  16.118   6.703 -0.0223  0.0176  0.0664
 1221ERGO    C116493  12.487  15.947   7.043 -0.0502 -0.0746  0.0229
 1221ERGO    C216494  12.365  15.868   7.388 -0.3775  0.1279  0.1703
 1222ERGO   ROH16495   1.826   0.482   5.949 -0.0483 -0.2590  0.0056
 1222ERGO    R116496   1.833   0.556   6.222 -0.2247 -0.0878 -0.0339
 1222ERGO    R216497   1.670   0.440   6.412 -0.0319 -0.3014  0.0089
 1222ERGO    R316498   1.905   0.392   6.539  0.0555  0.2219  0.0683
 1222ERGO    R416499   1.699   0.338   6.741  0.1073 -0.3916 -0.0307
 1222ERGO    R516500   1.870   0.472   6.762 -0.2262  0.0308  0.0953
 1222ERGO    C116501   1.937   0.233   7.051  0.2704  0.0472  0.0020
 1222ERGO    C216502   1.893   0.117   7.270  0.1013  0.0257  0.0715
 1223ERGO   ROH16503   5.576   9.062   6.158  0.0193  0.1003  0.0287
 1223ERGO    R116504   5.555   8.999   6.433 -0.1392  0.1453  0.0288
 1223ERGO    R216505   5.766   9.029   6.609 -0.1031 -0.2325  0.0636
 1223ERGO    R316506   5.587   9.178   6.749  0.1399  0.1054  0.0238
 1223ERGO    R416507   5.798   9.115   6.942 -0.1487 -0.5249  0.1462
 1223ERGO    R516508   5.585   9.080   6.967 -0.2595 -0.0366 -0.0409
 1223ERGO    C116509   5.649   9.306   7.267  0.0529 -0.3778  0.1570
 1223ERGO    C216510   5.565   9.451   7.620 -0.0861 -0.0416  0.0169
 1224ERGO   ROH16511   7.621  10.487   5.970 -0.2285  0.0528 -0.0432
 1224ERGO    R116512   7.683  10.567   6.235 -0.3596 -0.1690  0.0559
 1224ERGO    R216513   7.705  10.386   6.443  0.0023 -0.4073 -0.1804
 1224ERGO    R316514   7.949  10.502   6.475 -0.2076  0.0258 -0.0555
 1224ERGO    R416515   7.881  10.399   6.740 -0.0721 -0.2995 -0.1392
 1224ERGO    R516516   7.940  10.603   6.691 -0.4369 -0.1454  0.0201
 1224ERGO    C116517   8.212  10.515   6.943 -0.3126  0.1698  0.0020
 1224ERGO    C216518   8.472  10.470   7.139  0.3017 -0.1857  0.3034
 1225ERGO   ROH16519  10.192   1.827   5.703  0.0686  0.2772 -0.0925
 1225ERGO    R116520  10.145   1.851   5.981  0.0175  0.1227 -0.0871
 1225ERGO    R216521   9.897   1.918   6.085 -0.0107  0.0239 -0.0935
 1225ERGO    R316522   9.932   1.689   6.228  0.0047 -0.0449 -0.2057
 1225ERGO    R416523   9.777   1.864   6.405  0.0304 -0.1213 -0.1017
 1225ERGO    R516524   9.964   1.764   6.453  0.0369 -0.1489 -0.1739
 1225ERGO    C116525   9.739   1.618   6.725  0.0686 -0.2703 -0.2119
 1225ERGO    C216526   9.743   1.486   7.001  0.1398 -0.1919  0.2558
 1226ERGO   ROH16527   5.339   5.940   6.139 -0.0445 -0.1731  0.0151
 1226ERGO    R116528   5.158   5.928   6.356 -0.1486 -0.1478 -0.0695
 1226ERGO    R216529   4.902   5.829   6.331 -0.0407 -0.4170 -0.1187
 1226ERGO    R316530   4.978   5.668   6.537  0.0051 -0.1593  0.0712
 1226ERGO    R416531   4.688   5.697   6.569 -0.0473 -0.3947 -0.1120
 1226ERGO    R516532   4.840   5.737   6.720 -0.1581 -0.1131 -0.0630
 1226ERGO    C116533   4.636   5.470   6.901 -0.0082 -0.1399  0.0702
 1226ERGO    C216534   4.470   5.148   6.888  0.2128 -0.2842 -0.1473
 1227ERGO   ROH16535   5.739  18.217   6.076  0.2575 -0.0516  0.0103
 1227ERGO    R116536   5.883  18.286   6.310  0.0148  0.1121  0.1165
 1227ERGO    R216537   5.759  18.370   6.542 -0.2614 -0.1620  0.0781
 1227ERGO    R316538   5.901  18.167   6.653  0.0087  0.0287  0.0872
 1227ERGO    R416539   5.792  18.315   6.882 -0.3932 -0.2489  0.0774
 1227ERGO    R516540   6.001  18.264   6.848 -0.2825  0.1171  0.1946
 1227ERGO    C116541   5.946  18.092   7.184 -0.2163 -0.1205  0.0855
 1227ERGO    C216542   5.973  17.919   7.369  0.0740 -0.0780 -0.2351
 1228ERGO   ROH16543  13.646   1.958   6.204 -0.0341  0.0240  0.0506
 1228ERGO    R116544  13.732   1.841   6.448 -0.0156  0.0564  0.0592
 1228ERGO    R216545  13.877   1.981   6.637  0.0577  0.0615 -0.0019
 1228ERGO    R316546  13.678   1.901   6.803  0.0699  0.1493  0.0569
 1228ERGO    R416547  13.893   1.986   6.982  0.0622  0.2947 -0.0029
 1228ERGO    R516548  13.790   1.794   6.984  0.0849  0.2837  0.1281
 1228ERGO    C116549  13.714   1.913   7.339  0.0762  0.5128  0.0517
 1228ERGO    C216550  13.650   2.060   7.675 -0.0766 -0.1346  0.1674
 1229ERGO   ROH16551  14.966  16.478   6.321 -0.0338 -0.0793  0.1466
 1229ERGO    R116552  14.965  16.318   6.554  0.1401 -0.1091  0.1275
 1229ERGO    R216553  15.171  16.323   6.738  0.0995  0.1567  0.1686
 1229ERGO    R316554  14.971  16.375   6.914 -0.0127 -0.1414  0.1358
 1229ERGO    R416555  15.196  16.287   7.081  0.1641  0.3769  0.1888
 1229ERGO    R516556  14.993  16.205   7.081  0.3153 -0.0195  0.2233
 1229ERGO    C116557  15.021  16.316   7.445  0.0965  0.2253  0.1697
 1229ERGO    C216558  14.980  16.248   7.730 -0.0434  0.2956  0.0883
 1230ERGO   ROH16559  10.675   1.124   6.184  0.0203  0.0824 -0.1817
 1230ERGO    R116560  10.613   0.934   6.385 -0.0422  0.1472 -0.1397
 1230ERGO    R216561  10.711   0.953   6.643  0.0750  0.0984 -0.1821
 1230ERGO    R316562  10.448   0.937   6.709  0.0880  0.3005 -0.0724
 1230ERGO    R416563  10.590   0.824   6.940  0.0956 -0.0554 -0.2390
 1230ERGO    R516564  10.429   0.729   6.828 -0.0574  0.2053 -0.2534
 1230ERGO    C116565  10.273   0.735   7.176  0.1199  0.0447 -0.1693
 1230ERGO    C216566  10.144   0.748   7.543 -0.0415 -0.0446 -0.2910
 1231ERGO   ROH16567  12.071   5.996   6.158  0.0139  0.0959 -0.0420
 1231ERGO    R116568  12.031   6.055   6.432  0.0559  0.0310 -0.0223
 1231ERGO    R216569  12.236   6.047   6.617  0.1089  0.1154 -0.0820
 1231ERGO    R316570  12.154   6.301   6.670 -0.0166  0.0624 -0.0153
 1231ERGO    R416571  12.316   6.225   6.903  0.1980  0.1464 -0.1254
 1231ERGO    R516572  12.111   6.302   6.906  0.1455  0.0187  0.0183
 1231ERGO    C116573  12.285   6.566   7.119  0.1320  0.1146 -0.0881
 1231ERGO    C216574  12.320   6.867   7.278  0.0889  0.0075 -0.2245
 1232ERGO   ROH16575   1.019   6.731   6.260  0.1128  0.0649  0.0345
 1232ERGO    R116576   0.900   6.930   6.422  0.0316  0.0177  0.0314
 1232ERGO    R216577   0.941   6.944   6.695  0.0369  0.0453  0.0242
 1232ERGO    R316578   1.015   7.200   6.638 -0.0811  0.0799  0.0172
 1232ERGO    R416579   0.968   7.199   6.927  0.4040 -0.0667  0.1116
 1232ERGO    R516580   0.880   7.335   6.782  0.1407 -0.0011  0.3183
 1232ERGO    C116581   1.054   7.586   7.009  0.5068 -0.0994  0.1558
 1232ERGO    C216582   1.164   7.877   7.139 -0.1378 -0.1697 -0.2549
 1233ERGO   ROH16583  17.094   1.742   6.204  0.0874  0.1877  0.1089
 1233ERGO    R116584  17.169   1.757   6.477  0.0711  0.1048  0.1182
 1233ERGO    R216585  17.057   1.940   6.652  0.1125  0.0998  0.1496
 1233ERGO    R316586  17.004   1.717   6.799  0.0343  0.0829  0.0966
 1233ERGO    R416587  16.992   1.938   6.991 -0.1596  0.0708  0.0999
 1233ERGO    R516588  17.112   1.757   7.008 -0.1404  0.0917  0.1870
 1233ERGO    C116589  16.905   1.727   7.327 -0.3918  0.0380  0.0211
 1233ERGO    C216590  16.585   1.663   7.568 -0.0102  0.0706  0.0606
 1234ERGO   ROH16591   6.016   7.394   5.991 -0.3053  0.2493  0.1873
 1234ERGO    R116592   6.001   7.345   6.270 -0.3475  0.1734  0.1719
 1234ERGO    R216593   6.189   7.442   6.449 -0.1749 -0.1763  0.1850
 1234ERGO    R316594   5.971   7.546   6.572 -0.0046  0.1184  0.2482
 1234ERGO    R416595   6.145   7.460   6.791 -0.0998 -0.2381  0.1982
 1234ERGO    R516596   5.937   7.405   6.762 -0.1970  0.0926  0.1998
 1234ERGO    C116597   5.915   7.569   7.106  0.1040  0.0026  0.2652
 1234ERGO    C216598   5.811   7.471   7.359  0.1021 -0.0441  0.2370
 1235ERGO   ROH16599   3.399  16.668   6.177 -0.0073  0.0535  0.3147
 1235ERGO    R116600   3.554  16.904   6.148  0.1587 -0.0407  0.4089
 1235ERGO    R216601   3.444  17.145   6.070  0.4070 -0.0408  0.0175
 1235ERGO    R316602   3.561  17.235   6.298  0.0354  0.0715  0.1686
 1235ERGO    R416603   3.584  17.458   6.110  0.4001 -0.0457  0.0746
 1235ERGO    R516604   3.746  17.366   6.223  0.1924 -0.0099  0.4086
 1235ERGO    C116605   3.775  17.726   6.347  0.0472  0.0572  0.2498
 1235ERGO    C216606   3.975  17.892   6.535  0.0960  0.1745 -0.0148
 1236ERGO   ROH16607  15.694  17.236   6.061  0.3016 -0.0178 -0.0060
 1236ERGO    R116608  15.790  17.230   6.327  0.1656  0.0651  0.0463
 1236ERGO    R216609  15.623  17.198   6.544  0.0516  0.1463 -0.0267
 1236ERGO    R316610  15.791  16.992   6.602  0.0123  0.1559  0.1258
 1236ERGO    R416611  15.714  17.101   6.864 -0.1683  0.1986  0.0533
 1236ERGO    R516612  15.917  17.069   6.791 -0.1181  0.1858  0.2006
 1236ERGO    C116613  15.924  16.851   7.104 -0.3333  0.2380  0.2431
 1236ERGO    C216614  15.907  16.797   7.432 -0.1823 -0.2261  0.0124
 1237ERGO   ROH16615  15.295  10.290   5.786 -0.1131 -0.2849  0.0100
 1237ERGO    R116616  15.265  10.456   6.014  0.0319 -0.2117 -0.0236
 1237ERGO    R216617  15.041  10.448   6.175  0.0629 -0.0411  0.0246
 1237ERGO    R316618  15.224  10.407   6.372  0.0792 -0.0982 -0.0014
 1237ERGO    R416619  14.970  10.452   6.514  0.0848 -0.1213  0.0307
 1237ERGO    R516620  15.158  10.559   6.546  0.0958 -0.1350  0.0415
 1237ERGO    C116621  15.101  10.417   6.896  0.1128 -0.2215  0.0098
 1237ERGO    C216622  15.289  10.398   7.213 -0.1525 -0.1099 -0.0425
 1238ERGO   ROH16623   4.024  15.764   6.216  0.1708  0.0744 -0.2243
 1238ERGO    R116624   3.968  15.776   6.493  0.0715 -0.1140 -0.2341
 1238ERGO    R216625   4.106  15.625   6.679  0.1994 -0.0360 -0.2567
 1238ERGO    R316626   4.147  15.867   6.796 -0.1238 -0.0293 -0.1431
 1238ERGO    R416627   4.178  15.674   7.014  0.1296 -0.0877 -0.2349
 1238ERGO    R516628   4.047  15.847   7.012 -0.1016 -0.2604 -0.1544
 1238ERGO    C116629   4.259  15.930   7.318 -0.2143 -0.1113 -0.1155
 1238ERGO    C216630   4.434  15.885   7.667  0.1771 -0.0795 -0.1169
 1239ERGO   ROH16631  13.309   0.735   6.074 -0.0520  0.0349 -0.0481
 1239ERGO    R116632  13.119   0.684   6.278 -0.0329  0.1413 -0.0018
 1239ERGO    R216633  13.061   0.428   6.367 -0.0467  0.1819  0.1191
 1239ERGO    R316634  13.122   0.534   6.609 -0.0050  0.2857  0.0631
 1239ERGO    R416635  12.987   0.281   6.670 -0.1042  0.3747  0.1991
 1239ERGO    R516636  12.935   0.478   6.747 -0.0248  0.4347  0.0946
 1239ERGO    C116637  13.001   0.295   7.075 -0.0985  0.5844  0.1931
 1239ERGO    C216638  12.936   0.136   7.383  0.2489  0.0243  0.2729
 1240ERGO   ROH16639   1.593   5.671   6.072 -0.0876 -0.0898  0.0398
 1240ERGO    R116640   1.444   5.672   6.313 -0.1513 -0.3297  0.0046
 1240ERGO    R216641   1.400   5.443   6.462  0.2870 -0.3914  0.0587
 1240ERGO    R316642   1.506   5.592   6.663 -0.0606 -0.1052  0.0405
 1240ERGO    R416643   1.367   5.373   6.799  0.2903 -0.3084  0.0763
 1240ERGO    R516644   1.341   5.586   6.835 -0.1179 -0.3362 -0.0211
 1240ERGO    C116645   1.448   5.473   7.183 -0.0340  0.0085  0.0694
 1240ERGO    C216646   1.528   5.445   7.420 -0.2154 -0.1387  0.1614
 1241ERGO   ROH16647   3.327  12.336   6.174 -0.1013  0.0606 -0.0343
 1241ERGO    R116648   3.336  12.388   6.452 -0.0608  0.3940 -0.0936
 1241ERGO    R216649   3.196  12.596   6.570 -0.5339  0.1781 -0.2450
 1241ERGO    R316650   3.098  12.397   6.727  0.0706  0.0795  0.0337
 1241ERGO    R416651   3.041  12.643   6.875 -0.6233  0.1217 -0.2812
 1241ERGO    R516652   3.147  12.469   6.951 -0.0906  0.5153 -0.0647
 1241ERGO    C116653   2.859  12.485   7.201 -0.1078 -0.0037 -0.0408
 1241ERGO    C216654   2.750  12.299   7.500  0.0256  0.1914 -0.0065
 1242ERGO   ROH16655  12.500   4.151   6.306 -0.1193 -0.0085  0.0804
 1242ERGO    R116656  12.417   4.155   6.577 -0.1184 -0.1510  0.0842
 1242ERGO    R216657  12.527   3.989   6.768 -0.1035 -0.2406  0.0019
 1242ERGO    R316658  12.572   4.223   6.899 -0.1205 -0.3011  0.1165
 1242ERGO    R416659  12.620   4.014   7.100  0.1898 -0.4035 -0.0654
 1242ERGO    R516660  12.486   4.185   7.120  0.1070 -0.4960  0.1734
 1242ERGO    C116661  12.718   4.247   7.416  0.3448 -0.5551  0.0029
 1242ERGO    C216662  12.953   4.373   7.634 -0.1172  0.0115  0.0254
 1243ERGO   ROH16663  16.804   8.415   6.151 -0.1263  0.1463  0.1421
 1243ERGO    R116664  16.656   8.255   6.332 -0.1159 -0.0049  0.0188
 1243ERGO    R216665  16.704   7.985   6.365 -0.0140 -0.0013 -0.0994
 1243ERGO    R316666  16.728   8.054   6.627 -0.1242 -0.1208 -0.0569
 1243ERGO    R416667  16.765   7.763   6.623  0.0579 -0.0998 -0.1998
 1243ERGO    R516668  16.622   7.875   6.746 -0.0441 -0.2500 -0.1767
 1243ERGO    C116669  16.822   7.699   7.020 -0.0035 -0.2692 -0.2184
 1243ERGO    C216670  16.970   7.656   7.366  0.1620 -0.2348 -0.1814
 1244ERGO   ROH16671  12.833   1.698   6.010 -0.1101 -0.0201 -0.1730
 1244ERGO    R116672  12.580   1.813   6.066 -0.1077 -0.0394 -0.1101
 1244ERGO    R216673  12.402   1.702   6.246 -0.0920 -0.0962 -0.1133
 1244ERGO    R316674  12.410   1.950   6.357 -0.0692 -0.1283 -0.0489
 1244ERGO    R416675  12.207   1.805   6.512 -0.2984 -0.0407 -0.2864
 1244ERGO    R516676  12.182   1.997   6.412 -0.0919 -0.0112 -0.2651
 1244ERGO    C116677  12.101   2.099   6.770 -0.3972 -0.0386 -0.3268
 1244ERGO    C216678  11.947   2.190   7.021  0.1678  0.0692 -0.0375
 1245ERGO   ROH16679  16.200  18.083   5.880  0.0447  0.0174  0.0956
 1245ERGO    R116680  16.214  18.178   6.145  0.0875 -0.0967  0.1349
 1245ERGO    R216681  15.990  18.251   6.289  0.1309  0.0913  0.1093
 1245ERGO    R316682  16.089  18.074   6.471 -0.1002 -0.0849  0.0678
 1245ERGO    R416683  15.913  18.251   6.626  0.3917  0.3395  0.1731
 1245ERGO    R516684  16.122  18.206   6.669  0.3392 -0.1017  0.0159
 1245ERGO    C116685  15.960  18.086   6.993  0.3265  0.3185  0.1713
 1245ERGO    C216686  15.994  17.908   7.252 -0.2453 -0.2490 -0.1897
 1246ERGO   ROH16687  12.591  13.032   5.615  0.1181 -0.1066 -0.1447
 1246ERGO    R116688  12.560  12.975   5.891  0.0669  0.0813 -0.1097
 1246ERGO    R216689  12.674  12.754   6.010 -0.1734  0.0175  0.0085
 1246ERGO    R316690  12.780  12.938   6.179  0.0423 -0.0023 -0.1017
 1246ERGO    R416691  12.799  12.683   6.324 -0.1986  0.0498  0.0258
 1246ERGO    R516692  12.707  12.867   6.396  0.0010  0.1838 -0.0538
 1246ERGO    C116693  12.972  12.815   6.666 -0.0108  0.0499 -0.0675
 1246ERGO    C216694  13.178  12.655   6.933 -0.0836 -0.0592 -0.0405
 1247ERGO   ROH16695  10.833  11.403   5.811 -0.1088 -0.0177  0.0154
 1247ERGO    R116696  10.938  11.398   6.074 -0.1324  0.0276  0.0259
 1247ERGO    R216697  11.031  11.625   6.201 -0.0709  0.0361 -0.0345
 1247ERGO    R316698  10.855  11.549   6.395 -0.1110  0.1504 -0.0255
 1247ERGO    R416699  11.020  11.756   6.521  0.1788 -0.1060  0.0350
 1247ERGO    R516700  10.983  11.555   6.597 -0.0430 -0.1042 -0.0560
 1247ERGO    C116701  10.849  11.762   6.888  0.2864 -0.0813  0.0839
 1247ERGO    C216702  10.912  11.952   7.214  0.0251 -0.2478  0.3824
 1248ERGO   ROH16703   6.134   5.096   6.115 -0.1000 -0.0032 -0.2581
 1248ERGO    R116704   5.974   5.081   6.348 -0.0355  0.0808 -0.2082
 1248ERGO    R216705   5.718   5.184   6.359 -0.0670 -0.0045 -0.2077
 1248ERGO    R316706   5.654   4.933   6.440  0.0396  0.0215 -0.0352
 1248ERGO    R416707   5.495   5.108   6.612 -0.1722  0.0779 -0.2738
 1248ERGO    R516708   5.631   4.951   6.677 -0.1106  0.2106 -0.0595
 1248ERGO    C116709   5.306   4.828   6.836 -0.1332  0.1505 -0.1503
 1248ERGO    C216710   5.213   4.623   7.068 -0.0963 -0.1358 -0.0825
 1249ERGO   ROH16711  15.896  16.842   6.213  0.1253  0.2032  0.1416
 1249ERGO    R116712  16.098  16.691   6.342  0.0396  0.0085  0.0523
 1249ERGO    R216713  16.136  16.698   6.616  0.1881 -0.0003  0.0315
 1249ERGO    R316714  16.111  16.428   6.593 -0.1006  0.0195  0.0723
 1249ERGO    R416715  16.186  16.473   6.873 -0.0006 -0.0183  0.0545
 1249ERGO    R516716  16.286  16.341   6.731 -0.1641 -0.1452  0.0526
 1249ERGO    C116717  16.192  16.089   7.002 -0.3813 -0.0103  0.1062
 1249ERGO    C216718  16.088  15.952   7.249  0.2689  0.1989  0.0306
 1250ERGO   ROH16719  14.542  16.630   6.021  0.1401 -0.0785 -0.0788
 1250ERGO    R116720  14.536  16.752   6.276 -0.0743 -0.0620 -0.0882
 1250ERGO    R216721  14.525  16.606   6.511 -0.0744 -0.0570 -0.0752
 1250ERGO    R316722  14.745  16.752   6.574 -0.2121  0.1154  0.0075
 1250ERGO    R416723  14.627  16.682   6.832 -0.1310 -0.1434 -0.0380
 1250ERGO    R516724  14.678  16.882   6.764 -0.3232 -0.0592  0.0821
 1250ERGO    C116725  14.893  16.863   7.078 -0.2934 -0.0318  0.0613
 1250ERGO    C216726  14.963  16.811   7.370 -0.0211  0.2695 -0.1379
 1251ERGO   ROH16727   9.992   7.324   6.340  0.1825 -0.0947  0.0011
 1251ERGO    R116728  10.025   7.431   6.600  0.1479  0.0081 -0.0391
 1251ERGO    R216729  10.274   7.465   6.716  0.1219  0.0572 -0.0288
 1251ERGO    R316730  10.189   7.721   6.748  0.1204  0.0717 -0.1236
 1251ERGO    R416731  10.381   7.680   6.965  0.0973  0.1156 -0.0656
 1251ERGO    R516732  10.176   7.751   6.985  0.0817  0.1311 -0.1225
 1251ERGO    C116733  10.363   8.046   7.139  0.0815  0.1632 -0.1761
 1251ERGO    C216734  10.395   8.338   7.415  0.3193 -0.1165 -0.4292
 1252ERGO   ROH16735  13.322   2.980   6.204 -0.0696  0.0304 -0.1581
 1252ERGO    R116736  13.183   2.854   6.416  0.1093 -0.2075 -0.1788
 1252ERGO    R216737  13.309   2.689   6.599  0.3821  0.0616 -0.1153
 1252ERGO    R316738  13.196   2.857   6.780 -0.0021 -0.1200 -0.1750
 1252ERGO    R416739  13.246   2.609   6.930  0.4585 -0.0003 -0.1153
 1252ERGO    R516740  13.056   2.716   6.914  0.2427 -0.3781 -0.1824
 1252ERGO    C116741  13.104   2.721   7.292  0.1423 -0.2067 -0.1714
 1252ERGO    C216742  13.082   2.774   7.542 -0.0138 -0.2066 -0.0898
 1253ERGO   ROH16743   6.691  12.168   6.026 -0.1162  0.0852 -0.0404
 1253ERGO    R116744   6.662  12.386   6.205 -0.1907  0.0230  0.0232
 1253ERGO    R216745   6.506  12.371   6.433  0.0081 -0.1789  0.1479
 1253ERGO    R316746   6.735  12.451   6.556  0.0294  0.0310 -0.0216
 1253ERGO    R416747   6.522  12.589   6.701 -0.0006 -0.1580  0.1316
 1253ERGO    R516748   6.697  12.681   6.610 -0.1446  0.0019 -0.0014
 1253ERGO    C116749   6.746  12.790   6.972  0.0143  0.0511 -0.0371
 1253ERGO    C216750   6.601  12.926   7.262 -0.3564  0.1496 -0.4805
 1254ERGO   ROH16751   6.792   6.246   6.349  0.0468  0.0069  0.0742
 1254ERGO    R116752   6.825   6.156   6.615  0.1007  0.2065  0.1379
 1254ERGO    R216753   6.751   6.308   6.834 -0.2543  0.2048  0.0306
 1254ERGO    R316754   6.608   6.086   6.899  0.1023 -0.0164  0.0846
 1254ERGO    R416755   6.545   6.280   7.110 -0.3571 -0.0002 -0.0648
 1254ERGO    R516756   6.619   6.077   7.139 -0.0082  0.1447  0.0943
 1254ERGO    C116757   6.291   6.056   7.333 -0.0821 -0.3273 -0.0698
 1254ERGO    C216758   6.009   6.013   7.530 -0.1704  0.1638  0.0522
 1255ERGO   ROH16759   3.252  10.952   6.229  0.2224  0.0304  0.0832
 1255ERGO    R116760   3.289  10.970   6.509  0.0749  0.0817  0.1004
 1255ERGO    R216761   3.130  11.128   6.671 -0.1017  0.0019  0.0078
 1255ERGO    R316762   3.094  10.896   6.807 -0.0266 -0.0074  0.0124
 1255ERGO    R416763   3.062  11.106   7.009 -0.1294 -0.0113  0.0013
 1255ERGO    R516764   3.196  10.935   7.020 -0.0642  0.0406  0.0221
 1255ERGO    C116765   2.988  10.875   7.334 -0.0751 -0.0277  0.0018
 1255ERGO    C216766   2.785  10.934   7.509  0.0383 -0.0354 -0.3333
 1256ERGO   ROH16767   1.495   7.581   6.107  0.1433  0.0891  0.0941
 1256ERGO    R116768   1.559   7.503   6.372  0.0775  0.2172  0.1491
 1256ERGO    R216769   1.525   7.671   6.589 -0.2787  0.2154  0.1031
 1256ERGO    R316770   1.380   7.462   6.686 -0.0742  0.0415  0.0414
 1256ERGO    R416771   1.513   7.575   6.921 -0.1849  0.0977  0.0731
 1256ERGO    R516772   1.518   7.367   6.857  0.0186  0.1229  0.0102
 1256ERGO    C116773   1.369   7.323   7.205  0.0616 -0.1340 -0.0024
 1256ERGO    C216774   1.243   7.189   7.438 -0.1611  0.0266  0.1554
 1257ERGO   ROH16775   5.414   2.886   5.963 -0.2993 -0.4086 -0.1618
 1257ERGO    R116776   5.327   2.856   6.231 -0.2200 -0.2001 -0.1105
 1257ERGO    R216777   5.328   2.611   6.361 -0.1868 -0.0998  0.0783
 1257ERGO    R316778   5.473   2.748   6.546 -0.1286  0.0401 -0.0685
 1257ERGO    R416779   5.308   2.565   6.703 -0.0358  0.1141  0.1181
 1257ERGO    R516780   5.323   2.781   6.729 -0.0567  0.1337 -0.0250
 1257ERGO    C116781   5.433   2.667   7.076  0.1067  0.3701  0.0034
 1257ERGO    C216782   5.550   2.418   7.241  0.0748  0.0163 -0.2220
 1258ERGO   ROH16783   7.636   5.839   6.476 -0.2686 -0.1158 -0.0898
 1258ERGO    R116784   7.813   5.836   6.696 -0.1704 -0.0388 -0.1682
 1258ERGO    R216785   7.747   5.944   6.942 -0.0591  0.0457 -0.1814
 1258ERGO    R316786   7.815   5.697   7.033 -0.0164  0.0799 -0.1166
 1258ERGO    R416787   7.798   5.864   7.274 -0.1972  0.1186 -0.1410
 1258ERGO    R516788   7.968   5.741   7.213 -0.1170  0.1661 -0.0440
 1258ERGO    C116789   7.893   5.586   7.553 -0.2375  0.1932 -0.0567
 1258ERGO    C216790   7.853   5.560   7.948 -0.3811 -0.1330 -0.1502
 1259ERGO   ROH16791  12.723   8.085   6.023  0.1856  0.0701 -0.0732
 1259ERGO    R116792  12.899   8.118   6.242  0.2969 -0.2318 -0.1149
 1259ERGO    R216793  12.809   8.168   6.498  0.4409  0.2371 -0.1579
 1259ERGO    R316794  12.960   7.950   6.559 -0.1472 -0.1453  0.0275
 1259ERGO    R416795  12.946   8.103   6.809  0.5548  0.3527 -0.1815
 1259ERGO    R516796  13.127   8.034   6.710  0.2739 -0.3715 -0.2781
 1259ERGO    C116797  13.167   7.860   7.047  0.0691  0.0610 -0.0212
 1259ERGO    C216798  13.222   7.850   7.335  0.1002 -0.2708  0.1168
 1260ERGO   ROH16799   9.842  13.433   5.891  0.0588  0.0917  0.1497
 1260ERGO    R116800   9.898  13.418   6.167 -0.0546  0.1489  0.1755
 1260ERGO    R216801   9.820  13.614   6.346 -0.1777  0.1557  0.1095
 1260ERGO    R316802   9.705  13.405   6.476 -0.1807  0.1491  0.0987
 1260ERGO    R416803   9.789  13.588   6.689 -0.2134  0.1613  0.1076
 1260ERGO    R516804   9.839  13.376   6.673 -0.1979  0.1609  0.1152
 1260ERGO    C116805   9.662  13.377   7.011 -0.2369  0.1584  0.0963
 1260ERGO    C216806   9.514  13.258   7.412  0.0877  0.1127 -0.1088
 1261ERGO   ROH16807  18.527   7.925   6.086 -0.0008  0.3150  0.0931
 1261ERGO    R116808  18.387   8.099   6.261  0.0316  0.2440  0.1911
 1261ERGO    R216809  18.166   8.244   6.181  0.0301  0.2960  0.2846
 1261ERGO    R316810  18.050   8.124   6.395  0.0496  0.2028  0.2433
 1261ERGO    R416811  17.897   8.371   6.357 -0.2654 -0.0154  0.0702
 1261ERGO    R516812  17.993   8.305   6.541 -0.2959  0.1715  0.1534
 1261ERGO    C116813  17.632   8.332   6.661 -0.4191 -0.2842 -0.0934
 1261ERGO    C216814  17.367   8.508   6.504  0.3686 -0.1653  0.2566
 1262ERGO   ROH16815   0.640  15.222   5.916  0.2462  0.0025 -0.0229
 1262ERGO    R116816   0.710  15.068   6.143  0.1122 -0.0033  0.0141
 1262ERGO    R216817   0.873  15.164   6.345  0.0621 -0.0406  0.0667
 1262ERGO    R316818   0.665  15.093   6.503 -0.0176  0.0315 -0.0028
 1262ERGO    R416819   0.894  15.107   6.685 -0.0738  0.0014  0.0834
 1262ERGO    R516820   0.759  14.938   6.660 -0.1086  0.0269  0.0540
 1262ERGO    C116821   0.710  15.005   7.032 -0.2277  0.0933  0.0280
 1262ERGO    C216822   0.777  14.952   7.417  0.0367 -0.1667 -0.0122
 1263ERGO   ROH16823   8.210   4.578   6.089  0.1427 -0.1480 -0.0257
 1263ERGO    R116824   8.108   4.450   6.320  0.2341 -0.2217 -0.0255
 1263ERGO    R216825   8.237   4.239   6.443  0.5232  0.0356  0.1270
 1263ERGO    R316826   8.218   4.397   6.663  0.1529  0.1001  0.0540
 1263ERGO    R416827   8.166   4.126   6.762  0.3155  0.0835  0.0986
 1263ERGO    R516828   8.039   4.301   6.790  0.1168 -0.0255 -0.0887
 1263ERGO    C116829   8.106   4.209   7.154 -0.1530  0.1719  0.0135
 1263ERGO    C216830   8.021   4.156   7.536 -0.2366 -0.4109  0.1801
 1264ERGO   ROH16831   3.591  15.502   6.221  0.0391 -0.2623 -0.0965
 1264ERGO    R116832   3.545  15.469   6.498  0.0401 -0.2463 -0.0944
 1264ERGO    R216833   3.735  15.364   6.670  0.0310 -0.2624 -0.0936
 1264ERGO    R316834   3.691  15.594   6.808  0.0605 -0.2517 -0.1019
 1264ERGO    R416835   3.806  15.410   7.004  0.0286 -0.2615 -0.0933
 1264ERGO    R516836   3.620  15.521   7.024  0.0442 -0.2342 -0.1016
 1264ERGO    C116837   3.807  15.653   7.329  0.0548 -0.2510 -0.1008
 1264ERGO    C216838   3.768  15.810   7.581  0.0657 -0.2159  0.0223
 1265ERGO   ROH16839   3.670   2.661   5.867 -0.0671  0.4075  0.0858
 1265ERGO    R116840   3.831   2.714   6.094 -0.0146  0.2769  0.0792
 1265ERGO    R216841   3.725   2.776   6.341  0.0457  0.3258  0.0911
 1265ERGO    R316842   3.879   2.568   6.424 -0.0883  0.2136  0.0628
 1265ERGO    R416843   3.866   2.747   6.655 -0.0206  0.1687  0.1073
 1265ERGO    R516844   4.046   2.669   6.562 -0.0494  0.0851  0.1143
 1265ERGO    C116845   4.092   2.534   6.916 -0.1850 -0.0280  0.0901
 1265ERGO    C216846   4.144   2.344   7.208  0.2428 -0.1174  0.0074
 1266ERGO   ROH16847   7.803   2.424   6.162 -0.0875 -0.0227  0.0811
 1266ERGO    R116848   7.865   2.306   6.412 -0.1422 -0.0132  0.0994
 1266ERGO    R216849   8.095   2.369   6.552 -0.0741 -0.1551  0.0527
 1266ERGO    R316850   7.919   2.422   6.752 -0.0064  0.0251  0.0657
 1266ERGO    R416851   8.177   2.390   6.887 -0.0144 -0.1721  0.0390
 1266ERGO    R516852   7.992   2.285   6.934 -0.0993 -0.0097  0.0780
 1266ERGO    C116853   8.060   2.452   7.270  0.0841 -0.0128  0.0434
 1266ERGO    C216854   8.139   2.431   7.596  0.1249 -0.0091  0.3043
 1267ERGO   ROH16855   8.036  14.980   5.595 -0.0750 -0.0448  0.1059
 1267ERGO    R116856   8.069  14.871   5.854 -0.0183 -0.0748  0.0871
 1267ERGO    R216857   8.198  15.007   6.057 -0.0008 -0.0824  0.0888
 1267ERGO    R316858   7.967  14.958   6.192  0.0243 -0.1295  0.1121
 1267ERGO    R416859   8.149  15.065   6.395 -0.0465  0.0721  0.0556
 1267ERGO    R516860   8.038  14.878   6.406  0.0545  0.0258  0.1555
 1267ERGO    C116861   7.903  15.052   6.717 -0.0497  0.1181  0.0582
 1267ERGO    C216862   7.849  15.268   7.047  0.0325  0.0441  0.0244
 1268ERGO   ROH16863  14.765   2.698   6.097  0.1722  0.2173  0.0105
 1268ERGO    R116864  14.964   2.613   6.279  0.0910  0.1612  0.0752
 1268ERGO    R216865  15.205   2.745   6.308  0.1843  0.0054  0.0422
 1268ERGO    R316866  15.132   2.752   6.570  0.1540  0.1809  0.0292
 1268ERGO    R416867  15.418   2.819   6.570  0.2018 -0.0161  0.0328
 1268ERGO    R516868  15.321   2.662   6.687  0.0771  0.1057  0.0958
 1268ERGO    C116869  15.473   2.868   6.969  0.1836  0.1361  0.0152
 1268ERGO    C216870  15.535   2.798   7.332 -0.1958 -0.3905  0.0335
 1269ERGO   ROH16871  17.026  14.893   5.952 -0.1086  0.0496  0.0275
 1269ERGO    R116872  17.127  14.725   6.156  0.0836  0.1189 -0.0118
 1269ERGO    R216873  17.318  14.809   6.336 -0.1431  0.3544  0.1058
 1269ERGO    R316874  17.136  14.726   6.520 -0.0803 -0.0509 -0.0025
 1269ERGO    R416875  17.393  14.715   6.661 -0.1108  0.6617  0.1925
 1269ERGO    R516876  17.248  14.553   6.641  0.2987  0.2637  0.1355
 1269ERGO    C116877  17.265  14.582   7.021 -0.0331  0.4601  0.1412
 1269ERGO    C216878  17.461  14.614   7.354 -0.1853  0.0666 -0.1998
 1270ERGO   ROH16879  18.257   2.008   6.408 -0.1459  0.0171 -0.0684
 1270ERGO    R116880  18.394   1.994   6.655 -0.1338  0.1956 -0.0623
 1270ERGO    R216881  18.265   2.010   6.898 -0.1513  0.1541 -0.0609
 1270ERGO    R316882  18.393   1.776   6.946  0.0405  0.2696 -0.0075
 1270ERGO    R416883  18.392   1.913   7.204 -0.2097  0.2464 -0.0078
 1270ERGO    R516884  18.566   1.833   7.101 -0.0896  0.4121  0.0787
 1270ERGO    C116885  18.587   1.636   7.427 -0.0639  0.4086  0.0733
 1270ERGO    C216886  18.516   1.478   7.658 -0.0699  0.0813 -0.2943
 1271ERGO   ROH16887  12.859   4.870   6.007  0.0783  0.0511 -0.1706
 1271ERGO    R116888  13.085   4.873   6.177  0.0361  0.0680 -0.1153
 1271ERGO    R216889  13.329   4.974   6.098  0.0326  0.1342 -0.0374
 1271ERGO    R316890  13.303   5.125   6.323 -0.0518  0.0875 -0.0147
 1271ERGO    R416891  13.584   5.039   6.322 -0.0485  0.0881  0.0696
 1271ERGO    R516892  13.440   5.014   6.485 -0.1099  0.0527  0.0129
 1271ERGO    C116893  13.708   5.219   6.663 -0.1748  0.0174  0.1532
 1271ERGO    C216894  14.057   5.421   6.837  0.0879  0.3033 -0.3536
 1272ERGO   ROH16895   1.046  16.196   6.230  0.1123  0.1150 -0.0965
 1272ERGO    R116896   0.915  16.078   6.451  0.0461 -0.0102 -0.2017
 1272ERGO    R216897   0.872  16.213   6.688  0.1939 -0.2209 -0.0508
 1272ERGO    R316898   0.613  16.140   6.644  0.1254  0.0398 -0.0930
 1272ERGO    R416899   0.621  16.222   6.926  0.2243 -0.2190 -0.0188
 1272ERGO    R516900   0.546  16.033   6.848  0.0528 -0.0869 -0.1827
 1272ERGO    C116901   0.233  16.160   7.024  0.1777  0.0269 -0.0398
 1272ERGO    C216902  -0.023  16.295   7.156  0.4333  0.1055  0.1928
 1273ERGO   ROH16903   7.328  16.460   8.319  0.0728  0.1093  0.0120
 1273ERGO    R116904   7.049  16.509   8.311  0.0627  0.0547  0.0343
 1273ERGO    R216905   6.865  16.335   8.420  0.1154  0.0965  0.1907
 1273ERGO    R316906   6.781  16.557   8.553  0.1029  0.1740  0.0558
 1273ERGO    R416907   6.613  16.340   8.658  0.1702  0.2128  0.2476
 1273ERGO    R516908   6.544  16.529   8.573  0.1126  0.1406  0.1312
 1273ERGO    C116909   6.389  16.552   8.920  0.1904  0.3533  0.1540
 1273ERGO    C216910   6.022  16.386   9.093  0.1497 -0.1052 -0.1728
 1274ERGO   ROH16911   6.083   7.838   6.230  0.0102 -0.0775 -0.0254
 1274ERGO    R116912   6.019   8.006   6.448 -0.1308 -0.1039 -0.0458
 1274ERGO    R216913   5.829   7.940   6.637 -0.0363 -0.2669 -0.0080
 1274ERGO    R316914   6.032   7.986   6.811 -0.0562 -0.0276 -0.0432
 1274ERGO    R416915   5.790   7.995   6.976 -0.0420 -0.3704  0.0085
 1274ERGO    R516916   5.944   8.148   6.964 -0.2407 -0.1626 -0.0005
 1274ERGO    C116917   5.958   8.069   7.337 -0.0640 -0.2062 -0.0150
 1274ERGO    C216918   6.115   8.135   7.679 -0.1379 -0.0511  0.2004
 1275ERGO   ROH16919   2.782  10.907   6.211 -0.1550  0.0338  0.2304
 1275ERGO    R116920   2.810  10.905   6.493 -0.1168 -0.0307  0.2268
 1275ERGO    R216921   2.693  11.096   6.655  0.0136  0.0093  0.2766
 1275ERGO    R316922   2.588  10.879   6.780 -0.0933  0.0461  0.2518
 1275ERGO    R416923   2.503  11.107   6.943  0.0767  0.0639  0.3161
 1275ERGO    R516924   2.608  10.930   7.013 -0.0167 -0.0145  0.2582
 1275ERGO    C116925   2.294  10.909   7.229  0.0132  0.1303  0.3158
 1275ERGO    C216926   2.243  11.068   7.526 -0.2576 -0.0294  0.2033
 1276ERGO   ROH16927  11.482  16.716   6.077 -0.0458  0.2497 -0.0906
 1276ERGO    R116928  11.517  16.868   6.313 -0.0154  0.2505 -0.0956
 1276ERGO    R216929  11.734  16.835   6.482 -0.0961  0.1107 -0.0176
 1276ERGO    R316930  11.764  17.102   6.443  0.1119  0.0858 -0.0377
 1276ERGO    R416931  12.001  17.022   6.595 -0.0319 -0.0588  0.1151
 1276ERGO    R516932  11.862  17.181   6.647  0.0460  0.0454  0.0101
 1276ERGO    C116933  12.186  17.381   6.625  0.2006 -0.1811  0.1737
 1276ERGO    C216934  12.342  17.635   6.816  0.0064  0.1603 -0.0064
 1277ERGO   ROH16935   8.606   9.041   6.271 -0.2039 -0.0086 -0.0220
 1277ERGO    R116936   8.582   9.005   6.551 -0.0589  0.0706  0.0019
 1277ERGO    R216937   8.659   9.198   6.732  0.0568  0.1153 -0.0900
 1277ERGO    R316938   8.405   9.169   6.824  0.1008  0.1634  0.0498
 1277ERGO    R416939   8.571   9.175   7.066  0.2403  0.0114 -0.0474
 1277ERGO    R516940   8.426   9.021   7.011  0.1593  0.0834 -0.0224
 1277ERGO    C116941   8.281   9.133   7.346  0.3884 -0.0038  0.1085
 1277ERGO    C216942   8.187   9.220   7.575 -0.3227  0.0370  0.0358
 1278ERGO   ROH16943  16.009  18.615   5.872  0.3020  0.4534 -0.1356
 1278ERGO    R116944  16.206  18.667   6.068  0.2599  0.1382 -0.0080
 1278ERGO    R216945  16.151  18.799   6.305  0.2780  0.0501  0.0303
 1278ERGO    R316946  16.262  18.578   6.416  0.0101 -0.1227 -0.0264
 1278ERGO    R416947  16.202  18.751   6.643  0.4703  0.0517  0.0044
 1278ERGO    R516948  16.394  18.661   6.597  0.3048 -0.2827 -0.1454
 1278ERGO    C116949  16.337  18.515   6.944  0.3305 -0.1096 -0.0638
 1278ERGO    C216950  16.618  18.488   7.234  0.0065  0.3084 -0.0558
 1279ERGO   ROH16951   6.731   8.754   6.030 -0.0822  0.0471  0.0670
 1279ERGO    R116952   6.765   8.647   6.290 -0.2914 -0.1696  0.0101
 1279ERGO    R216953   6.887   8.788   6.495  0.0959 -0.5547  0.0673
 1279ERGO    R316954   6.657   8.732   6.627 -0.0319 -0.0642  0.0676
 1279ERGO    R416955   6.833   8.846   6.831  0.2633 -0.5675  0.0962
 1279ERGO    R516956   6.728   8.656   6.842 -0.1912 -0.3280  0.0261
 1279ERGO    C116957   6.585   8.828   7.151  0.2408 -0.1145  0.1132
 1279ERGO    C216958   6.572   8.987   7.453 -0.2092  0.3585  0.0375
 1280ERGO   ROH16959   4.856  10.917   5.927  0.0376  0.0425  0.1977
 1280ERGO    R116960   4.857  10.877   6.208 -0.0433  0.0377  0.1964
 1280ERGO    R216961   4.628  10.894   6.361 -0.1136 -0.1438  0.1015
 1280ERGO    R316962   4.704  10.646   6.443  0.0441 -0.0876  0.1352
 1280ERGO    R416963   4.609  10.780   6.687 -0.0690 -0.1060  0.1184
 1280ERGO    R516964   4.802  10.683   6.659  0.0060  0.0134  0.1431
 1280ERGO    C116965   4.668  10.481   6.954  0.1050 -0.0311  0.1600
 1280ERGO    C216966   4.547  10.289   7.113  0.2285 -0.2061 -0.2187
 1281ERGO   ROH16967   8.527  16.342   5.618 -0.0695  0.0979 -0.0868
 1281ERGO    R116968   8.493  16.337   5.899  0.0286  0.0485 -0.0756
 1281ERGO    R216969   8.662  16.470   6.072 -0.0916  0.2764 -0.1313
 1281ERGO    R316970   8.430  16.580   6.163 -0.2145 -0.0344 -0.0544
 1281ERGO    R416971   8.581  16.515   6.405  0.0519  0.3568 -0.1059
 1281ERGO    R516972   8.377  16.454   6.359  0.1127 -0.0005  0.0624
 1281ERGO    C116973   8.316  16.644   6.684  0.0199  0.1118 -0.0189
 1281ERGO    C216974   8.387  16.646   6.976 -0.1522 -0.0974  0.2965
 1282ERGO   ROH16975   7.248  14.313   5.718 -0.0398  0.1769 -0.1869
 1282ERGO    R116976   7.212  14.198   5.974 -0.2788  0.1266 -0.2445
 1282ERGO    R216977   7.381  14.251   6.186 -0.2949 -0.1678 -0.1781
 1282ERGO    R316978   7.149  14.318   6.312 -0.2522  0.0715 -0.2134
 1282ERGO    R416979   7.347  14.298   6.527 -0.3003 -0.3368 -0.1521
 1282ERGO    R516980   7.155  14.195   6.517 -0.4602 -0.0845 -0.2784
 1282ERGO    C116981   7.109  14.388   6.843 -0.2633 -0.2104 -0.1702
 1282ERGO    C216982   7.130  14.304   7.257  0.0052 -0.0236 -0.1526
 1283ERGO   ROH16983   3.913   0.086   6.094 -0.2139  0.1898 -0.0547
 1283ERGO    R116984   3.852   0.202   6.345 -0.1744  0.1277 -0.0168
 1283ERGO    R216985   3.653   0.104   6.510  0.0187 -0.0669  0.1021
 1283ERGO    R316986   3.854   0.095   6.693  0.1384  0.1240 -0.0160
 1283ERGO    R416987   3.609   0.117   6.853  0.1823 -0.3544  0.1380
 1283ERGO    R516988   3.784   0.246   6.865 -0.0041 -0.0883  0.1196
 1283ERGO    C116989   3.773   0.117   7.224  0.3901 -0.3425  0.0481
 1283ERGO    C216990   3.753  -0.025   7.474  0.0069 -0.1707  0.2184
 1284ERGO   ROH16991  13.707  15.289   6.259  0.3357  0.1097 -0.0470
 1284ERGO    R116992  13.548  15.155   6.451  0.2090  0.0807 -0.1698
 1284ERGO    R216993  13.642  14.945   6.603  0.1165  0.0721 -0.1219
 1284ERGO    R316994  13.558  15.099   6.811 -0.0381  0.0472 -0.1655
 1284ERGO    R416995  13.631  14.844   6.934 -0.2562 -0.0177 -0.1582
 1284ERGO    R516996  13.441  14.949   6.955 -0.2421  0.0475 -0.3245
 1284ERGO    C116997  13.546  14.932   7.321 -0.6184 -0.0935 -0.2202
 1284ERGO    C216998  13.466  14.708   7.566  0.2339 -0.2008 -0.1538
 1285ERGO   ROH16999   5.356  14.355   5.955  0.0441 -0.0610  0.1241
 1285ERGO    R117000   5.239  14.314   6.210  0.0296  0.0475  0.1349
 1285ERGO    R217001   5.195  14.062   6.315 -0.0490  0.0919  0.2055
 1285ERGO    R317002   5.338  14.159   6.524 -0.0212  0.1062  0.1804
 1285ERGO    R417003   5.184  13.937   6.637 -0.0353  0.1367  0.2239
 1285ERGO    R517004   5.190  14.142   6.711 -0.0081  0.1471  0.1955
 1285ERGO    C117005   5.313  13.955   7.021 -0.0012  0.1762  0.2110
 1285ERGO    C217006   5.248  13.724   7.406 -0.2613  0.0866  0.1171
 1286ERGO   ROH17007   4.132   6.410   6.127  0.0608  0.3910 -0.1747
 1286ERGO    R117008   4.118   6.522   6.387 -0.0181  0.1533 -0.0729
 1286ERGO    R217009   4.025   6.381   6.605  0.1265 -0.1232 -0.1842
 1286ERGO    R317010   4.264   6.454   6.713  0.0723 -0.0024 -0.1450
 1286ERGO    R417011   4.075   6.467   6.936  0.0313 -0.1036 -0.1748
 1286ERGO    R517012   4.208   6.626   6.870 -0.0400 -0.0340 -0.1502
 1286ERGO    C117013   4.328   6.586   7.230 -0.0750  0.0211 -0.1325
 1286ERGO    C217014   4.428   6.598   7.554  0.2064 -0.1304  0.2899
 1287ERGO   ROH17015   0.074  13.107   6.451  0.0026 -0.1103 -0.0102
 1287ERGO    R117016   0.203  13.244   6.662  0.1290 -0.0385 -0.1324
 1287ERGO    R217017   0.144  13.198   6.928  0.0885  0.2486 -0.0869
 1287ERGO    R317018   0.411  13.155   6.946  0.0519  0.0222 -0.0570
 1287ERGO    R417019   0.320  13.173   7.224  0.0372  0.0838 -0.0693
 1287ERGO    R517020   0.481  13.288   7.133  0.1446 -0.0466 -0.0435
 1287ERGO    C117021   0.675  13.118   7.414 -0.0269 -0.2246 -0.0310
 1287ERGO    C217022   1.019  13.143   7.682  0.1338 -0.0107 -0.2848
 1288ERGO   ROH17023   1.186   1.436   6.648 -0.1442  0.1473  0.1302
 1288ERGO    R117024   1.162   1.503   6.922  0.0895  0.0306  0.1820
 1288ERGO    R217025   1.376   1.488   7.098  0.2667  0.0448 -0.0222
 1288ERGO    R317026   1.310   1.747   7.148  0.2102 -0.0003  0.1361
 1288ERGO    R417027   1.470   1.664   7.380  0.3223 -0.0727  0.0318
 1288ERGO    R517028   1.271   1.754   7.384  0.2990 -0.1326  0.1540
 1288ERGO    C117029   1.463   2.010   7.592  0.3016 -0.1834  0.2120
 1288ERGO    C217030   1.482   2.326   7.615 -0.2196  0.0471 -0.2001
 1289ERGO   ROH17031  10.713   2.765   6.057 -0.0991  0.0703  0.0497
 1289ERGO    R117032  10.685   2.678   6.325 -0.1345 -0.2071 -0.0410
 1289ERGO    R217033  10.663   2.854   6.537  0.2989 -0.4133  0.1880
 1289ERGO    R317034  10.438   2.711   6.590  0.0468 -0.0576  0.1125
 1289ERGO    R417035  10.503   2.844   6.843  0.3978 -0.4502  0.2396
 1289ERGO    R517036  10.469   2.631   6.813 -0.0114 -0.3651  0.0146
 1289ERGO    C117037  10.197   2.704   7.071  0.2189 -0.1377  0.1989
 1289ERGO    C217038  10.093   2.841   7.263 -0.2031 -0.0164  0.0687
 1290ERGO   ROH17039  17.874  15.563   6.070  0.1476 -0.0128 -0.0880
 1290ERGO    R117040  17.928  15.635   6.338  0.0341  0.0020 -0.0679
 1290ERGO    R217041  17.733  15.640   6.534 -0.0195 -0.1389 -0.1152
 1290ERGO    R317042  17.906  15.476   6.665  0.0543 -0.0388 -0.0869
 1290ERGO    R417043  17.716  15.561   6.870  0.0447 -0.0535 -0.0920
 1290ERGO    R517044  17.933  15.577   6.880  0.0391  0.0295 -0.1177
 1290ERGO    C117045  17.869  15.362   7.188  0.1513  0.0902 -0.0519
 1290ERGO    C217046  17.614  15.308   7.398  0.1600  0.0535  0.1097
 1291ERGO   ROH17047   6.526   9.831   5.913  0.2537 -0.2889  0.1144
 1291ERGO    R117048   6.360   9.827   6.143  0.1621 -0.2965  0.0485
 1291ERGO    R217049   6.452   9.749   6.391  0.1303 -0.0695  0.1342
 1291ERGO    R317050   6.354   9.991   6.468 -0.1139 -0.1058 -0.0482
 1291ERGO    R417051   6.374   9.835   6.716  0.2921  0.1781  0.1100
 1291ERGO    R517052   6.197   9.939   6.641  0.0933 -0.1261  0.1394
 1291ERGO    C117053   6.237  10.112   6.978  0.1570  0.2883 -0.0754
 1291ERGO    C217054   6.268  10.142   7.412 -0.0390  0.1760  0.4117
 1292ERGO   ROH17055   5.018  16.010   5.886 -0.1462 -0.2494  0.0318
 1292ERGO    R117056   4.915  15.933   6.138 -0.1487 -0.1302  0.0670
 1292ERGO    R217057   5.051  15.763   6.309 -0.1706 -0.0820  0.1294
 1292ERGO    R317058   5.017  15.966   6.486 -0.1309 -0.0058  0.0510
 1292ERGO    R417059   5.156  15.758   6.638  0.0218  0.1057  0.0732
 1292ERGO    R517060   4.970  15.857   6.694  0.0210  0.0766  0.1322
 1292ERGO    C117061   5.185  15.946   6.996  0.1711  0.2864 -0.0331
 1292ERGO    C217062   5.305  15.878   7.218  0.0108 -0.2565  0.3249
 1293ERGO   ROH17063  16.160  15.058   6.254  0.1460 -0.3125 -0.0852
 1293ERGO    R117064  16.183  15.020   6.534  0.1605 -0.1716 -0.0671
 1293ERGO    R217065  16.019  15.151   6.715  0.0595 -0.2062 -0.1338
 1293ERGO    R317066  15.969  14.898   6.802  0.2355 -0.2047 -0.0221
 1293ERGO    R417067  15.935  15.066   7.039 -0.0146 -0.1041 -0.1256
 1293ERGO    R517068  16.063  14.891   7.022  0.1440 -0.0067  0.0259
 1293ERGO    C117069  15.839  14.780   7.309  0.1074 -0.0433 -0.0160
 1293ERGO    C217070  15.758  14.396   7.484 -0.3138  0.2245 -0.0707
 1294ERGO   ROH17071  10.452   6.484   6.624 -0.1978 -0.0358  0.0746
 1294ERGO    R117072  10.580   6.518   6.874 -0.0729  0.0355  0.0026
 1294ERGO    R217073  10.532   6.736   7.037 -0.0067  0.0745 -0.0238
 1294ERGO    R317074  10.478   6.545   7.223  0.0997  0.1133  0.0474
 1294ERGO    R417075  10.434   6.800   7.362 -0.1099  0.1364 -0.0673
 1294ERGO    R517076  10.562   6.636   7.428 -0.0037  0.2588  0.0243
 1294ERGO    C117077  10.325   6.657   7.726 -0.0700  0.2088 -0.0258
 1294ERGO    C217078  10.297   6.805   7.999 -0.1404  0.2459  0.1260
 1295ERGO   ROH17079  16.097  12.972   5.965  0.0109 -0.1115 -0.0399
 1295ERGO    R117080  16.236  13.052   6.198  0.0507 -0.0692 -0.0769
 1295ERGO    R217081  16.114  13.190   6.404  0.1052  0.0481 -0.1164
 1295ERGO    R317082  16.213  12.987   6.556  0.0481  0.0687 -0.0524
 1295ERGO    R417083  16.175  13.208   6.744  0.2456  0.1782 -0.1484
 1295ERGO    R517084  16.358  13.095   6.712  0.1670  0.0613 -0.1611
 1295ERGO    C117085  16.304  13.028   7.084  0.2738  0.2733 -0.1070
 1295ERGO    C217086  16.100  12.893   7.343  0.1660  0.0151  0.0725
 1296ERGO   ROH17087   3.275  17.954   5.718  0.0998  0.0718  0.0484
 1296ERGO    R117088   3.361  18.037   5.974  0.1275  0.0235  0.0543
 1296ERGO    R217089   3.187  18.075   6.185  0.1363  0.1043  0.0440
 1296ERGO    R317090   3.354  17.902   6.312  0.0450  0.0204  0.0523
 1296ERGO    R417091   3.241  18.067   6.526  0.0433  0.0210  0.0577
 1296ERGO    R517092   3.452  18.033   6.487  0.0448 -0.0443  0.1042
 1296ERGO    C117093   3.430  17.901   6.844 -0.0966 -0.1061  0.0736
 1296ERGO    C217094   3.623  17.980   7.085  0.0056  0.0290  0.2886
 1297ERGO   ROH17095   5.234  16.313   6.158 -0.1570 -0.1200 -0.0077
 1297ERGO    R117096   5.250  16.420   6.419 -0.1029  0.0043 -0.0612
 1297ERGO    R217097   5.031  16.441   6.586 -0.0413 -0.0523  0.0280
 1297ERGO    R317098   5.190  16.302   6.758  0.1175  0.1156  0.0190
 1297ERGO    R417099   5.047  16.494   6.927 -0.0579 -0.0137  0.0225
 1297ERGO    R517100   5.263  16.466   6.917 -0.0282  0.2007  0.0005
 1297ERGO    C117101   5.205  16.395   7.287  0.0814  0.1661  0.0109
 1297ERGO    C217102   5.084  16.237   7.576  0.1139 -0.3980 -0.1493
 1298ERGO   ROH17103   6.073   2.107   6.115 -0.0324  0.0024 -0.0080
 1298ERGO    R117104   6.279   2.080   6.307  0.0143  0.1077 -0.0442
 1298ERGO    R217105   6.300   2.246   6.528 -0.1250  0.0190  0.0310
 1298ERGO    R317106   6.301   2.011   6.664  0.1216 -0.0482 -0.0787
 1298ERGO    R417107   6.396   2.209   6.858 -0.2665  0.0093  0.0723
 1298ERGO    R517108   6.495   2.023   6.803  0.0301  0.1655  0.0415
 1298ERGO    C117109   6.452   1.966   7.178 -0.1174 -0.0594 -0.0066
 1298ERGO    C217110   6.307   1.940   7.529  0.0250 -0.0076  0.3085
 1299ERGO   ROH17111   1.301  18.287   6.331 -0.1452 -0.0768 -0.2162
 1299ERGO    R117112   1.181  18.158   6.553 -0.2020 -0.0457 -0.2276
 1299ERGO    R217113   1.314  18.118   6.792 -0.1803 -0.2203 -0.2618
 1299ERGO    R317114   1.097  18.246   6.896 -0.0589 -0.0732 -0.1865
 1299ERGO    R417115   1.179  18.058   7.104 -0.1964 -0.2122 -0.2679
 1299ERGO    R517116   0.980  18.076   7.017 -0.1893 -0.0122 -0.2329
 1299ERGO    C117117   0.897  18.142   7.383 -0.0917 -0.0696 -0.2008
 1299ERGO    C217118   0.774  18.156   7.701 -0.2356 -0.1295 -0.2572
 1300ERGO   ROH17119  15.477   8.497   6.049  0.0875 -0.0690  0.0582
 1300ERGO    R117120  15.538   8.596   6.307  0.0092 -0.0633  0.0762
 1300ERGO    R217121  15.369   8.561   6.523 -0.0443 -0.0898  0.0393
 1300ERGO    R317122  15.591   8.455   6.638 -0.0569 -0.0637  0.0846
 1300ERGO    R417123  15.447   8.585   6.859  0.0597  0.1962 -0.0030
 1300ERGO    R517124  15.656   8.617   6.803  0.0514  0.0627 -0.0865
 1300ERGO    C117125  15.701   8.499   7.162  0.1085  0.3872  0.0148
 1300ERGO    C217126  15.786   8.592   7.510 -0.2582  0.0756  0.0553
 1301ERGO   ROH17127   6.349   6.016   6.202 -0.0490 -0.0772  0.1909
 1301ERGO    R117128   6.369   5.987   6.482  0.1200 -0.2268  0.1651
 1301ERGO    R217129   6.148   5.983   6.648  0.2323 -0.0047  0.3249
 1301ERGO    R317130   6.255   5.748   6.732 -0.0144 -0.1888  0.1415
 1301ERGO    R417131   6.085   5.836   6.954  0.2268 -0.0763  0.2896
 1301ERGO    R517132   6.296   5.781   6.965  0.1704 -0.3538  0.1369
 1301ERGO    C117133   6.150   5.529   7.212 -0.0080 -0.2908  0.0968
 1301ERGO    C217134   5.953   5.329   7.533 -0.1693 -0.0183  0.2971
 1302ERGO   ROH17135   8.485   7.306   6.176 -0.0292 -0.1165 -0.1109
 1302ERGO    R117136   8.346   7.417   6.397 -0.0404 -0.0170 -0.1699
 1302ERGO    R217137   8.117   7.304   6.502  0.0217 -0.0266 -0.0680
 1302ERGO    R317138   8.259   7.313   6.734  0.0386  0.1848 -0.0820
 1302ERGO    R417139   7.980   7.283   6.819  0.0733 -0.2991 -0.0601
 1302ERGO    R517140   8.120   7.436   6.884 -0.1691 -0.0597 -0.0545
 1302ERGO    C117141   8.034   7.279   7.221  0.1192 -0.2594 -0.0686
 1302ERGO    C217142   7.885   7.040   7.483 -0.0479  0.0003 -0.1645
 1303ERGO   ROH17143  10.810   0.506   5.958 -0.0616 -0.0945 -0.1508
 1303ERGO    R117144  10.793   0.551   6.236  0.1434 -0.0798 -0.1406
 1303ERGO    R217145  10.642   0.391   6.404  0.0446  0.0972 -0.0679
 1303ERGO    R317146  10.877   0.367   6.539  0.0909 -0.1854 -0.1878
 1303ERGO    R417147  10.670   0.303   6.737  0.0958  0.1478 -0.0573
 1303ERGO    R517148  10.828   0.452   6.758  0.3166 -0.0551 -0.1804
 1303ERGO    C117149  10.905   0.229   7.058  0.1690 -0.0880 -0.1637
 1303ERGO    C217150  11.086   0.229   7.453 -0.1391  0.1469  0.0335
 1304ERGO   ROH17151   7.725  11.951   5.626 -0.0313  0.0407 -0.0501
 1304ERGO    R117152   7.727  11.862   5.895 -0.0803 -0.0997 -0.0954
 1304ERGO    R217153   7.847  12.006   6.098  0.1636 -0.3589 -0.0500
 1304ERGO    R317154   7.602  11.984   6.214  0.1597 -0.0935 -0.0017
 1304ERGO    R417155   7.789  12.006   6.439  0.2075 -0.1117 -0.0401
 1304ERGO    R517156   7.640  11.850   6.409  0.0765 -0.0110  0.0725
 1304ERGO    C117157   7.525  11.985   6.746  0.2293  0.2815  0.0110
 1304ERGO    C217158   7.306  11.949   7.092 -0.0213 -0.1504 -0.0530
 1305ERGO   ROH17159  12.193  13.224   5.970 -0.1040  0.2898  0.0134
 1305ERGO    R117160  12.301  13.221   6.232 -0.1230  0.3360  0.0216
 1305ERGO    R217161  12.155  13.299   6.454 -0.2534  0.0539  0.0384
 1305ERGO    R317162  12.226  13.053   6.546  0.0737  0.1101 -0.0491
 1305ERGO    R417163  12.122  13.193   6.781 -0.2412 -0.1535 -0.0255
 1305ERGO    R517164  12.315  13.095   6.764 -0.0823  0.1413  0.0100
 1305ERGO    C117165  12.169  12.901   7.058  0.0731 -0.2218 -0.1449
 1305ERGO    C217166  12.024  12.801   7.341 -0.3128  0.1230 -0.3152
 1306ERGO   ROH17167  10.423  15.836   6.049  0.0127 -0.2002  0.1888
 1306ERGO    R117168  10.345  15.886   6.317 -0.0245 -0.0600  0.1527
 1306ERGO    R217169  10.492  16.048   6.487  0.0288 -0.0842  0.1320
 1306ERGO    R317170  10.254  16.177   6.516  0.0963  0.0649  0.0266
 1306ERGO    R417171  10.389  16.210   6.774 -0.0657 -0.1554  0.1386
 1306ERGO    R517172  10.188  16.131   6.741 -0.0971 -0.0010 -0.0430
 1306ERGO    C117173  10.106  16.425   6.969 -0.0573 -0.0567  0.0435
 1306ERGO    C217174  10.218  16.588   7.303  0.0195  0.0541  0.0865
 1307ERGO   ROH17175  15.597  12.328   6.371  0.2990  0.0694 -0.0222
 1307ERGO    R117176  15.608  12.160   6.598  0.2023 -0.0729 -0.1204
 1307ERGO    R217177  15.798  11.962   6.629  0.2997  0.0214 -0.0858
 1307ERGO    R317178  15.847  12.089   6.864  0.0175 -0.0969  0.0407
 1307ERGO    R417179  15.967  11.823   6.896  0.2892  0.0116 -0.0844
 1307ERGO    R517180  15.822  11.918   7.030  0.1036 -0.2454 -0.0999
 1307ERGO    C117181  16.111  11.861   7.273  0.0181 -0.1050  0.0351
 1307ERGO    C217182  16.350  11.653   7.299 -0.2279  0.4079 -0.1446
 1308ERGO   ROH17183  14.058   2.811   7.275 -0.1408  0.2128 -0.0724
 1308ERGO    R117184  14.008   2.796   7.553 -0.0995  0.0059 -0.0735
 1308ERGO    R217185  14.020   3.017   7.719  0.0702 -0.1372  0.1195
 1308ERGO    R317186  13.769   2.939   7.787  0.0325 -0.0391  0.0892
 1308ERGO    R417187  13.861   3.100   8.014  0.0914 -0.1507  0.1334
 1308ERGO    R517188  13.781   2.897   8.022 -0.0012 -0.1108  0.0739
 1308ERGO    C117189  13.532   3.075   8.249  0.0683 -0.0664  0.1130
 1308ERGO    C217190  13.260   3.319   8.375 -0.1742 -0.3056  0.0717
 1309ERGO   ROH17191  10.282  14.487   6.131  0.1571  0.0932  0.2127
 1309ERGO    R117192  10.265  14.362   6.385 -0.0510  0.0719  0.1901
 1309ERGO    R217193  10.343  14.488   6.618  0.0049 -0.0402  0.2342
 1309ERGO    R317194  10.091  14.423   6.699 -0.0894  0.2047  0.1431
 1309ERGO    R417195  10.218  14.537   6.937 -0.0309 -0.0136  0.2160
 1309ERGO    R517196  10.119  14.344   6.923 -0.2377  0.0979  0.1240
 1309ERGO    C117197   9.910  14.506   7.198 -0.1403  0.2318  0.1197
 1309ERGO    C217198   9.664  14.396   7.515 -0.0990  0.2120 -0.1658
 1310ERGO   ROH17199   4.171  12.416   6.038  0.0669 -0.1185 -0.0340
 1310ERGO    R117200   4.267  12.526   6.280  0.0773  0.1218 -0.1445
 1310ERGO    R217201   4.259  12.797   6.334 -0.2907  0.1373 -0.2506
 1310ERGO    R317202   4.126  12.716   6.557 -0.0141  0.0237 -0.1226
 1310ERGO    R417203   4.209  12.990   6.616 -0.2353  0.1142 -0.2245
 1310ERGO    R517204   4.248  12.814   6.738  0.0498  0.1626 -0.2392
 1310ERGO    C117205   4.056  13.027   6.990  0.0565 -0.0060 -0.0892
 1310ERGO    C217206   3.987  13.262   7.103 -0.0461 -0.1867  0.0083
 1311ERGO   ROH17207   5.251  12.163   6.204  0.1642 -0.0342  0.0381
 1311ERGO    R117208   5.312  12.303   6.443  0.0738  0.1315 -0.0331
 1311ERGO    R217209   5.178  12.532   6.519 -0.2332 -0.0315 -0.0407
 1311ERGO    R317210   5.137  12.393   6.748  0.0792 -0.0342  0.0172
 1311ERGO    R417211   5.098  12.673   6.824  0.0602 -0.0600  0.0517
 1311ERGO    R517212   5.232  12.530   6.920  0.2188  0.0000 -0.0943
 1311ERGO    C117213   5.012  12.624   7.217  0.5243 -0.0792  0.1600
 1311ERGO    C217214   4.760  12.576   7.537 -0.0105 -0.5181  0.2191
 1312ERGO   ROH17215  15.314   3.856   5.830 -0.1036 -0.2551  0.0605
 1312ERGO    R117216  15.455   3.712   6.029 -0.0293 -0.1563  0.0792
 1312ERGO    R217217  15.679   3.560   5.972  0.0064 -0.1019  0.0878
 1312ERGO    R317218  15.792   3.713   6.167 -0.0081 -0.0157  0.0299
 1312ERGO    R417219  15.956   3.471   6.159  0.1028  0.0532  0.0228
 1312ERGO    R517220  15.859   3.556   6.335  0.1117  0.0398  0.0381
 1312ERGO    C117221  16.222   3.562   6.451  0.1453  0.2244 -0.0694
 1312ERGO    C217222  16.577   3.423   6.489 -0.0542  0.2390 -0.3932
 1313ERGO   ROH17223   9.180   1.451   5.723  0.0825  0.0063 -0.0634
 1313ERGO    R117224   8.965   1.476   5.906 -0.0087  0.1067 -0.1840
 1313ERGO    R217225   8.898   1.278   6.085 -0.2610  0.0996 -0.2837
 1313ERGO    R317226   8.923   1.478   6.267 -0.2235  0.0259 -0.2067
 1313ERGO    R417227   8.760   1.275   6.402 -0.1866 -0.0350 -0.2514
 1313ERGO    R517228   8.710   1.486   6.377 -0.1987 -0.0249 -0.1529
 1313ERGO    C117229   8.703   1.462   6.757 -0.1081 -0.1826 -0.1602
 1313ERGO    C217230   8.885   1.187   6.958 -0.0136  0.1921  0.1140
 1314ERGO   ROH17231   5.114  10.416   5.895 -0.2616  0.2889  0.0498
 1314ERGO    R117232   5.009  10.429   6.158 -0.0131  0.2048  0.1564
 1314ERGO    R217233   4.845  10.233   6.262 -0.1942  0.3376  0.1223
 1314ERGO    R317234   5.030  10.229   6.461 -0.0191 -0.0958 -0.0371
 1314ERGO    R417235   4.791  10.106   6.579 -0.1716  0.3299  0.1231
 1314ERGO    R517236   4.905  10.274   6.660  0.2359  0.0869  0.0891
 1314ERGO    C117237   4.934  10.029   6.951  0.0060 -0.0815 -0.0260
 1314ERGO    C217238   4.907   9.968   7.372 -0.0655  0.0923 -0.2376
 1315ERGO   ROH17239  14.221  16.955   6.066  0.4624 -0.2003  0.2554
 1315ERGO    R117240  14.133  17.009   6.329  0.2100 -0.1505  0.1642
 1315ERGO    R217241  14.091  16.810   6.516  0.0628 -0.1137  0.1731
 1315ERGO    R317242  14.261  16.960   6.666 -0.0944 -0.0567  0.2968
 1315ERGO    R417243  14.141  16.769   6.855 -0.0005 -0.2470  0.1668
 1315ERGO    R517244  14.147  16.987   6.876 -0.1746 -0.2515  0.2800
 1315ERGO    C117245  14.331  16.886   7.194 -0.1849 -0.2711  0.2793
 1315ERGO    C217246  14.235  16.686   7.542  0.4368 -0.0079 -0.0236
 1316ERGO   ROH17247   4.230  11.947   6.167  0.2236  0.1100 -0.0971
 1316ERGO    R117248   4.103  12.082   6.381  0.2107  0.2266 -0.1779
 1316ERGO    R217249   4.129  12.000   6.644 -0.1824  0.0844 -0.1818
 1316ERGO    R317250   4.208  12.257   6.682  0.1787 -0.0456 -0.0028
 1316ERGO    R417251   4.141  12.160   6.950 -0.4465 -0.0050 -0.1218
 1316ERGO    R517252   4.063  12.339   6.854  0.0059  0.1518 -0.2305
 1316ERGO    C117253   4.222  12.494   7.164 -0.2613 -0.1791  0.0812
 1316ERGO    C217254   4.306  12.667   7.443  0.0337  0.2520 -0.0856
 1317ERGO   ROH17255  15.341  12.683   6.214  0.0588 -0.0466 -0.1549
 1317ERGO    R117256  15.354  12.779   6.480  0.1600 -0.0375 -0.1624
 1317ERGO    R217257  15.245  13.021   6.556  0.2497  0.0007 -0.1423
 1317ERGO    R317258  15.117  12.868   6.741  0.2562  0.0430 -0.1033
 1317ERGO    R417259  15.130  13.134   6.862  0.1455  0.0926 -0.2154
 1317ERGO    R517260  15.198  12.948   6.951  0.1815  0.1559 -0.1202
 1317ERGO    C117261  14.942  13.057   7.213  0.0908  0.1859 -0.2214
 1317ERGO    C217262  14.808  13.114   7.538  0.1887  0.0624  0.2162
 1318ERGO   ROH17263  12.157   7.127   6.180 -0.1688 -0.2894  0.0472
 1318ERGO    R117264  12.193   7.336   6.367 -0.0947 -0.1713 -0.0980
 1318ERGO    R217265  11.984   7.495   6.456 -0.0493 -0.0813 -0.1554
 1318ERGO    R317266  12.072   7.417   6.701 -0.0074  0.0684 -0.1216
 1318ERGO    R417267  11.874   7.625   6.756 -0.2000 -0.0840 -0.2088
 1318ERGO    R517268  12.079   7.619   6.829 -0.1992  0.1171 -0.1824
 1318ERGO    C117269  11.892   7.628   7.161 -0.2485  0.0550 -0.2081
 1318ERGO    C217270  11.930   7.659   7.474  0.2981 -0.1585 -0.0781
 1319ERGO   ROH17271   3.205   6.872   6.163 -0.0080 -0.0092  0.1169
 1319ERGO    R117272   3.322   6.847   6.420  0.0396 -0.2175  0.0785
 1319ERGO    R217273   3.273   7.028   6.625  0.4821 -0.0818  0.0838
 1319ERGO    R317274   3.202   6.804   6.761  0.0666  0.0691  0.1242
 1319ERGO    R417275   3.249   7.005   6.968  0.5440 -0.0125  0.0916
 1319ERGO    R517276   3.339   6.808   6.957  0.1364 -0.1992  0.0778
 1319ERGO    C117277   3.167   6.782   7.297  0.1900  0.1695  0.1341
 1319ERGO    C217278   3.064   6.693   7.572 -0.2634  0.0768 -0.0823
 1320ERGO   ROH17279  16.697   6.529   6.164 -0.1219 -0.2633  0.0558
 1320ERGO    R117280  16.865   6.509   6.392 -0.0279 -0.1265 -0.0009
 1320ERGO    R217281  17.009   6.724   6.489 -0.1015 -0.0312 -0.1035
 1320ERGO    R317282  16.882   6.662   6.721  0.0166 -0.0433 -0.0409
 1320ERGO    R417283  17.122   6.808   6.805  0.1657 -0.2185 -0.1455
 1320ERGO    R517284  17.059   6.611   6.874  0.0934 -0.2096 -0.1789
 1320ERGO    C117285  17.069   6.798   7.206  0.4322 -0.3389 -0.1111
 1320ERGO    C217286  17.086   6.760   7.489  0.1681  0.1364  0.2937
 1321ERGO   ROH17287  15.862   1.458   5.874 -0.1470  0.0776  0.0439
 1321ERGO    R117288  16.079   1.434   6.054 -0.0958 -0.1225 -0.0435
 1321ERGO    R217289  16.111   1.601   6.272  0.1549 -0.1408 -0.0706
 1321ERGO    R317290  16.122   1.367   6.409 -0.0124 -0.1423 -0.0554
 1321ERGO    R417291  16.167   1.574   6.612  0.1574 -0.1492 -0.0707
 1321ERGO    R517292  16.294   1.401   6.572  0.0297 -0.2533 -0.0686
 1321ERGO    C117293  16.209   1.338   6.939  0.0017 -0.1555 -0.0566
 1321ERGO    C217294  15.939   1.324   7.194 -0.1493 -0.0736 -0.0382
 1322ERGO   ROH17295   9.823  10.451   6.249  0.1312  0.0725 -0.0011
 1322ERGO    R117296   9.710  10.518   6.500  0.2049  0.0877  0.0278
 1322ERGO    R217297   9.689  10.336   6.707  0.0297  0.0271 -0.0451
 1322ERGO    R317298   9.822  10.528   6.846  0.2255 -0.1590  0.0309
 1322ERGO    R417299   9.689  10.366   7.051 -0.1205  0.0134 -0.0428
 1322ERGO    R517300   9.676  10.582   7.028  0.1948  0.0408 -0.0479
 1322ERGO    C117301   9.814  10.563   7.383 -0.0242 -0.1691  0.0298
 1322ERGO    C217302   9.788  10.559   7.655  0.0932  0.3076  0.0766
 1323ERGO   ROH17303  18.649  10.431   6.020 -0.2242  0.0847  0.2090
 1323ERGO    R117304  18.844  10.314   6.189 -0.1154  0.0149  0.0373
 1323ERGO    R217305  18.784  10.212   6.438  0.0688  0.0415  0.0960
 1323ERGO    R317306  18.902   9.988   6.340 -0.1025 -0.0042 -0.0098
 1323ERGO    R417307  18.861   9.931   6.624  0.2204  0.0502  0.0476
 1323ERGO    R517308  19.049   9.916   6.515  0.0881 -0.0143 -0.1723
 1323ERGO    C117309  19.017   9.557   6.640  0.1479  0.0124 -0.0800
 1323ERGO    C217310  18.873   9.292   6.868  0.1363 -0.1682  0.1370
 1324ERGO   ROH17311  17.744  10.326   6.409 -0.1806  0.2082 -0.0549
 1324ERGO    R117312  17.611  10.143   6.580 -0.2621  0.1257 -0.2064
 1324ERGO    R217313  17.615  10.166   6.855 -0.0030 -0.2685 -0.1741
 1324ERGO    R317314  17.345  10.158   6.827 -0.0428  0.1007  0.0366
 1324ERGO    R417315  17.395  10.040   7.090  0.0546 -0.3822 -0.1798
 1324ERGO    R517316  17.280   9.951   6.928 -0.1957  0.0064 -0.2352
 1324ERGO    C117317  17.014   9.959   7.201  0.0506 -0.1018  0.0147
 1324ERGO    C217318  16.945   9.912   7.573  0.1201  0.1042  0.0956
 1325ERGO   ROH17319   5.421  12.617   6.107  0.1165  0.3245 -0.0582
 1325ERGO    R117320   5.568  12.721   6.325  0.1526  0.2184 -0.0318
 1325ERGO    R217321   5.462  12.903   6.504  0.2220  0.2231  0.0022
 1325ERGO    R317322   5.541  12.719   6.688  0.1427  0.1538 -0.0321
 1325ERGO    R417323   5.467  12.955   6.845  0.5374  0.2741 -0.0071
 1325ERGO    R517324   5.656  12.847   6.854  0.4219  0.0478 -0.1350
 1325ERGO    C117325   5.544  12.813   7.217  0.6466  0.2388 -0.0448
 1325ERGO    C217326   5.557  12.917   7.556 -0.1979  0.4024  0.1908
 1326ERGO   ROH17327   8.623  12.566   5.746 -0.0657  0.1097 -0.0321
 1326ERGO    R117328   8.727  12.520   6.006 -0.0031  0.0927 -0.0598
 1326ERGO    R217329   8.605  12.618   6.234 -0.0088 -0.0151 -0.0167
 1326ERGO    R317330   8.613  12.358   6.311  0.1181 -0.0304 -0.0789
 1326ERGO    R417331   8.577  12.508   6.560  0.2319 -0.0939 -0.0208
 1326ERGO    R517332   8.733  12.361   6.518  0.2510 -0.0398 -0.1530
 1326ERGO    C117333   8.569  12.199   6.822  0.4913 -0.1542 -0.0816
 1326ERGO    C217334   8.568  12.200   7.191  0.0055 -0.1726  0.0448
 1327ERGO   ROH17335  16.918  16.642   5.975  0.0805 -0.0887 -0.1188
 1327ERGO    R117336  16.921  16.772   6.226 -0.0743 -0.0639 -0.1288
 1327ERGO    R217337  16.694  16.807   6.378 -0.1166 -0.3362 -0.1262
 1327ERGO    R317338  16.842  16.684   6.570  0.0442 -0.1380 -0.1195
 1327ERGO    R417339  16.584  16.741   6.700  0.0360 -0.2874 -0.0630
 1327ERGO    R517340  16.782  16.797   6.773  0.0175 -0.0978 -0.1483
 1327ERGO    C117341  16.660  16.587   7.067  0.2760 -0.0733 -0.0199
 1327ERGO    C217342  16.664  16.322   7.139  0.3486 -0.1799  0.0612
 1328ERGO   ROH17343  18.355  12.840   6.218  0.2045  0.0352 -0.0776
 1328ERGO    R117344  18.332  13.064   6.390  0.0592  0.0458 -0.1079
 1328ERGO    R217345  18.186  13.058   6.625 -0.0268  0.0174 -0.1574
 1328ERGO    R317346  18.420  13.143   6.734 -0.0958  0.1110 -0.0837
 1328ERGO    R417347  18.241  13.107   6.962 -0.1379  0.0162 -0.1396
 1328ERGO    R517348  18.353  13.286   6.914 -0.2046  0.0662 -0.0917
 1328ERGO    C117349  18.492  13.215   7.262 -0.2673  0.1034 -0.0602
 1328ERGO    C217350  18.773  13.165   7.598  0.0699  0.4968 -0.1219
 1329ERGO   ROH17351   7.682   5.389   6.279 -0.0409 -0.1243 -0.0235
 1329ERGO    R117352   7.834   5.274   6.488 -0.0978 -0.2022 -0.0221
 1329ERGO    R217353   7.972   5.426   6.673  0.1842 -0.2658 -0.1608
 1329ERGO    R317354   7.829   5.279   6.852  0.0577  0.0194 -0.0239
 1329ERGO    R417355   8.087   5.328   6.983  0.2370 -0.4141 -0.2280
 1329ERGO    R517356   7.992   5.134   6.952 -0.1284 -0.2499 -0.1174
 1329ERGO    C117357   8.021   5.133   7.332  0.1489 -0.2327 -0.1387
 1329ERGO    C217358   7.794   5.136   7.687  0.1055  0.0591  0.0060
 1330ERGO   ROH17359   2.548   7.700   6.097 -0.1237  0.2206 -0.0881
 1330ERGO    R117360   2.539   7.699   6.380 -0.1847  0.1157 -0.0896
 1330ERGO    R217361   2.755   7.771   6.536 -0.1610 -0.1096 -0.0126
 1330ERGO    R317362   2.577   7.944   6.646 -0.0544 -0.0166  0.0142
 1330ERGO    R417363   2.741   7.853   6.871 -0.0015 -0.0166 -0.0279
 1330ERGO    R517364   2.524   7.847   6.859 -0.0072  0.0592  0.0597
 1330ERGO    C117365   2.566   8.063   7.170  0.1915  0.1247 -0.0117
 1330ERGO    C217366   2.504   8.220   7.343 -0.2210  0.0512  0.2173
 1331ERGO   ROH17367  11.761   0.870   6.264 -0.3305  0.2576 -0.0891
 1331ERGO    R117368  11.671   1.002   6.498 -0.1897  0.2589 -0.0350
 1331ERGO    R217369  11.707   0.897   6.751 -0.1757  0.1852 -0.0678
 1331ERGO    R317370  11.823   1.138   6.800 -0.0264  0.1106 -0.0488
 1331ERGO    R417371  11.779   1.020   7.065 -0.1486  0.1403 -0.0561
 1331ERGO    R517372  11.714   1.217   6.998 -0.0087  0.1835 -0.0682
 1331ERGO    C117373  11.931   1.318   7.295  0.0074  0.0441 -0.0315
 1331ERGO    C217374  12.130   1.529   7.529  0.1602  0.0184  0.1469
 1332ERGO   ROH17375   9.619   0.241   8.833 -0.0231 -0.0834 -0.0758
 1332ERGO    R117376   9.590   0.429   8.624  0.0285 -0.0803 -0.0814
 1332ERGO    R217377   9.682   0.381   8.368 -0.0265 -0.1321 -0.0956
 1332ERGO    R317378   9.425   0.441   8.300 -0.0117 -0.0275 -0.0579
 1332ERGO    R417379   9.551   0.353   8.049 -0.0573  0.0431 -0.0985
 1332ERGO    R517380   9.443   0.540   8.082  0.0016  0.0578 -0.0147
 1332ERGO    C117381   9.234   0.393   7.800 -0.0614  0.2433 -0.0649
 1332ERGO    C217382   9.157   0.396   7.452 -0.1216 -0.2021  0.0745
 1333ERGO   ROH17383  12.353   2.953   6.255 -0.1700 -0.1482  0.0395
 1333ERGO    R117384  12.330   3.078   6.508 -0.1019 -0.1121  0.0281
 1333ERGO    R217385  12.087   3.151   6.616 -0.0739 -0.1018  0.0861
 1333ERGO    R317386  12.172   3.003   6.827 -0.0111 -0.0697  0.0833
 1333ERGO    R417387  11.968   3.181   6.939 -0.0626 -0.1372  0.0936
 1333ERGO    R517388  12.172   3.156   7.011 -0.0503 -0.0676  0.0808
 1333ERGO    C117389  11.979   3.059   7.326  0.0030 -0.1277  0.0953
 1333ERGO    C217390  12.018   2.986   7.709  0.2653 -0.0028  0.2020
 1334ERGO   ROH17391  10.747  16.967   5.839 -0.2979 -0.0387  0.1327
 1334ERGO    R117392  10.788  16.887   6.108 -0.1855  0.0312  0.1373
 1334ERGO    R217393  10.992  16.715   6.183 -0.1483  0.0562  0.0986
 1334ERGO    R317394  11.054  16.916   6.354 -0.0848  0.1035  0.0207
 1334ERGO    R417395  11.159  16.675   6.483 -0.2656  0.1074  0.1711
 1334ERGO    R517396  11.024  16.821   6.572 -0.2077  0.2284  0.0581
 1334ERGO    C117397  11.314  16.841   6.819 -0.2742  0.1817  0.1402
 1334ERGO    C217398  11.608  16.945   7.060  0.1290  0.0823 -0.0829
 1335ERGO   ROH17399   1.432  13.640   6.035  0.0924 -0.0702 -0.1659
 1335ERGO    R117400   1.659  13.713   6.189  0.0376 -0.0828 -0.0789
 1335ERGO    R217401   1.704  13.972   6.274  0.0359 -0.0801 -0.0904
 1335ERGO    R317402   1.720  13.854   6.518 -0.0812 -0.0532 -0.0688
 1335ERGO    R417403   1.819  14.125   6.562  0.2037 -0.1451 -0.1211
 1335ERGO    R517404   1.921  13.941   6.614  0.0140 -0.2439 -0.0901
 1335ERGO    C117405   1.901  14.104   6.958  0.1915 -0.1577 -0.1187
 1335ERGO    C217406   2.193  14.144   7.195 -0.1352 -0.1269  0.5308
 1336ERGO   ROH17407  17.260   5.172   6.176 -0.0195 -0.0620 -0.0039
 1336ERGO    R117408  17.297   5.045   6.426 -0.0014  0.2280  0.1433
 1336ERGO    R217409  17.443   4.811   6.454 -0.4402 -0.0277  0.3111
 1336ERGO    R317410  17.579   4.957   6.638  0.0664 -0.0266 -0.0426
 1336ERGO    R417411  17.573   4.686   6.749 -0.5181  0.1385  0.4193
 1336ERGO    R517412  17.509   4.868   6.849 -0.0031  0.4894  0.1749
 1336ERGO    C117413  17.776   4.749   7.093 -0.0880  0.2362  0.1502
 1336ERGO    C217414  17.934   4.559   7.227 -0.0700 -0.1498  0.2008
 1337ERGO   ROH17415  15.215  17.404   6.209  0.0457 -0.0280  0.1970
 1337ERGO    R117416  15.169  17.630   6.373  0.2163  0.0319  0.1654
 1337ERGO    R217417  14.971  17.636   6.566  0.0643  0.2885  0.0119
 1337ERGO    R317418  15.178  17.705   6.729  0.0337  0.0057  0.1761
 1337ERGO    R417419  14.939  17.811   6.863  0.0660  0.2996  0.0049
 1337ERGO    R517420  15.119  17.923   6.811  0.2520  0.0748  0.1524
 1337ERGO    C117421  15.114  17.977   7.188  0.0382  0.0405  0.1550
 1337ERGO    C217422  14.991  18.051   7.558 -0.1777  0.1902 -0.1543
 1338ERGO   ROH17423   5.716  14.267   6.231  0.1602 -0.2976 -0.0015
 1338ERGO    R117424   5.800  14.222   6.497  0.0676 -0.2012  0.0438
 1338ERGO    R217425   5.875  14.427   6.667  0.0995 -0.1485 -0.0382
 1338ERGO    R317426   5.687  14.317   6.830  0.0114  0.0043 -0.0320
 1338ERGO    R417427   5.866  14.463   7.011  0.0918 -0.0802 -0.0441
 1338ERGO    R517428   5.809  14.253   7.026 -0.0476 -0.0411 -0.0092
 1338ERGO    C117429   5.686  14.380   7.364  0.0046  0.1029 -0.0417
 1338ERGO    C217430   5.815  14.354   7.640  0.5547  0.1376  0.1125
 1339ERGO   ROH17431  14.569   9.624   5.633 -0.0142 -0.1613 -0.2006
 1339ERGO    R117432  14.715   9.549   5.863 -0.0894 -0.1075 -0.1351
 1339ERGO    R217433  14.641   9.627   6.118 -0.1335  0.0100 -0.1835
 1339ERGO    R317434  14.650   9.359   6.167 -0.2106  0.0262 -0.0764
 1339ERGO    R417435  14.689   9.484   6.429  0.0042  0.1225 -0.1520
 1339ERGO    R517436  14.818   9.335   6.336 -0.1135  0.0309 -0.1712
 1339ERGO    C117437  14.725   9.150   6.656  0.0120  0.2032 -0.0332
 1339ERGO    C217438  14.789   9.109   6.998 -0.1085  0.1845 -0.0496
 1340ERGO   ROH17439   5.252   2.334   5.958 -0.2431 -0.0297 -0.0345
 1340ERGO    R117440   5.060   2.288   6.161 -0.3794 -0.1483 -0.1870
 1340ERGO    R217441   4.845   2.118   6.127 -0.1214 -0.4667 -0.2829
 1340ERGO    R317442   4.942   2.003   6.354 -0.1758 -0.1809 -0.1088
 1340ERGO    R417443   4.667   1.903   6.331 -0.0206 -0.5783 -0.3109
 1340ERGO    R517444   4.756   2.002   6.504 -0.3225 -0.3356 -0.2878
 1340ERGO    C117445   4.654   1.670   6.662 -0.0130 -0.3749 -0.1637
 1340ERGO    C217446   4.561   1.539   6.865 -0.1310  0.1894  0.0543
 1341ERGO   ROH17447   0.383   4.081   6.316  0.0975 -0.0399 -0.1065
 1341ERGO    R117448   0.413   4.075   6.598  0.1087  0.0533 -0.1056
 1341ERGO    R217449   0.231   3.951   6.764  0.1220  0.0981 -0.0582
 1341ERGO    R317450   0.452   3.820   6.854  0.1320  0.1390 -0.0232
 1341ERGO    R417451   0.278   3.847   7.090  0.0079 -0.0566 -0.0900
 1341ERGO    R517452   0.486   3.909   7.074 -0.0088  0.0369  0.0421
 1341ERGO    C117453   0.512   3.663   7.365 -0.0492 -0.1084 -0.0758
 1341ERGO    C217454   0.262   3.625   7.680 -0.0437  0.0775  0.1689
 1342ERGO   ROH17455   6.683  11.676   6.031  0.1072  0.1846  0.0248
 1342ERGO    R117456   6.803  11.781   6.265 -0.0180  0.0857  0.1362
 1342ERGO    R217457   6.678  11.968   6.425 -0.0477  0.1287  0.0702
 1342ERGO    R317458   6.729  11.787   6.621 -0.2954  0.0665  0.0795
 1342ERGO    R417459   6.706  12.044   6.761  0.0970  0.1066  0.0633
 1342ERGO    R517460   6.873  11.903   6.773 -0.1091 -0.1369  0.0584
 1342ERGO    C117461   6.771  11.918   7.141 -0.0512  0.0353  0.0679
 1342ERGO    C217462   6.887  12.053   7.493  0.1953 -0.0133  0.1480
 1343ERGO   ROH17463  13.361   3.932   6.264 -0.1027 -0.1470 -0.0419
 1343ERGO    R117464  13.509   3.918   6.505 -0.0098 -0.1691 -0.1002
 1343ERGO    R217465  13.405   3.995   6.748  0.1069 -0.1263 -0.0650
 1343ERGO    R317466  13.480   3.745   6.824  0.0740 -0.1413 -0.0761
 1343ERGO    R417467  13.414   3.882   7.075 -0.2101 -0.2386 -0.0919
 1343ERGO    R517468  13.600   3.779   7.029 -0.1404 -0.1900  0.0623
 1343ERGO    C117469  13.490   3.581   7.336 -0.4256 -0.3181 -0.1178
 1343ERGO    C217470  13.705   3.531   7.603  0.0605  0.0980 -0.1172
 1344ERGO   ROH17471  11.558   8.138   7.785  0.0317  0.1154  0.1888
 1344ERGO    R117472  11.391   8.306   7.631  0.0981  0.0204 -0.0016
 1344ERGO    R217473  11.120   8.260   7.600  0.0676  0.0212 -0.0676
 1344ERGO    R317474  11.100   8.516   7.690  0.1039  0.0779 -0.2375
 1344ERGO    R417475  10.824   8.433   7.638  0.0784 -0.0597  0.4009
 1344ERGO    R517476  10.923   8.611   7.560 -0.1873 -0.0986  0.0701
 1344ERGO    C117477  10.632   8.774   7.744  0.1187 -0.0536  0.5142
 1344ERGO    C217478  10.360   8.922   8.031 -0.0575  0.0570 -0.0831
 1345W        W17479  18.667   1.698   4.871 -0.0159  0.0913  0.2218
 1346W        W17480   3.523  15.759  14.757  0.0666 -0.0751  0.1402
 1347W        W17481  13.233   4.465  12.856  0.0490  0.2254 -0.2064
 1348W        W17482  11.627  12.711   0.386  0.1702 -0.2597 -0.1713
 1349W        W17483   8.260   9.791   5.389 -0.2741  0.3996  0.1107
 1350W        W17484  14.303   0.829   3.658  0.0759 -0.0573  0.0262
 1351W        W17485  12.371  14.110   2.734 -0.3113  0.0814  0.2839
 1352W        W17486  14.825   0.800   5.434  0.1302  0.0605 -0.0600
 1353W        W17487  17.613  15.931  14.913 -0.1363 -0.0450  0.2023
 1354W        W17488  16.797   7.747   0.193  0.3506  0.1507 -0.1258
 1355W        W17489  10.125   7.894   2.581  0.2541 -0.2654 -0.0833
 1356W        W17490  14.485   6.666  15.470 -0.2294 -0.2030 -0.0740
 1357W        W17491   1.128   9.788  11.942  0.0706 -0.1337 -0.0201
 1358W        W17492   5.368   7.795  12.591 -0.0320  0.0954  0.3307
 1359W        W17493   9.316  14.448   3.257 -0.2512  0.2041  0.1046
 1360W        W17494   7.714  11.701   1.267  0.3634  0.1661 -0.0269
 1361W        W17495   5.700  14.786   1.749  0.0603  0.2280  0.0147
 1362W        W17496  16.898   3.305  14.118  0.2109 -0.0462  0.2409
 1363W        W17497   9.818  18.482   4.240 -0.2713  0.2161 -0.0355
 1364W        W17498   7.254  18.133  10.318  0.1956 -0.3087  0.1501
 1365W        W17499   8.720   0.697   2.440  0.0877  0.4441  0.2311
 1366W        W17500  11.897  17.843   4.096  0.0530 -0.0065  0.2915
 1367W        W17501  14.705  17.218  13.757  0.1185  0.2631 -0.1904
 1368W        W17502   3.869   6.999  10.071 -0.1162 -0.1002  0.2387
 1369W        W17503  10.253   1.126  11.770 -0.0464 -0.3111  0.1321
 1370W        W17504   7.985   7.160   0.544  0.0676 -0.0756 -0.1519
 1371W        W17505   2.221   9.173  15.409  0.2540 -0.0456  0.2003
 1372W        W17506  10.076   1.776   0.949 -0.0502  0.1052 -0.0380
 1373W        W17507   2.367  12.190  11.599  0.1856 -0.3241 -0.0381
 1374W        W17508  13.569   7.324   4.364  0.0957  0.3629  0.0033
 1375W        W17509   9.135   3.837   1.578  0.2782 -0.2266 -0.2026
 1376W        W17510   2.278  14.770   4.248  0.1599 -0.0337 -0.2601
 1377W        W17511  17.667  17.643  12.686 -0.0392  0.0627  0.0250
 1378W        W17512   6.474  14.509   3.642  0.0761 -0.0549 -0.0853
 1379W        W17513  16.221   0.291  13.706 -0.1779  0.1144  0.0531
 1380W        W17514   9.148  18.203  15.514 -0.0890 -0.2542  0.2543
 1381W        W17515   4.747  10.984   1.078  0.0505 -0.1257  0.3090
 1382W        W17516  10.726   4.213   1.911  0.1017 -0.1886 -0.1321
 1383W        W17517   3.850  16.350  11.594  0.3259 -0.0252 -0.0659
 1384W        W17518  15.463   6.971  11.297 -0.1709 -0.1443  0.1327
 1385W        W17519   5.695  12.108   1.435  0.1235 -0.0277  0.2436
 1386W        W17520   0.656  17.963   2.341  0.1270  0.0850 -0.0558
 1387W        W17521   6.904   8.727   3.337  0.0363  0.2173  0.0914
 1388W        W17522   5.552  12.232  12.860 -0.0586  0.2910  0.1249
 1389W        W17523  13.543   9.637   4.475 -0.0625  0.0890  0.2936
 1390W        W17524   4.274  12.412   2.737 -0.0618  0.2780  0.3777
 1391W        W17525  11.307  13.780  11.243  0.1490 -0.0735 -0.0940
 1392W        W17526  12.635  14.110   3.165 -0.2812  0.2706 -0.0744
 1393W        W17527  12.195   6.893  12.961  0.1579  0.0220  0.2460
 1394W        W17528   9.457   3.118  13.470 -0.0661  0.1741 -0.1126
 1395W        W17529  14.397  17.894  15.077  0.0097  0.0478 -0.0228
 1396W        W17530  11.833   4.884  13.058 -0.0819  0.0265 -0.2627
 1397W        W17531  15.661  17.966  12.970 -0.0482 -0.0966  0.1490
 1398W        W17532  18.619   2.966   1.733  0.1888  0.3642  0.1255
 1399W        W17533   2.520  17.515   0.368 -0.2790 -0.0578 -0.2427
 1400W        W17534   1.194   2.107  12.149 -0.1326 -0.1482  0.1442
 1401W        W17535  13.362   1.839   0.359 -0.1292 -0.0264 -0.4082
 1402W        W17536  11.103  13.324  14.992 -0.0324 -0.0142  0.2560
 1403W        W17537   5.842  10.124  14.222  0.2533  0.2264  0.3429
 1404W        W17538   2.436  15.027   3.788  0.2137  0.0561  0.1583
 1405W        W17539  16.976  13.078   5.762  0.2063  0.2605  0.0952
 1406W        W17540   3.453   4.069  14.574  0.3455 -0.1069 -0.1297
 1407W        W17541   3.163  18.020  11.507 -0.0024 -0.2720 -0.0762
 1408W        W17542   6.550   6.570  15.526  0.1751 -0.0087 -0.2452
 1409W        W17543  12.241  16.356  11.966  0.0584 -0.0072  0.2896
 1410W        W17544  12.507   4.547  13.607 -0.1882  0.1051 -0.1964
 1411W        W17545   9.694  11.396   3.494 -0.2212 -0.0105  0.1789
 1412W        W17546  15.731   5.839   3.698 -0.0190  0.1765  0.1591
 1413W        W17547  16.612  13.837  14.033 -0.2858 -0.0629 -0.2537
 1414W        W17548   8.026   8.218  14.148  0.0124  0.0862 -0.1301
 1415W        W17549   8.284  18.493  12.834 -0.0947  0.0897 -0.0446
 1416W        W17550  10.555  11.978  15.349  0.0891  0.1579  0.0310
 1417W        W17551   0.309  16.050   1.418  0.0018  0.2136 -0.1631
 1418W        W17552   6.077  12.299   1.175 -0.3379  0.0493 -0.0323
 1419W        W17553  10.119   2.315   0.827  0.1050 -0.0932 -0.0459
 1420W        W17554   0.037   2.218  13.923 -0.0991 -0.1649 -0.3868
 1421W        W17555  15.107   8.690   4.425 -0.2618  0.2443 -0.0303
 1422W        W17556   7.086   4.570   4.149  0.1699  0.2200 -0.3095
 1423W        W17557   1.129  11.857   0.241  0.1513  0.1676 -0.0198
 1424W        W17558   8.100  16.812   2.672 -0.1453 -0.1272  0.0871
 1425W        W17559  12.292  18.467  10.641  0.2134  0.0866  0.3617
 1426W        W17560  14.103   6.850  12.198 -0.2509 -0.1589  0.2795
 1427W        W17561  18.554  11.209   1.479  0.2167  0.0500 -0.2342
 1428W        W17562  18.340   0.051   1.398 -0.1388 -0.0649 -0.2817
 1429W        W17563  14.592   6.128   0.669  0.0421 -0.0259 -0.0322
 1430W        W17564   2.247  16.452   2.123 -0.1408  0.0763 -0.3613
 1431W        W17565  17.770   0.860   3.132 -0.0285 -0.0243 -0.1055
 1432W        W17566  13.316   9.077  14.127  0.1561 -0.2543 -0.0178
 1433W        W17567   3.697  16.346  14.261  0.1083 -0.0315 -0.2039
 1434W        W17568   8.960  11.170   4.416  0.1153  0.0828  0.1592
 1435W        W17569   5.083  16.275  10.629  0.0753 -0.0996  0.1442
 1436W        W17570  11.294   7.050   1.432 -0.0100  0.0688 -0.3311
 1437W        W17571  13.223  17.021   4.177  0.3140  0.0571 -0.2057
 1438W        W17572   4.810  17.376  10.668  0.3501  0.1149  0.1102
 1439W        W17573   7.434   7.320  15.281  0.0072  0.0375  0.3121
 1440W        W17574  11.891   9.435   5.430 -0.1381 -0.1635  0.1553
 1441W        W17575  10.015  13.436  13.290 -0.0181 -0.1965  0.0710
 1442W        W17576   9.719   6.675  13.208 -0.1392  0.2878 -0.0285
 1443W        W17577   8.715  10.784   2.830 -0.2429 -0.1978  0.1207
 1444W        W17578   9.960   0.854  11.986  0.1363 -0.0445 -0.0193
 1445W        W17579   4.425   4.327  12.884  0.0752 -0.0090 -0.1923
 1446W        W17580   6.888   3.299  14.807 -0.3833  0.4434  0.0415
 1447W        W17581   0.263   4.331  11.697  0.0195 -0.0822 -0.1112
 1448W        W17582  10.946   5.316   3.269  0.2001 -0.1028  0.0089
 1449W        W17583   2.305  17.646  11.264  0.0818 -0.2225  0.0939
 1450W        W17584  13.728   6.023   0.694  0.1201 -0.1469 -0.1418
 1451W        W17585   2.984  12.984   4.600  0.0782 -0.1059  0.1411
 1452W        W17586   8.196  10.329   3.371  0.1069 -0.1007  0.2254
 1453W        W17587  13.446   3.453  13.251 -0.2564  0.0427 -0.0001
 1454W        W17588   7.401   1.241  12.579  0.1395 -0.0235  0.2260
 1455W        W17589  16.289   7.420  11.410  0.2620 -0.0826  0.1122
 1456W        W17590  10.931   3.783  14.045 -0.2218  0.1007  0.1283
 1457W        W17591   0.349   2.252  11.491 -0.1130  0.0574  0.2295
 1458W        W17592  14.424  13.400   0.635 -0.0957 -0.1309  0.2333
 1459W        W17593  18.017   9.773  13.646 -0.1810  0.1340  0.0208
 1460W        W17594  10.339  14.253  13.877 -0.0382 -0.1310  0.0779
 1461W        W17595  15.488  13.881   1.927 -0.3106  0.5919  0.2486
 1462W        W17596  11.150   0.404   4.505 -0.1869  0.0722  0.0413
 1463W        W17597  16.046  14.127   4.804 -0.1971  0.1524 -0.1004
 1464W        W17598  14.759   8.833  12.916  0.1869  0.0277  0.2853
 1465W        W17599   2.958  16.425   1.583  0.0973  0.1273  0.1937
 1466W        W17600  16.495   6.832  14.949 -0.1170  0.0726  0.0493
 1467W        W17601  17.532  13.594  14.197  0.2126  0.1913 -0.0443
 1468W        W17602  14.334  12.064   0.175 -0.1627 -0.0341 -0.1081
 1469W        W17603   9.165   5.193   2.331 -0.2600  0.1009  0.0801
 1470W        W17604   8.231  11.731   2.694  0.0040  0.1538  0.0784
 1471W        W17605   8.481  16.498   4.893  0.2665  0.0200  0.1550
 1472W        W17606  16.366  10.597   3.435  0.2572  0.0890 -0.1717
 1473W        W17607  12.451  10.283   2.160 -0.0773  0.0646  0.1584
 1474W        W17608  12.011   9.777   5.094 -0.0050  0.3439  0.1047
 1475W        W17609   3.847  12.081  11.712  0.3351  0.1747 -0.2796
 1476W        W17610  17.199   1.084  12.477  0.0901 -0.1689 -0.2655
 1477W        W17611  16.403   5.525   2.279  0.4922  0.1117  0.2177
 1478W        W17612  10.236   5.367  13.237  0.1500 -0.2104 -0.1833
 1479W        W17613   3.337   3.185  12.435  0.0667 -0.1756 -0.0359
 1480W        W17614   2.066   3.925  13.076  0.0122 -0.2963 -0.1288
 1481W        W17615   3.442  11.975  10.658  0.4279  0.2371 -0.0534
 1482W        W17616  10.877  13.071   0.453  0.2229 -0.3105  0.2557
 1483W        W17617  16.809   8.505   2.473 -0.1936  0.5898  0.3838
 1484W        W17618  18.688   3.645   3.786 -0.3908  0.1579  0.0230
 1485W        W17619  10.455  14.438  10.973  0.1515 -0.1053  0.1203
 1486W        W17620   4.306   2.272  13.987  0.2038  0.1334 -0.1148
 1487W        W17621   4.818   8.384  14.169 -0.0123 -0.2364 -0.0379
 1488W        W17622   1.899   1.731  10.851  0.2413 -0.0389  0.2323
 1489W        W17623  12.863   9.319   0.727 -0.2564  0.0001  0.1997
 1490W        W17624  16.169  14.676  12.110  0.1289 -0.2101  0.0184
 1491W        W17625   1.182  12.990  15.212  0.2148 -0.1251  0.3722
 1492W        W17626  16.209  15.808   5.259 -0.0230  0.2828 -0.0017
 1493W        W17627   7.013  13.098  11.678 -0.0641  0.0091 -0.0990
 1494W        W17628   5.638   3.814   2.698 -0.1095 -0.1550  0.0076
 1495W        W17629   4.405   8.541  13.608 -0.2545  0.1462  0.2488
 1496W        W17630   0.251   2.430   2.364  0.3043  0.0042  0.0681
 1497W        W17631   5.249   3.378   9.694 -0.0080 -0.0185  0.2781
 1498W        W17632   8.787  15.093  12.175 -0.1116  0.1345  0.0651
 1499W        W17633   0.648   6.366  11.140 -0.1076  0.0620 -0.0361
 1500W        W17634  13.117  11.343  15.389 -0.0164  0.2073  0.0035
 1501W        W17635  18.639  12.069   5.044  0.2206 -0.0630 -0.3147
 1502W        W17636   2.843   0.488  14.247 -0.1909 -0.1150  0.2763
 1503W        W17637   3.600   0.653  12.501 -0.2604  0.4095  0.2055
 1504W        W17638   4.442  13.546   4.617 -0.1384  0.0231  0.1801
 1505W        W17639  10.854  12.100  12.319 -0.1268  0.0946  0.4558
 1506W        W17640   5.843  16.348   3.621 -0.1452  0.1943  0.0356
 1507W        W17641  14.168  14.322   2.862 -0.3869  0.2491  0.3273
 1508W        W17642  11.953   1.732   0.792  0.2705 -0.2699  0.3472
 1509W        W17643  10.603  17.403   4.427 -0.0583  0.0245  0.1520
 1510W        W17644   3.636  16.314   1.931  0.1477 -0.0047 -0.3558
 1511W        W17645   3.757  13.338   1.507  0.2589 -0.0695 -0.1667
 1512W        W17646   6.973  15.809   2.583  0.0497  0.0796  0.1252
 1513W        W17647  14.283  12.866  10.205  0.0360 -0.0142  0.1777
 1514W        W17648  11.628  11.355   4.143 -0.0258  0.1474 -0.0011
 1515W        W17649   0.173   7.729   1.008 -0.2931  0.1948  0.1238
 1516W        W17650   1.243   9.933   2.026 -0.3298  0.0196  0.4941
 1517W        W17651   1.974   9.904  14.363  0.0521 -0.2241 -0.0973
 1518W        W17652   3.559   7.007   0.644  0.0485  0.1251 -0.1506
 1519W        W17653  13.386   8.685  14.690  0.1664 -0.0321  0.2938
 1520W        W17654  13.724  16.861  11.969 -0.1153  0.2930 -0.2306
 1521W        W17655  11.294  15.345   4.330  0.1537  0.3187  0.1434
 1522W        W17656   2.233   3.804  11.264  0.4420 -0.1003  0.0343
 1523W        W17657   7.074  10.055  12.722 -0.2271  0.0239 -0.3269
 1524W        W17658   7.937   9.612   5.754  0.2214  0.0704  0.1322
 1525W        W17659   6.431   2.315   2.910 -0.0210  0.1653  0.3832
 1526W        W17660  14.706   2.729   1.961  0.0698 -0.0995 -0.0379
 1527W        W17661  14.218   0.946   5.263  0.2045 -0.0697  0.4021
 1528W        W17662  17.944  17.862   4.494 -0.2148  0.0689  0.3473
 1529W        W17663   7.730   7.859  14.654 -0.0776 -0.1446  0.1668
 1530W        W17664   4.662  12.255  12.057  0.2851 -0.2619  0.1132
 1531W        W17665   4.608   0.269   4.814 -0.3040  0.0010  0.2193
 1532W        W17666  17.257   0.211   2.883 -0.0062  0.2964  0.1344
 1533W        W17667  16.719  16.394   2.020  0.0112 -0.1294 -0.0041
 1534W        W17668   5.101   7.251   3.445  0.1126  0.0182  0.0567
 1535W        W17669  16.476  10.689   2.511  0.2631  0.1777  0.1492
 1536W        W17670   9.465   3.677   4.699 -0.1115  0.1205 -0.1454
 1537W        W17671   3.180   5.344  11.665  0.1370  0.0748  0.1122
 1538W        W17672   1.879   2.245   4.794 -0.0744 -0.0693  0.1392
 1539W        W17673  16.919   8.498   4.287 -0.2775  0.2853 -0.0891
 1540W        W17674  11.813  11.486   1.615 -0.1284 -0.1558  0.2384
 1541W        W17675  10.343   3.514  13.441 -0.3352 -0.1822 -0.1462
 1542W        W17676   2.549   9.913  11.611 -0.2402 -0.0307  0.1842
 1543W        W17677  14.320   9.547  12.838  0.2194 -0.0939  0.2391
 1544W        W17678   5.657   2.149   3.361  0.0240 -0.0188  0.4205
 1545W        W17679  15.579  10.015  12.965 -0.2324 -0.1210  0.4070
 1546W        W17680  12.181   1.646   5.814 -0.1207 -0.0060  0.1110
 1547W        W17681  14.717   8.801  11.948  0.1973 -0.2202  0.1542
 1548W        W17682  17.831  11.029   0.714  0.0905  0.1778  0.0071
 1549W        W17683   7.825   7.162   4.364  0.0868  0.2885 -0.5979
 1550W        W17684   1.265  18.601  13.961 -0.0264 -0.0015  0.0313
 1551W        W17685   8.683   8.762  14.667 -0.1814 -0.2217  0.1190
 1552W        W17686   7.635  13.462  13.002  0.1410  0.0830 -0.0541
 1553W        W17687   2.130  15.889   3.332  0.0295 -0.1335  0.0780
 1554W        W17688   3.194   4.601   1.633  0.1181 -0.0038  0.0854
 1555W        W17689   0.441   2.697   9.702 -0.1855 -0.2075 -0.3469
 1556W        W17690  16.217  11.455  14.087  0.1650 -0.1658 -0.1688
 1557W        W17691   6.967   8.295   0.736  0.0061 -0.2123  0.2081
 1558W        W17692   6.206  15.239   1.218 -0.0243 -0.3084  0.1608
 1559W        W17693  14.037  10.667  12.735 -0.0351 -0.0331  0.1880
 1560W        W17694   3.912  13.256  12.023 -0.0011  0.0227 -0.2025
 1561W        W17695   3.133   4.271   2.640 -0.0804 -0.0848  0.0227
 1562W        W17696   9.847  14.187  12.968  0.1815  0.2543  0.4097
 1563W        W17697  18.262   7.130   3.853 -0.0719 -0.3540 -0.1730
 1564W        W17698   1.345  17.219   5.469 -0.1015 -0.0924 -0.1174
 1565W        W17699   7.326  13.331   4.544 -0.2300 -0.1154  0.2157
 1566W        W17700   4.566  10.532   0.120  0.0008 -0.0146  0.0294
 1567W        W17701   2.637   5.336   1.483  0.1195 -0.1939  0.2340
 1568W        W17702   2.802  15.825   1.617  0.0420  0.3210 -0.1411
 1569W        W17703  12.455   8.130   4.271  0.2689  0.0455 -0.1927
 1570W        W17704  12.049  14.595  12.542  0.0262  0.0946 -0.0147
 1571W        W17705   4.950   3.633   2.028  0.3063  0.2452 -0.1531
 1572W        W17706   3.194   5.108  15.187  0.2372 -0.0139  0.0941
 1573W        W17707  13.551   7.748  12.334  0.2713 -0.0430 -0.0070
 1574W        W17708  13.598  10.383  11.805  0.0452 -0.1393  0.0234
 1575W        W17709   8.017   4.714  12.941  0.0695  0.0794  0.3486
 1576W        W17710   0.486   3.529  12.245  0.2626  0.0108  0.2782
 1577W        W17711  12.514   0.844   2.675  0.3147  0.1759  0.2652
 1578W        W17712  16.704  16.194   0.757  0.3137  0.0887  0.0735
 1579W        W17713   2.405   8.526   4.516 -0.1328 -0.0296 -0.1074
 1580W        W17714  18.231  12.513  10.767 -0.1078 -0.2815 -0.0556
 1581W        W17715  13.461  18.061   0.977 -0.1949  0.0131 -0.1740
 1582W        W17716   3.835   3.679   2.590 -0.0200 -0.3081  0.0668
 1583W        W17717   0.315   9.862  11.275  0.0706  0.0504  0.4243
 1584W        W17718  15.002   0.447  12.687 -0.2370 -0.2149  0.1216
 1585W        W17719  12.761  15.000   2.102 -0.1759  0.0482  0.1126
 1586W        W17720  17.060  18.525   3.027 -0.1836 -0.0540 -0.1797
 1587W        W17721  12.100  17.282  10.707 -0.0177 -0.0128 -0.0286
 1588W        W17722  18.672  11.115   0.205  0.0327 -0.0927 -0.0257
 1589W        W17723   5.356  15.416  14.666  0.2147 -0.0424 -0.4395
 1590W        W17724   2.692   3.507   0.270 -0.0327 -0.2262 -0.1676
 1591W        W17725  18.435   1.662   5.351 -0.2305  0.0802  0.0831
 1592W        W17726  16.109  12.111   3.632 -0.1196  0.1277  0.1112
 1593W        W17727   7.892   1.572   1.573  0.3832  0.0712  0.2224
 1594W        W17728   9.325  15.758   2.553  0.2057 -0.0098  0.2318
 1595W        W17729  16.301  11.923   1.047 -0.3842  0.1875 -0.4102
 1596W        W17730  10.362  13.094   4.950 -0.0681 -0.0768  0.1056
 1597W        W17731  10.146  10.430   2.593 -0.1226  0.0223  0.2372
 1598W        W17732  17.832  15.028   3.409 -0.0896 -0.3503 -0.3022
 1599W        W17733   1.598  14.347  11.497  0.1953  0.2341 -0.2037
 1600W        W17734  17.748  11.216  13.488 -0.1583  0.0569 -0.0561
 1601W        W17735   2.811  10.829  14.392  0.2669 -0.1875  0.1742
 1602W        W17736  10.806   9.875   3.094  0.2007 -0.0372 -0.1127
 1603W        W17737  11.435   6.970   3.634 -0.0004  0.1425 -0.2230
 1604W        W17738  15.222  13.041   0.497 -0.2639 -0.3043  0.3623
 1605W        W17739  10.069  15.568  11.745 -0.1249 -0.2328 -0.1239
 1606W        W17740   5.462   2.557   0.627 -0.2891 -0.0514  0.1915
 1607W        W17741  11.351   2.449   3.762  0.1434  0.0255  0.1527
 1608W        W17742   3.292  15.663  12.073 -0.1979 -0.4631  0.0934
 1609W        W17743  13.488  14.219  14.648 -0.0699  0.1289 -0.2117
 1610W        W17744   8.755   3.274   4.885  0.1038  0.1438  0.0807
 1611W        W17745   5.581   1.149   2.969  0.2892 -0.2226 -0.1203
 1612W        W17746  13.510   7.084   1.562 -0.0059 -0.1501  0.0246
 1613W        W17747   8.616   5.899   3.280 -0.1066  0.1600  0.0078
 1614W        W17748   8.560   9.960   3.675  0.0492  0.3088 -0.1206
 1615W        W17749   6.999  15.691   5.671  0.0464  0.0062  0.0079
 1616W        W17750   8.797   7.223  13.562 -0.0949 -0.0983  0.1125
 1617W        W17751   7.857   8.785   2.532 -0.3735  0.0688 -0.2216
 1618W        W17752  17.090   2.116   3.901 -0.1866  0.0387  0.1403
 1619W        W17753   7.991   4.280  14.426  0.2028 -0.3483 -0.1058
 1620W        W17754   6.722  14.047   5.850 -0.0004 -0.1589  0.2798
 1621W        W17755  17.977  18.184  11.623 -0.0663 -0.1206 -0.0733
 1622W        W17756   7.829  15.794   2.981 -0.1605 -0.0557  0.1234
 1623W        W17757  11.249   9.545   2.773 -0.1148 -0.0956  0.0701
 1624W        W17758   8.308   3.827  13.293  0.0347 -0.1364  0.2879
 1625W        W17759  15.868  10.193  12.028 -0.1967 -0.0379 -0.0813
 1626W        W17760   7.995   9.881   4.818 -0.0794  0.1667  0.1760
 1627W        W17761  10.041  18.041  13.437 -0.0947 -0.3190  0.0973
 1628W        W17762  15.624   2.704   2.466  0.1833  0.2150  0.2434
 1629W        W17763   8.312   0.218  12.579 -0.2166 -0.1030  0.1510
 1630W        W17764   3.126  10.505   1.793  0.0630  0.2264  0.0689
 1631W        W17765  14.113  10.614  14.657 -0.1860 -0.0259  0.0815
 1632W        W17766   7.088  17.703   2.841  0.1507  0.2930 -0.4563
 1633W        W17767   8.817  17.061   0.743 -0.1457 -0.1697  0.3393
 1634W        W17768  13.451   2.185  12.530  0.2088  0.0460 -0.1333
 1635W        W17769   4.372  12.454   4.247 -0.1729  0.0974  0.0722
 1636W        W17770  17.674   8.854   1.653 -0.0231  0.1283 -0.2081
 1637W        W17771   9.883   9.976   2.704  0.3298  0.0387 -0.3174
 1638W        W17772   2.639  15.395  15.360 -0.0864 -0.0175 -0.1322
 1639W        W17773   0.341   0.338   2.434  0.0264  0.0243 -0.0707
 1640W        W17774  12.152   1.928  15.094 -0.1369 -0.1082 -0.0943
 1641W        W17775   1.436  18.380  11.807 -0.2733  0.0244  0.2186
 1642W        W17776   9.372   1.646   0.078  0.0290  0.0842 -0.1999
 1643W        W17777  17.128   7.685  13.953  0.0859 -0.1022  0.0027
 1644W        W17778  16.065   5.093   4.218  0.0059 -0.0928 -0.1763
 1645W        W17779  14.727   0.455   2.646 -0.2068  0.3171 -0.1420
 1646W        W17780   2.399  17.430   4.546  0.2035 -0.0984 -0.2343
 1647W        W17781   6.170  11.240   0.180  0.0648  0.1643  0.1104
 1648W        W17782  13.197   4.315   4.290 -0.1967 -0.4860 -0.1016
 1649W        W17783  18.428  12.441  12.925  0.0131 -0.0975 -0.3530
 1650W        W17784  10.779  16.098   1.903 -0.0487  0.1227  0.1523
 1651W        W17785  17.391  13.125   1.858 -0.3776  0.2110  0.1721
 1652W        W17786  16.785   1.122  10.976  0.0602  0.1337  0.0805
 1653W        W17787   1.903   7.282  11.565  0.0322 -0.0556 -0.1009
 1654W        W17788  10.012  15.479  12.714  0.0532 -0.0107  0.1742
 1655W        W17789  11.679   8.810  10.690  0.1121  0.0420 -0.1816
 1656W        W17790   5.993  13.157  12.915  0.2199 -0.1179 -0.0753
 1657W        W17791   5.071  15.598   1.131  0.0056  0.1432  0.2684
 1658W        W17792  13.860  17.732  10.722 -0.3435 -0.1220 -0.3895
 1659W        W17793  18.569  11.837   2.091  0.1465 -0.2332  0.1409
 1660W        W17794  15.113  12.811   2.633  0.1671  0.0719  0.0263
 1661W        W17795   4.910  17.174  12.296 -0.3605  0.1148  0.2221
 1662W        W17796  12.450  18.703  12.263  0.1867 -0.1107 -0.1378
 1663W        W17797  13.650   2.723   4.778  0.0753  0.0635  0.2589
 1664W        W17798  14.566  15.360   3.263 -0.1449 -0.1225  0.0699
 1665W        W17799  16.204   8.895  11.601 -0.7025 -0.1247  0.0275
 1666W        W17800   8.695  14.598  14.324 -0.0166  0.2505 -0.0120
 1667W        W17801  16.368   5.042  11.623 -0.1233  0.3637  0.0767
 1668W        W17802  16.583  18.563  11.335  0.1583  0.1197 -0.3318
 1669W        W17803  17.957  18.630  13.498 -0.2162 -0.1807 -0.1975
 1670W        W17804  14.399   9.532   3.090  0.7126 -0.2476  0.2957
 1671W        W17805   6.144   1.625  11.447  0.1990  0.2326 -0.0036
 1672W        W17806  18.415  18.034  13.888 -0.2752 -0.0230 -0.2744
 1673W        W17807  15.389   5.211   9.977  0.0937  0.3352  0.1486
 1674W        W17808   2.888   8.621  11.457 -0.0100 -0.1511  0.1039
 1675W        W17809   3.185  11.786   0.325 -0.2777 -0.1171  0.0801
 1676W        W17810  14.775  13.251   1.649  0.0935 -0.4957 -0.0635
 1677W        W17811  12.710  11.176   9.551  0.1810  0.0093 -0.0045
 1678W        W17812   5.701   1.434   4.610  0.1344 -0.0771 -0.1564
 1679W        W17813   7.166   6.044   4.968 -0.0196  0.0389 -0.0309
 1680W        W17814   4.521   1.090   0.620 -0.4119 -0.0864  0.4044
 1681W        W17815  14.444  12.808   1.614 -0.2636 -0.0199 -0.1860
 1682W        W17816   8.094   1.247  11.714 -0.3864  0.0447 -0.0453
 1683W        W17817   2.704   5.415  13.259 -0.1378  0.0439 -0.2011
 1684W        W17818   0.231   7.261  13.191  0.0396  0.0558 -0.2121
 1685W        W17819   5.563  17.528   4.040 -0.0044 -0.0387 -0.0772
 1686W        W17820   9.604   1.271  13.307  0.0282 -0.0143 -0.2555
 1687W        W17821  17.775  15.390   5.589 -0.0129  0.0210  0.1215
 1688W        W17822  14.628   7.863  14.058  0.0698 -0.2899 -0.0185
 1689W        W17823   8.882   1.011  11.159  0.0447 -0.0089 -0.3565
 1690W        W17824  16.082  11.151  12.713 -0.0461 -0.2298  0.1385
 1691W        W17825  10.151  15.946  11.981  0.0777  0.1799  0.1086
 1692W        W17826  15.871   1.218  14.981  0.3805  0.0775  0.2142
 1693W        W17827  11.037   7.524  10.484  0.1161  0.0662 -0.2385
 1694W        W17828  13.018   6.990  10.614  0.2893 -0.1648 -0.2874
 1695W        W17829  18.349   1.582  15.048  0.0091 -0.2220 -0.0796
 1696W        W17830  15.537   0.373   4.722 -0.3552  0.0241  0.1710
 1697W        W17831   9.662  18.046  15.385 -0.1505 -0.1030  0.3847
 1698W        W17832   5.828   6.003  14.341  0.1702  0.0271 -0.0405
 1699W        W17833   8.750  15.394  10.879 -0.0003 -0.0380  0.0865
 1700W        W17834   2.386   1.757   5.731  0.1261 -0.0967  0.0373
 1701W        W17835  16.150  17.558  13.270  0.0113 -0.0891  0.1041
 1702W        W17836   0.700  18.435   2.753 -0.3204  0.1576  0.0924
 1703W        W17837   9.857   4.495   0.617 -0.1579 -0.1265  0.2445
 1704W        W17838   2.923  15.504   2.667 -0.2367  0.3318 -0.1677
 1705W        W17839   7.396   6.777  13.519  0.0273 -0.1705 -0.0195
 1706W        W17840   0.035  13.471   2.129 -0.1458 -0.0652 -0.0377
 1707W        W17841   3.574   5.007  13.521  0.4930 -0.0156  0.2514
 1708W        W17842  18.318   1.119   5.462  0.2750 -0.3271 -0.0257
 1709W        W17843  13.973   2.676  14.613  0.0346  0.1900 -0.1135
 1710W        W17844   3.634   5.511  13.251  0.1064 -0.0987  0.3921
 1711W        W17845  15.203   8.725  10.525  0.2923 -0.1473  0.0444
 1712W        W17846   3.937  14.748   4.038 -0.0066  0.1720 -0.2619
 1713W        W17847  16.892   0.755   2.850 -0.1771  0.4063 -0.2880
 1714W        W17848  11.892  18.018   2.178  0.0784 -0.1974  0.2257
 1715W        W17849  11.044   5.618   6.241  0.1039  0.0538 -0.3040
 1716W        W17850  10.340  13.962   1.712  0.0380  0.1353  0.0518
 1717W        W17851   7.155  14.598   9.946 -0.1296 -0.0529  0.0754
 1718W        W17852   4.230   1.880  13.733 -0.1268  0.0544  0.0706
 1719W        W17853   1.632   6.900  11.905  0.0671  0.1357 -0.2102
 1720W        W17854   9.791   9.523   5.476 -0.2426 -0.0890 -0.1796
 1721W        W17855   6.205  13.254  11.397 -0.1255  0.0121 -0.2903
 1722W        W17856   2.928   4.862   0.037  0.2980 -0.3570  0.2738
 1723W        W17857  18.292   0.750  11.768  0.3399 -0.0315  0.2651
 1724W        W17858   9.078  13.427  13.763  0.0782 -0.0463 -0.1939
 1725W        W17859   2.385  11.074  12.609  0.1871 -0.4310  0.2114
 1726W        W17860   8.701   6.443  10.323  0.1397 -0.1869 -0.0486
 1727W        W17861  15.192   4.124  15.277 -0.0976  0.1141  0.0780
 1728W        W17862  12.362   5.754  14.108 -0.0309  0.0558 -0.2952
 1729W        W17863  14.866  11.506  12.092 -0.1627  0.2478  0.2565
 1730W        W17864  11.512   2.476   2.311  0.5996 -0.0934 -0.2858
 1731W        W17865  15.763  14.797   2.108  0.1831 -0.2115  0.0926
 1732W        W17866   0.729  17.155  11.120 -0.0154 -0.1565  0.1716
 1733W        W17867  17.492  17.998  15.076 -0.0264  0.1821 -0.0475
 1734W        W17868  11.967   4.894  10.879  0.2027 -0.0318 -0.0948
 1735W        W17869   0.030   0.402   4.407  0.0262  0.1054 -0.3259
 1736W        W17870   6.212   8.462  13.299  0.0005  0.0504  0.0377
 1737W        W17871   2.823  16.881  14.499 -0.3468 -0.3896 -0.0834
 1738W        W17872   9.565  10.610  11.348  0.0455 -0.0149 -0.0456
 1739W        W17873   1.335   5.999  14.916 -0.4044 -0.2193  0.1570
 1740W        W17874  18.553  13.708   2.633  0.1283 -0.0825 -0.1769
 1741W        W17875   4.146   7.592  14.285 -0.1612 -0.2087 -0.1178
 1742W        W17876  10.799  17.263   1.228 -0.2757 -0.0097 -0.2863
 1743W        W17877  17.056  12.591   2.850 -0.0519  0.1648 -0.1055
 1744W        W17878   5.914  11.882  11.175  0.1374 -0.2165  0.0569
 1745W        W17879  13.605  12.616  10.857 -0.0245  0.3251 -0.0143
 1746W        W17880  17.318   0.490   3.314  0.1149 -0.1124 -0.0411
 1747W        W17881  14.697   5.680   2.323  0.2659  0.0962  0.1766
 1748W        W17882  12.682   1.177   1.080  0.0357 -0.0291 -0.2211
 1749W        W17883  10.865  11.112  11.682 -0.0410 -0.1043 -0.0986
 1750W        W17884  18.084   3.594   1.082  0.0256 -0.1501 -0.3225
 1751W        W17885  11.317  11.819   2.972 -0.1465 -0.1821  0.2771
 1752W        W17886  17.560  15.945  11.512  0.0889 -0.0270  0.2204
 1753W        W17887  16.941   5.504   1.953  0.1353 -0.0609  0.1541
 1754W        W17888  11.034   7.006  13.454  0.3892  0.0844  0.0069
 1755W        W17889   9.630   7.762   2.539  0.0398 -0.2180  0.1521
 1756W        W17890  17.848   5.523   3.124  0.0799 -0.2367  0.0224
 1757W        W17891   1.435   0.920  11.379  0.0033 -0.2389  0.0453
 1758W        W17892   1.618  15.093   2.751 -0.2245 -0.1000  0.0970
 1759W        W17893   9.539   6.338   4.324 -0.4056  0.2223 -0.2372
 1760W        W17894  17.273   5.587   1.506 -0.1300  0.0416 -0.1040
 1761W        W17895  16.666  11.569  10.380 -0.0805  0.1876 -0.0454
 1762W        W17896  11.942   0.365  13.150  0.0902 -0.0049  0.0958
 1763W        W17897   7.148   9.800  11.192  0.2362  0.2619 -0.0446
 1764W        W17898  14.460   4.007  14.489  0.3061  0.2074 -0.0217
 1765W        W17899   3.885   3.087  13.800 -0.3663 -0.1522  0.2999
 1766W        W17900  17.024   2.394   1.234 -0.1079 -0.0760 -0.4026
 1767W        W17901  18.409   1.072  10.993  0.0792 -0.0956  0.0991
 1768W        W17902  16.801  10.942  14.819 -0.0945 -0.1066 -0.0577
 1769W        W17903  14.442  10.395   0.871 -0.1478  0.1466 -0.2627
 1770W        W17904  11.999   3.559   4.165 -0.2224  0.1653 -0.0788
 1771W        W17905   5.162   2.097  11.124 -0.2086  0.1835  0.0741
 1772W        W17906  13.245   7.343   2.909  0.2022  0.1252 -0.1619
 1773W        W17907   4.302  10.246   5.310  0.0600 -0.2326 -0.1802
 1774W        W17908   6.105  12.660   4.648  0.0114 -0.1884  0.0492
 1775W        W17909  14.698   0.143   4.780 -0.1111  0.0666 -0.2027
 1776W        W17910  18.181  16.274  12.346 -0.0492 -0.2842 -0.0378
 1777W        W17911   4.586  13.998  10.828  0.0328  0.1281 -0.5410
 1778W        W17912  11.247   4.489  13.403 -0.2320  0.0786  0.3600
 1779W        W17913  14.315  18.120  14.652  0.0485  0.1166 -0.1441
 1780W        W17914  13.620   1.210  13.572  0.3462  0.2407 -0.0433
 1781W        W17915   7.535  17.750  12.545  0.2977  0.2132  0.3335
 1782W        W17916   8.565   2.013  12.061  0.2115 -0.1508 -0.2114
 1783W        W17917   9.105  14.215  14.478  0.1055 -0.1571  0.0809
 1784W        W17918  11.695   9.634   1.809 -0.0980 -0.1945  0.2051
 1785W        W17919  12.613   7.146  12.901  0.0652 -0.0898 -0.0180
 1786W        W17920   9.675   3.649  11.368 -0.0095 -0.1812  0.2649
 1787W        W17921  16.110  12.084  13.863 -0.3278 -0.0085 -0.0603
 1788W        W17922  13.155   9.449  12.206  0.0431  0.1601  0.0608
 1789W        W17923   3.976  13.059  14.757  0.0248  0.3409 -0.2187
 1790W        W17924   1.545  18.716  12.775  0.0615 -0.0843  0.2089
 1791W        W17925   4.870  18.301   3.274  0.2434  0.2080 -0.1517
 1792W        W17926   0.988   3.377  13.464  0.2817 -0.0963  0.1869
 1793W        W17927   5.240  10.206  12.506  0.0970 -0.1534  0.2995
 1794W        W17928   2.945  11.544   1.141  0.0504 -0.2665  0.1920
 1795W        W17929   0.449   9.796   2.383 -0.0384 -0.0676  0.1663
 1796W        W17930  14.386   1.833  11.575  0.0755 -0.0023  0.1585
 1797W        W17931   1.075   8.277  15.427 -0.2865  0.2706 -0.0430
 1798W        W17932   2.717  14.435   9.950 -0.1012  0.1021  0.1766
 1799W        W17933  18.169   7.754   4.454  0.3028 -0.0961  0.1376
 1800W        W17934   0.206  11.593  13.380 -0.0369  0.2521  0.0064
 1801W        W17935  12.057   7.196   2.095  0.2246  0.4096 -0.1542
 1802W        W17936   9.341   0.888  13.092  0.0602  0.1031 -0.0628
 1803W        W17937  10.531  15.297   2.973  0.1058  0.0066  0.1078
 1804W        W17938   2.683   7.077  11.683 -0.1344 -0.4657  0.3392
 1805W        W17939  14.038  17.110   4.665  0.1370 -0.0671  0.2666
 1806W        W17940  18.447   6.886  12.524  0.0149  0.2555 -0.0145
 1807W        W17941  10.366   6.498  12.470 -0.3302  0.1918  0.1516
 1808W        W17942  14.288  16.842  14.452 -0.1063  0.2903 -0.0835
 1809W        W17943  14.127  18.312   3.406  0.2486 -0.1744 -0.6368
 1810W        W17944   7.642   6.316   1.319 -0.0802 -0.1979 -0.0118
 1811W        W17945  12.477   5.765  15.257  0.1261  0.0519 -0.1904
 1812W        W17946   3.865   2.840   1.671 -0.0213 -0.2564 -0.0739
 1813W        W17947   9.941  12.018  11.957 -0.1604 -0.3321 -0.2248
 1814W        W17948   2.460   6.533   5.283 -0.0990  0.4488  0.1124
 1815W        W17949  18.664   6.301  11.845 -0.3152 -0.0739 -0.2732
 1816W        W17950   8.796   9.529  14.613 -0.0013 -0.0575 -0.0975
 1817W        W17951   3.540  15.224   3.980 -0.1371 -0.0933 -0.2941
 1818W        W17952  15.515   7.722   2.449 -0.3273 -0.2185 -0.1462
 1819W        W17953   3.829   3.636   3.058 -0.1321  0.0048 -0.0831
 1820W        W17954  12.638   9.370  14.885  0.1088  0.0824 -0.5178
 1821W        W17955  17.969   0.553   9.962  0.1069  0.1972 -0.0409
 1822W        W17956  17.602   8.756   4.700  0.1333 -0.1673  0.1086
 1823W        W17957  18.671  10.444   3.929  0.0510  0.2020  0.2360
 1824W        W17958  13.170   5.443  13.644  0.0337  0.1629  0.0545
 1825W        W17959   5.337  10.261   1.226  0.3303  0.0904  0.1198
 1826W        W17960   6.241   7.499   4.955 -0.0491  0.0170  0.1730
 1827W        W17961   1.010  10.195  11.602 -0.0468 -0.0041  0.2313
 1828W        W17962   1.867  13.489   4.543  0.0546 -0.0310  0.1299
 1829W        W17963  13.308  12.168  13.572 -0.0983 -0.0358  0.0490
 1830W        W17964  14.036   4.977   4.955  0.1865  0.0869 -0.1337
 1831W        W17965  14.219   8.081  12.004  0.0742 -0.2752  0.0469
 1832W        W17966   3.770  16.935  14.075  0.0054  0.2568  0.1940
 1833W        W17967  11.969   9.180  13.592 -0.0163 -0.2815  0.0037
 1834W        W17968   4.273   6.632   3.980 -0.0459  0.2637 -0.3292
 1835W        W17969  16.518   5.834  12.901 -0.4940 -0.3387 -0.0417
 1836W        W17970  12.322   3.018  15.520 -0.1354  0.0370 -0.0215
 1837W        W17971  14.125   6.241   2.643 -0.1177  0.4988  0.0687
 1838W        W17972  10.467   0.976   1.134 -0.2030  0.0302 -0.2988
 1839W        W17973   1.116   3.917  13.322 -0.0422  0.2086 -0.0461
 1840W        W17974   7.584   0.931   0.493 -0.2275 -0.0390 -0.3019
 1841W        W17975   5.964   8.557  12.649 -0.1548  0.0286  0.2057
 1842W        W17976   1.125  16.352  11.369  0.5354  0.1562  0.1651
 1843W        W17977   9.563   1.932   4.586 -0.3225  0.0778 -0.3119
 1844W        W17978  12.157  16.997  12.846 -0.1830 -0.0883 -0.0935
 1845W        W17979   3.007   4.712  14.890 -0.3306  0.1622  0.1444
 1846W        W17980   5.335  10.443   1.715  0.0008  0.0374 -0.1445
 1847W        W17981   7.513   8.547   1.641  0.2285 -0.3945  0.1535
 1848W        W17982   0.540  16.563   3.511 -0.0002  0.0515  0.0839
 1849W        W17983  17.627   9.425   3.398  0.2178  0.0098 -0.0066
 1850W        W17984  13.262   4.096   5.322 -0.1659  0.0475 -0.0497
 1851W        W17985  11.125   4.837   2.413  0.1055 -0.0214  0.2331
 1852W        W17986   3.743   4.462  15.278  0.2764  0.0528  0.6744
 1853W        W17987   5.265   8.697   1.414  0.1103 -0.2443 -0.0107
 1854W        W17988  11.963  14.996  12.198 -0.2139  0.0458 -0.2029
 1855W        W17989   5.938   5.993  12.428  0.1581 -0.2949  0.0832
 1856W        W17990   3.743  10.493   1.925  0.3185 -0.1244  0.3901
 1857W        W17991  15.767   2.746  13.164  0.2450  0.0190 -0.1663
 1858W        W17992   2.514   8.728  14.190 -0.1793  0.0125  0.3022
 1859W        W17993  14.747   6.243  15.265 -0.1628  0.2475 -0.0776
 1860W        W17994  18.361  12.991  14.224  0.2755  0.2883  0.1930
 1861W        W17995  12.740   6.969   4.816  0.0242  0.1045 -0.0792
 1862W        W17996  13.478   7.618  13.866  0.1303 -0.0905  0.0198
 1863W        W17997  18.099   6.866  14.137  0.1515  0.0782 -0.2764
 1864W        W17998   9.479  14.599   2.813 -0.2869  0.0363  0.1319
 1865W        W17999  17.272   6.242   3.682 -0.1971  0.0485 -0.1683
 1866W        W18000   3.668  12.831   3.012 -0.0156  0.0940 -0.0438
 1867W        W18001  10.070  14.336   1.005  0.1243 -0.5581  0.0098
 1868W        W18002   6.344  10.697  13.509  0.3386  0.0288  0.1508
 1869W        W18003  14.502   2.757   5.226  0.1106 -0.0416 -0.3786
 1870W        W18004  12.625  17.769   3.770  0.2272  0.1456  0.0358
 1871W        W18005   8.822   1.990   1.386  0.0088 -0.0508 -0.0755
 1872W        W18006   6.395   5.269  11.337 -0.2243  0.0428 -0.2240
 1873W        W18007   3.544  14.829   9.825 -0.2072 -0.0300  0.4216
 1874W        W18008   3.586   4.884  11.611  0.0684  0.0237  0.4202
 1875W        W18009   8.490   1.945   0.490  0.1843 -0.0262 -0.1521
 1876W        W18010  10.287   3.818  11.836 -0.1205 -0.2274  0.0252
 1877W        W18011  12.321   3.749   3.804 -0.0594  0.2807  0.1178
 1878W        W18012  13.955   7.730  13.693  0.1231  0.1114  0.0729
 1879W        W18013   6.791   7.457  12.774  0.4600  0.0026 -0.2488
 1880W        W18014   1.466  11.616  11.185  0.3205  0.0301  0.1565
 1881W        W18015   2.131   1.062   1.365 -0.0367 -0.0994  0.2605
 1882W        W18016  10.646  13.550   0.698 -0.0363 -0.1384 -0.0657
 1883W        W18017  16.218  11.527  15.414 -0.1367  0.2291  0.1008
 1884W        W18018   4.766  17.920  10.730  0.1435  0.2154  0.0508
 1885W        W18019   3.545  16.108  11.240 -0.0984 -0.2206 -0.0665
 1886W        W18020   1.560   8.226   3.344  0.2506 -0.1800 -0.1302
 1887W        W18021   8.087  16.602  15.318  0.0179  0.0133 -0.1183
 1888W        W18022   1.871  10.478   3.822  0.4515 -0.0517 -0.1488
 1889W        W18023  11.606  17.573  15.563 -0.0748  0.2215  0.1107
 1890W        W18024   8.893  12.564  12.193  0.0763 -0.3294 -0.2183
 1891W        W18025   5.075  15.824  10.325  0.1719 -0.3778  0.1410
 1892W        W18026   5.239   1.700   0.566  0.2110 -0.0300 -0.0020
 1893W        W18027   0.215  13.998  14.166 -0.2091  0.2389  0.0688
 1894W        W18028  15.403  13.204  12.410 -0.1272 -0.0154 -0.2207
 1895W        W18029  18.081   0.987  14.619 -0.1356  0.1053 -0.0728
 1896W        W18030   7.913   2.213  13.287 -0.2154  0.1464 -0.3260
 1897W        W18031   3.117   6.466   2.631 -0.2095 -0.2845 -0.3159
 1898W        W18032  18.560   9.561  14.635 -0.0998  0.1797 -0.0700
 1899W        W18033  14.495  13.171   4.809 -0.1466  0.1877 -0.1280
 1900W        W18034   4.833   2.921  12.880  0.7209  0.0441 -0.1229
 1901W        W18035   3.840   0.155   5.578 -0.2021  0.1547  0.1082
 1902W        W18036   4.607  11.529  13.600 -0.0120  0.0519 -0.0175
 1903W        W18037  17.487  10.385  14.106 -0.0063  0.1159  0.0936
 1904W        W18038   4.451   0.437  12.422  0.2548  0.0764 -0.0493
 1905W        W18039   6.533   4.009  15.560 -0.1706 -0.0154 -0.4005
 1906W        W18040  12.626  13.246  13.844  0.3475 -0.1615  0.4279
 1907W        W18041   3.228   9.260   3.399 -0.0799 -0.2304 -0.0747
 1908W        W18042   7.188   0.686   0.318 -0.0444  0.3565 -0.3150
 1909W        W18043  11.948   0.579  14.506  0.1569 -0.1020  0.1375
 1910W        W18044  13.593  17.528  14.386  0.0005  0.0967  0.0153
 1911W        W18045  14.384  16.070  13.634 -0.2788  0.0254  0.1280
 1912W        W18046   3.648  11.818   3.779  0.2385  0.1660  0.0181
 1913W        W18047  13.093  11.407   0.321  0.0241 -0.1321 -0.0733
 1914W        W18048   2.772  11.822   2.800  0.3171 -0.0959  0.0136
 1915W        W18049   0.259  15.036   9.838  0.0718  0.0927  0.2012
 1916W        W18050   3.715   9.414   2.552  0.1612  0.1170  0.0589
 1917W        W18051  16.405   1.059   2.643 -0.0648 -0.0163 -0.2323
 1918W        W18052   9.238   3.583  12.681  0.1658 -0.0053  0.2109
 1919W        W18053   9.595  12.053  10.899 -0.0603  0.0269  0.0748
 1920W        W18054   2.890  14.613  13.858  0.1632  0.0148 -0.0191
 1921W        W18055   3.531   0.011  13.584 -0.0062  0.0540 -0.0165
 1922W        W18056   7.883   1.302  13.335  0.1292 -0.1379 -0.0154
 1923W        W18057   3.918  16.613  13.103 -0.0349  0.0867 -0.0687
 1924W        W18058   6.848   1.027  12.754 -0.0981 -0.0621 -0.1201
 1925W        W18059   7.697   3.417   4.894 -0.1216  0.1055  0.2378
 1926W        W18060   8.002   2.116   3.964  0.5984  0.0455  0.1395
 1927W        W18061   1.143   4.717  11.482 -0.2209 -0.2122  0.2138
 1928W        W18062   4.786   4.032  15.157 -0.0044  0.1094 -0.0614
 1929W        W18063   8.240   7.919  13.801  0.2160 -0.0198  0.0456
 1930W        W18064  14.270   0.999  11.893  0.0158  0.1568 -0.2109
 1931W        W18065   3.810   3.250  15.562 -0.1526  0.3561 -0.0929
 1932W        W18066  12.299   6.951   4.516  0.0901  0.0293  0.2027
 1933W        W18067  14.663   7.390   1.996 -0.3994  0.2444 -0.2966
 1934W        W18068   7.838  10.321  10.697  0.3251  0.2730 -0.1024
 1935W        W18069  14.410   0.771   0.721  0.0062  0.0336  0.3203
 1936W        W18070   3.087  15.310   0.604  0.2695 -0.1050 -0.4345
 1937W        W18071  16.114   5.017  15.208 -0.2727  0.1530 -0.1506
 1938W        W18072  13.968  16.771  11.103  0.0611  0.1228  0.1232
 1939W        W18073   9.808  10.364  12.402 -0.0793  0.1700  0.0443
 1940W        W18074   2.906   5.965  13.404 -0.3774  0.1098  0.2906
 1941W        W18075   1.532  11.491   5.876  0.1990  0.0479  0.3367
 1942W        W18076   7.070  11.907  13.508  0.0520  0.0932 -0.0350
 1943W        W18077   3.782  12.406   1.602  0.0869 -0.0196  0.0849
 1944W        W18078  15.497   7.347  14.333 -0.1695 -0.0945 -0.0142
 1945W        W18079   3.314   1.288  12.762  0.2564  0.2325 -0.1069
 1946W        W18080   3.701  17.490   2.418  0.0134 -0.2188  0.1845
 1947W        W18081  14.359   5.555   1.490 -0.0317 -0.0040 -0.1328
 1948W        W18082  17.453   5.174   3.114  0.0881  0.1975 -0.0277
 1949W        W18083  13.714   2.004  15.228 -0.1280  0.2356  0.0285
 1950W        W18084   8.287  12.775   0.860 -0.1060 -0.0919 -0.1372
 1951W        W18085   8.835   1.683   0.757 -0.0364  0.2309  0.0464
 1952W        W18086   0.171   2.472  12.835  0.1857  0.0171  0.2669
 1953W        W18087   3.410   9.231   1.320  0.0790 -0.1346 -0.0149
 1954W        W18088   3.375   6.928   3.939  0.2280  0.0466  0.0464
 1955W        W18089  18.426   8.358  11.143 -0.0435 -0.0183  0.1327
 1956W        W18090  14.330  13.220  11.083 -0.0309  0.1606 -0.0872
 1957W        W18091  17.868   1.228   4.785  0.2874  0.0501  0.1352
 1958W        W18092   6.615  14.828   1.517 -0.0297  0.1816 -0.0011
 1959W        W18093  11.090  15.400  14.836 -0.0260  0.2138  0.0652
 1960W        W18094  13.446  18.145   3.639 -0.0624  0.0149  0.2238
 1961W        W18095  17.896   4.655   4.731 -0.1249 -0.5322  0.0111
 1962W        W18096   7.823  11.462   2.810 -0.0780  0.0470  0.0217
 1963W        W18097  14.016   3.328   1.931  0.1048  0.0766  0.2431
 1964W        W18098  14.484   3.317   5.544 -0.0153  0.2044  0.1856
 1965W        W18099   0.180   7.767  11.777  0.2310  0.1087 -0.1201
 1966W        W18100   5.729   3.008  13.854 -0.1598 -0.2037 -0.0899
 1967W        W18101   1.381  17.247  12.963 -0.0165  0.1819 -0.0817
 1968W        W18102  10.131   7.029   1.535 -0.0366 -0.0995 -0.1621
 1969W        W18103  18.466   4.223   5.111 -0.1257 -0.0472 -0.0800
 1970W        W18104  10.107   3.758   1.196 -0.1096 -0.2193  0.1032
 1971W        W18105   9.832   0.851  13.986  0.0214  0.6122 -0.0407
 1972W        W18106  16.638   3.262   1.781  0.0955  0.2542 -0.0803
 1973W        W18107   8.990   0.600  10.905  0.2115  0.0561 -0.0803
 1974W        W18108  16.243  10.371   2.983  0.3997  0.4533 -0.1457
 1975W        W18109  18.438   1.838   9.851  0.1472 -0.0536  0.0700
 1976W        W18110   6.275  16.903  11.854 -0.1506 -0.0212 -0.3374
 1977W        W18111   3.128   7.818  11.621 -0.0515  0.2741  0.2170
 1978W        W18112   5.841  17.276   5.069 -0.1010 -0.1976  0.1894
 1979W        W18113   3.110  10.662   2.987  0.1067  0.0976 -0.1284
 1980W        W18114   5.217   0.261   0.535 -0.0863  0.0724 -0.0049
 1981W        W18115   8.965   7.464  14.416 -0.0243 -0.0573 -0.3347
 1982W        W18116   2.224   3.504   4.624 -0.3467 -0.0459  0.0937
 1983W        W18117   6.306   1.191  14.553  0.1002 -0.0156 -0.1419
 1984W        W18118  10.559   7.773   5.699 -0.0120  0.1653 -0.0439
 1985W        W18119  14.701   2.612   0.245  0.0694 -0.1647 -0.2939
 1986W        W18120  10.333  12.800  10.731 -0.0819  0.0311 -0.2289
 1987W        W18121  10.951   2.328   2.837  0.4041 -0.0852 -0.1230
 1988W        W18122   8.427   1.477  14.337  0.0148  0.2120  0.1973
 1989W        W18123   4.367  16.160  13.859  0.0815 -0.2438  0.2605
 1990W        W18124   2.623   2.420  15.404  0.1538 -0.0276  0.0025
 1991W        W18125  10.868  10.994   4.566 -0.0524  0.0709 -0.1021
 1992W        W18126  16.338   9.611   1.872  0.2207 -0.0210  0.1857
 1993W        W18127   7.208   9.652  15.215 -0.3390 -0.1515 -0.1963
 1994W        W18128  10.260  13.727   2.768 -0.4030  0.0272 -0.2038
 1995W        W18129   5.746  13.974  12.803 -0.2345 -0.0805  0.1566
 1996W        W18130  10.964   9.402  10.871 -0.0765 -0.2850  0.0954
 1997W        W18131   4.360  16.578   2.964  0.0644 -0.2387  0.1604
 1998W        W18132  17.142   7.098   3.382 -0.0600 -0.1410  0.0850
 1999W        W18133   2.812  12.979  12.892  0.5173  0.2159  0.0114
 2000W        W18134   9.116  17.781  11.866 -0.0087  0.0735 -0.2209
 2001W        W18135  11.437  12.407   3.798  0.0179  0.0433 -0.3173
 2002W        W18136   8.992   8.475  14.921 -0.0116 -0.1304 -0.0695
 2003W        W18137  12.556  18.407  13.811  0.1107 -0.2093  0.0432
 2004W        W18138   0.185   3.603   3.279 -0.1212  0.2114  0.1384
 2005W        W18139  15.683   9.768   0.203  0.0833  0.1241 -0.1502
 2006W        W18140   4.111   7.338  11.721 -0.0792 -0.2923 -0.0669
 2007W        W18141  17.599  15.603   1.646 -0.0092  0.1092 -0.0149
 2008W        W18142  13.025   1.662   0.044  0.2207 -0.0807 -0.0061
 2009W        W18143  11.889  16.381  13.491 -0.1718 -0.0156 -0.2277
 2010W        W18144  13.696  15.149   3.403 -0.1422 -0.1388  0.0681
 2011W        W18145   6.532  12.564   1.779  0.1811  0.0950 -0.1423
 2012W        W18146  12.898   2.756  14.264 -0.1626  0.0612 -0.0946
 2013W        W18147   9.982   6.950   3.665  0.2105  0.0436 -0.2756
 2014W        W18148  12.120  12.213   1.277  0.1533 -0.1284 -0.2083
 2015W        W18149  18.204   2.555  12.665  0.0748  0.0432  0.0108
 2016W        W18150   9.246   6.495  14.043 -0.0828 -0.3626  0.0034
 2017W        W18151   5.513   7.930   3.867  0.0259 -0.1606 -0.2479
 2018W        W18152   4.981  16.510   9.662  0.1078 -0.2459  0.1145
 2019W        W18153  10.156   6.956  14.008 -0.1016 -0.0196  0.0937
 2020W        W18154  15.603   8.014   1.227  0.0488 -0.1781  0.1123
 2021W        W18155  16.917   2.477  12.506 -0.1579 -0.2322  0.1746
 2022W        W18156  11.724  18.633  15.089  0.0773  0.2489 -0.2756
 2023W        W18157   8.622  12.886   1.191  0.1092  0.2622 -0.1321
 2024W        W18158  18.183   7.399  14.981 -0.2720  0.1280  0.1867
 2025W        W18159   0.915  17.439  11.510  0.2714  0.2509 -0.1382
 2026W        W18160  16.046   4.567   2.462 -0.0564  0.1912  0.1739
 2027W        W18161   5.980  12.390  12.429  0.4024 -0.0536  0.0182
 2028W        W18162  15.460   7.862   4.313  0.1661 -0.0435 -0.2072
 2029W        W18163  17.464  17.792  13.150  0.1723 -0.0054  0.1977
 2030W        W18164   9.245  17.735   2.794 -0.0178  0.1253  0.1103
 2031W        W18165   9.549  14.045   2.984 -0.0239 -0.3410 -0.2609
 2032W        W18166   4.796  17.040   0.119  0.2912 -0.1035  0.0450
 2033W        W18167   3.785   1.341   3.549 -0.4091 -0.1454 -0.4850
 2034W        W18168   1.244   5.625  11.481  0.0153 -0.2894 -0.1558
 2035W        W18169  15.603   9.386   1.382  0.1781  0.0187  0.0654
 2036W        W18170   9.977   7.712   0.674 -0.1590 -0.2138  0.3481
 2037W        W18171  16.354   2.627  11.718 -0.0871  0.1010 -0.1633
 2038W        W18172  18.691   5.527   2.250  0.1770 -0.2123  0.4041
 2039W        W18173   8.099   2.878   2.195 -0.1239  0.0562  0.3994
 2040W        W18174  15.675  14.162   4.497  0.2061 -0.0767  0.3378
 2041W        W18175   9.274   0.918  13.628  0.3208 -0.0119 -0.2033
 2042W        W18176   4.976   8.554  13.660  0.1884 -0.0932  0.2977
 2043W        W18177   1.464   0.444  12.172 -0.0095 -0.6445 -0.2184
 2044W        W18178   8.893  11.780  11.475 -0.1903  0.1387  0.0109
 2045W        W18179  13.442   9.445   0.151 -0.0073 -0.2518  0.0768
 2046W        W18180   6.062   0.174   3.656 -0.2396 -0.0163 -0.1772
 2047W        W18181   8.822   0.068   1.556 -0.0159  0.0267  0.2860
 2048W        W18182  11.194  16.312  13.707  0.0567  0.1742  0.2006
 2049W        W18183   2.295  10.588   0.184  0.4176  0.0187  0.1254
 2050W        W18184  12.244   1.288  12.284  0.0643  0.1731 -0.0349
 2051W        W18185  14.505   9.227  13.790 -0.1165 -0.1955  0.3026
 2052W        W18186  13.407   0.943   0.597  0.3379 -0.1843 -0.0682
 2053W        W18187  15.124   4.637  14.338 -0.5551 -0.1163 -0.0724
 2054W        W18188  15.615  13.048  14.301 -0.0422  0.1454  0.0863
 2055W        W18189  15.155  14.618   3.361 -0.2805 -0.2849 -0.6081
 2056W        W18190  14.713  13.563  11.649 -0.2919  0.1628  0.0818
 2057W        W18191   8.463  13.851  11.494  0.2201 -0.1108 -0.0472
 2058W        W18192   8.367  16.054   4.069  0.1832  0.0549 -0.2168
 2059W        W18193   8.168   5.184  12.417 -0.1413 -0.0138 -0.1812
 2060W        W18194   2.447   0.289   2.795  0.1234  0.0761 -0.1738
 2061W        W18195   7.287   9.260   3.782 -0.3243 -0.1711  0.3020
 2062W        W18196  14.337  14.309   4.342 -0.0277  0.1548 -0.0231
 2063W        W18197   8.544   0.374   3.577  0.1566  0.0552 -0.0616
 2064W        W18198  10.143   4.015   4.272  0.0700 -0.1207 -0.3092
 2065W        W18199   2.396  16.131  12.218  0.1028  0.2477  0.0601
 2066W        W18200   0.610  18.404   1.634  0.0937 -0.0212 -0.1087
 2067W        W18201  15.662   4.445   5.428  0.1639  0.1890 -0.0467
 2068W        W18202   5.409   3.699  12.495 -0.1296  0.1070  0.1337
 2069W        W18203   7.933   3.104   3.705 -0.1065  0.1093 -0.1285
 2070W        W18204  17.221  15.577   2.402  0.0295 -0.1076  0.0851
 2071W        W18205  15.143  16.624  14.053 -0.0777 -0.0686 -0.1620
 2072W        W18206  12.162  16.856   4.550 -0.0183 -0.1854 -0.1733
 2073W        W18207  17.427   9.146  13.967  0.0907 -0.2300 -0.1048
 2074W        W18208   3.786   1.230   4.626 -0.1700 -0.0574 -0.0467
 2075W        W18209   6.229   3.290  14.342 -0.0775  0.0673 -0.2700
 2076W        W18210   2.999   6.689   2.225  0.0479 -0.1670 -0.1827
 2077W        W18211   2.246   9.286  12.226  0.0805  0.3484 -0.0035
 2078W        W18212  13.058  10.723   5.232 -0.2450 -0.0917  0.0502
 2079W        W18213  13.684   4.854  14.306 -0.1110 -0.3624  0.1458
 2080W        W18214   1.350  13.085   9.903  0.0014  0.0154  0.0697
 2081W        W18215  14.273   6.090  14.242  0.0184 -0.0984 -0.1704
 2082W        W18216  13.189  13.841   4.737  0.0526 -0.1707 -0.2232
 2083W        W18217  15.046  16.635   9.749 -0.0941 -0.0239 -0.0708
 2084W        W18218  16.186   5.808  11.940  0.1522 -0.0369  0.3381
 2085W        W18219  12.586  13.408  14.853 -0.0646  0.1356 -0.1274
 2086W        W18220   8.848   8.585   1.786 -0.1242  0.0131  0.1880
 2087W        W18221  14.079   7.673   3.029  0.3921 -0.0816  0.1959
 2088W        W18222  13.669   4.158   3.439  0.0139  0.1403 -0.1901
 2089W        W18223  11.148   6.214   5.529  0.0306  0.2954  0.0256
 2090W        W18224  17.908   5.766  12.260  0.0129  0.4113 -0.2080
 2091W        W18225  11.745  18.507  14.196 -0.2511  0.1312  0.1758
 2092W        W18226  15.292   9.812   3.648 -0.1933  0.0166  0.0699
 2093W        W18227   9.075   7.236  10.428 -0.0231  0.0427  0.1196
 2094W        W18228   4.663   0.842   3.906  0.0356 -0.2753  0.2163
 2095W        W18229   3.475   6.617  13.152  0.0299 -0.3937  0.2124
 2096W        W18230  16.303  15.670   1.661  0.0381  0.1321  0.0233
 2097W        W18231   0.077   7.257  12.643 -0.1353 -0.0945  0.1368
 2098W        W18232  12.442  15.911   1.684 -0.0942  0.0979  0.0833
 2099W        W18233   1.103   8.962  13.263 -0.0755 -0.0589 -0.1892
 2100W        W18234   2.720  14.701   3.392  0.2764  0.0859 -0.0780
 2101W        W18235  14.736  17.078   3.513 -0.3111 -0.0454  0.3814
 2102W        W18236  12.969   3.464  11.416  0.2048  0.1103 -0.3655
 2103W        W18237  18.034  15.793  12.990 -0.0225 -0.1171 -0.2520
 2104W        W18238   6.787   9.542   1.847  0.0069  0.1407 -0.0100
 2105W        W18239   9.142   1.104   3.205  0.1523 -0.1493  0.0502
 2106W        W18240  15.368   1.562   1.180 -0.2541 -0.4245 -0.0787
 2107W        W18241   9.812  12.775   3.579  0.1030  0.3964  0.1281
 2108W        W18242  12.139  11.992   4.760  0.0871 -0.0918  0.0135
 2109W        W18243   9.804  16.318  12.000 -0.3600 -0.2415 -0.3959
 2110W        W18244   3.127  18.043   2.332 -0.1425 -0.4011  0.1925
 2111W        W18245   3.091  16.131  15.478 -0.2967  0.1473 -0.2107
 2112W        W18246  10.428   2.623   1.152  0.2335  0.1337  0.3037
 2113W        W18247   2.162   8.099   4.432  0.1084 -0.0359  0.0785
 2114W        W18248  17.027  15.167  11.508  0.0674 -0.1264  0.0525
 2115W        W18249   3.538   5.535   1.918  0.0648  0.1135  0.1513
 2116W        W18250  10.439   6.110   4.660  0.2186  0.0670  0.3496
 2117W        W18251   7.684   0.825  14.297  0.2393  0.3040  0.0591
 2118W        W18252   5.292  11.412   1.344  0.0082 -0.0071 -0.0362
 2119W        W18253  15.447  11.480   2.433 -0.1008 -0.0168  0.0622
 2120W        W18254  14.086   5.259  13.889 -0.1361 -0.0064  0.3806
 2121W        W18255   7.333  17.543   5.030  0.1414  0.1000  0.1633
 2122W        W18256   5.489   1.754   3.112  0.1936 -0.2371 -0.0114
 2123W        W18257   7.491  16.177   2.975  0.0896  0.2814  0.2108
 2124W        W18258  17.620  10.205   3.345 -0.3204 -0.4828 -0.3885
 2125W        W18259  15.377  16.766  15.172  0.0727  0.0999 -0.1439
 2126W        W18260   3.535  10.842  11.376 -0.1478 -0.2986  0.0466
 2127W        W18261  15.127   0.553   1.281 -0.0164  0.4081  0.2033
 2128W        W18262   0.369   5.848  13.986 -0.0101  0.0173  0.1060
 2129W        W18263   3.572   1.427  15.566  0.0649  0.1802  0.2384
 2130W        W18264  18.073  10.778  14.123  0.0381  0.0882 -0.2058
 2131W        W18265   7.072   8.287  10.255 -0.1274  0.0302 -0.0859
 2132W        W18266   1.942  16.421   9.662 -0.1001 -0.0100 -0.1150
 2133W        W18267  12.657   1.642  12.193  0.0088  0.1536 -0.2866
 2134W        W18268  18.389  10.142  13.521  0.0892 -0.0895 -0.0215
 2135W        W18269  13.885  12.520   0.913 -0.0926 -0.1471  0.1015
 2136W        W18270  11.844   9.922   5.712 -0.3300 -0.1121  0.0354
 2137W        W18271  11.868   1.031   2.242  0.0709  0.1432  0.1439
 2138W        W18272  16.233  14.911  10.855 -0.0226 -0.1309  0.0535
 2139W        W18273   4.572   4.999   0.805  0.1170  0.4496  0.0215
 2140W        W18274   9.764   0.560   0.998  0.0718 -0.0264  0.1129
 2141W        W18275  13.456   3.154  12.823  0.0813 -0.0138 -0.0042
 2142W        W18276  12.447   3.291   4.077  0.1797 -0.2234 -0.0523
 2143W        W18277  10.775  13.441  11.794 -0.0014 -0.0437  0.0968
 2144W        W18278  13.543   1.933   2.058 -0.0478  0.2548 -0.1156
 2145W        W18279  17.080   3.062   0.166 -0.0747 -0.1579 -0.0858
 2146W        W18280   4.391   4.302  15.024 -0.0546  0.0062 -0.3359
 2147W        W18281  14.561   8.847   1.738  0.0577  0.1178  0.0140
 2148W        W18282  14.583   6.583   0.958 -0.0173  0.2881  0.3264
 2149W        W18283   1.278  17.768  11.228 -0.0875 -0.0706 -0.0414
 2150W        W18284   5.904   3.468  15.153 -0.1355 -0.1997  0.1318
 2151W        W18285   8.553  17.969  13.554  0.0238 -0.0064 -0.1340
 2152W        W18286  10.407   0.970  10.821 -0.1022  0.0869  0.0791
 2153W        W18287   2.822  13.941  12.767  0.2594  0.0960  0.3921
 2154W        W18288   7.977   5.326  12.928  0.1133  0.0783  0.2571
 2155W        W18289  18.647   8.258   1.079  0.2208  0.0206 -0.2640
 2156W        W18290   2.458   6.348   4.795 -0.0385 -0.1789 -0.2073
 2157W        W18291   3.585  17.191  11.747 -0.1819 -0.0551  0.1897
 2158W        W18292  15.972  13.385  14.197 -0.1020 -0.0571  0.0894
 2159W        W18293   9.479   0.530  14.513  0.1437 -0.2956 -0.1595
 2160W        W18294  10.371  17.683  12.381 -0.2294  0.0197 -0.1787
 2161W        W18295   7.851  17.065   0.751 -0.0918 -0.0382 -0.1744
 2162W        W18296  15.742   2.062  14.407 -0.1371  0.1265 -0.2930
 2163W        W18297   2.629   1.171  11.376  0.0425 -0.0604  0.3051
 2164W        W18298   5.639  17.576   3.044 -0.0095  0.1270  0.2600
 2165W        W18299  10.242   4.371  13.860  0.1918 -0.1462 -0.2548
 2166W        W18300   1.154   6.554   0.556 -0.1010 -0.1437  0.1259
 2167W        W18301   2.190  16.770  12.850  0.0832 -0.0272  0.0466
 2168W        W18302   2.088   5.400  12.560 -0.1965  0.2499 -0.3652
 2169W        W18303  16.669  14.197   1.630 -0.2128  0.0981  0.2768
 2170W        W18304   8.894   5.610  13.938  0.0358 -0.0002 -0.2327
 2171W        W18305  17.254  18.085   3.202  0.0528 -0.0369 -0.2151
 2172W        W18306  16.078   4.848  14.394  0.3683 -0.0038 -0.1019
 2173W        W18307  14.716  12.167  11.377 -0.0807 -0.0213  0.1951
 2174W        W18308   1.367  14.904  14.492 -0.1953 -0.3194 -0.0855
 2175W        W18309   6.080   2.856  12.603  0.0124  0.0431 -0.0076
 2176W        W18310   8.935  10.100  13.713  0.1114  0.2648  0.3790
 2177W        W18311   1.852   4.542  10.938  0.0197  0.0006 -0.0204
 2178W        W18312   5.941  15.123  13.455 -0.0399  0.0643  0.1815
 2179W        W18313  18.511   2.381   3.787  0.0528  0.2743  0.1231
 2180W        W18314   9.487  14.904  15.575 -0.1919  0.2776 -0.0198
 2181W        W18315   3.526   7.626   1.456 -0.0293  0.0535  0.0638
 2182W        W18316   2.254   2.178   5.184  0.0859 -0.1244  0.0449
 2183W        W18317  13.132  11.797  15.561  0.0551  0.1113  0.0925
 2184W        W18318  15.036  14.260   1.026 -0.0926  0.2984  0.2494
 2185W        W18319   5.143  10.721   1.362 -0.0496  0.3300 -0.1991
 2186W        W18320   0.052  15.249  13.220  0.0184 -0.1050  0.2573
 2187W        W18321  16.235   4.538  10.784  0.0126  0.1279  0.1814
 2188W        W18322   3.274   3.788   4.534  0.0099  0.0599  0.0803
 2189W        W18323   0.849  13.729  13.989  0.0367 -0.0568  0.1451
 2190W        W18324   9.358   0.073   0.742 -0.1439  0.1626  0.1682
 2191W        W18325   0.843   8.302  14.062  0.3300  0.2487  0.0487
 2192W        W18326   1.210  15.124   1.233 -0.2014 -0.2686  0.2234
 2193W        W18327  12.237  15.876   0.347  0.1622  0.1243 -0.0129
 2194W        W18328   4.331  18.483  14.903  0.4947  0.0134  0.0003
 2195W        W18329  16.730  16.017   3.730  0.3288 -0.0001  0.2285
 2196W        W18330  13.258  15.462   0.547 -0.2247 -0.1851  0.0125
 2197W        W18331   5.997   1.499   0.068 -0.2391 -0.1803  0.0979
 2198W        W18332   3.761   9.375   2.068  0.0708  0.3481 -0.0566
 2199W        W18333   3.803   8.544  11.510 -0.1398 -0.2036 -0.3472
 2200W        W18334  10.987  12.573  11.743  0.0657  0.0683  0.2394
 2201W        W18335  15.215   0.356  11.087  0.0596  0.2297  0.4431
 2202W        W18336   1.446   5.753   5.261 -0.0543  0.1167  0.2340
 2203W        W18337  14.624  10.847  12.832  0.1237 -0.2674  0.2683
 2204W        W18338  14.965   0.119  13.096  0.0994  0.0719  0.2848
 2205W        W18339   1.302   0.926  12.399  0.0093 -0.0792 -0.0431
 2206W        W18340   4.284  17.107   4.624  0.0162  0.0237  0.1548
 2207W        W18341  16.119   0.269   0.186 -0.3076 -0.1873  0.4087
 2208W        W18342   4.537  17.013  13.503 -0.0409  0.0932 -0.0867
 2209W        W18343  11.854   3.206  10.956  0.0447 -0.1211  0.0496
 2210W        W18344  15.682   9.857  12.430 -0.0550  0.2726  0.0879
 2211W        W18345   5.139   4.983   1.673  0.1253  0.0150 -0.0280
 2212W        W18346  13.413   7.306  15.328 -0.3659  0.3217  0.2325
 2213W        W18347  18.239   4.484  12.121  0.2155 -0.2794  0.1256
 2214W        W18348  16.842   3.349   0.559 -0.1330 -0.2376 -0.0685
 2215W        W18349  11.267   3.183   1.106  0.0650  0.0610  0.1153
 2216W        W18350   8.250  11.338   0.409  0.2181  0.2513  0.1465
 2217W        W18351  13.064  12.037  12.514  0.1380 -0.2451 -0.0379
 2218W        W18352   1.391   6.966  14.004 -0.0327 -0.1967  0.0192
 2219W        W18353  16.288   8.001   5.032 -0.0168  0.0657  0.1887
 2220W        W18354   6.669  15.780   3.101 -0.1480 -0.0180  0.4019
 2221W        W18355  13.561   1.904   5.414 -0.0817  0.1791  0.3750
 2222W        W18356   0.666   2.333   3.406  0.1593 -0.4228 -0.0217
 2223W        W18357   1.902  17.868  15.306  0.1677 -0.2322  0.0958
 2224W        W18358   7.274  15.911  11.932 -0.0043 -0.0773 -0.1663
 2225W        W18359  12.897   1.803   2.081  0.0490 -0.0751  0.2154
 2226W        W18360  18.386   1.246   4.944 -0.2637  0.0834 -0.3900
 2227W        W18361  16.474  14.992   2.206  0.0997 -0.3763 -0.0988
 2228W        W18362   5.994  10.651  14.109 -0.1064 -0.3085  0.2304
 2229W        W18363  15.240   5.434   1.064  0.1963 -0.0507  0.1575
 2230W        W18364   5.439  16.955  15.275 -0.2184  0.0744 -0.3056
 2231W        W18365  16.112   4.377   3.163  0.1576  0.0843  0.2432
 2232W        W18366  18.090  15.260   3.836 -0.0832 -0.0996  0.1310
 2233W        W18367  11.084   9.573  12.545 -0.3300 -0.0302  0.0468
 2234W        W18368   4.490   9.690   0.038 -0.2202 -0.0305  0.2638
 2235W        W18369   5.186  10.385  11.610 -0.1077 -0.1232  0.3501
 2236W        W18370  10.507   5.232   3.585  0.1910  0.2496  0.2077
 2237W        W18371   6.929  12.460  15.284 -0.3750  0.1494 -0.2195
 2238W        W18372   5.078  12.952  11.639  0.1756 -0.0407  0.0360
 2239W        W18373   4.329  13.427   9.624  0.1176 -0.0116 -0.1806
 2240W        W18374  10.142  10.765   1.215  0.3689 -0.1584  0.1399
 2241W        W18375   8.877  17.950  14.074  0.2396  0.1314  0.3164
 2242W        W18376   1.197  15.519  11.131  0.2173 -0.0645  0.0223
 2243W        W18377  10.243   6.854   6.271  0.0601  0.2847  0.3621
 2244W        W18378   7.997  16.874   3.636  0.0127 -0.1652  0.1441
 2245W        W18379  18.493   2.056   0.987  0.0520  0.3755  0.1162
 2246W        W18380  14.656   4.388  11.881  0.1356  0.2985 -0.0706
 2247W        W18381   7.101  14.750   4.160  0.7039 -0.1137 -0.3501
 2248W        W18382   6.502   6.295   3.966  0.2525  0.0469 -0.2093
 2249W        W18383  10.519  17.330  13.909 -0.0584 -0.0016  0.4320
 2250W        W18384  15.612   2.933   4.296  0.1211  0.0527  0.0750
 2251W        W18385  16.174   9.841   3.162  0.2729  0.0223 -0.3835
 2252W        W18386  17.521  16.881  10.940 -0.2784  0.0753  0.1975
 2253W        W18387  14.576   5.405  10.681  0.2826 -0.0456  0.2611
 2254W        W18388   4.915  16.017   1.998 -0.0298  0.0538 -0.1289
 2255W        W18389  17.699   1.065  10.502  0.0221  0.0196  0.1247
 2256W        W18390   4.828   9.977  14.216 -0.1170  0.1145  0.0511
 2257W        W18391   2.724   8.149   3.451 -0.0296  0.1357 -0.1320
 2258W        W18392   1.280   0.578  11.706 -0.6493 -0.2672  0.2653
 2259W        W18393   5.986  14.534  15.441  0.0575 -0.0605 -0.1322
 2260W        W18394  11.643   9.608   0.781  0.1556  0.2550  0.0906
 2261W        W18395   6.404   6.073  15.011  0.2378  0.0347 -0.0992
 2262W        W18396   4.764   7.399  11.742  0.1242 -0.0751 -0.0940
 2263W        W18397   2.582   8.847   5.437 -0.1374  0.4948  0.1239
 2264W        W18398  12.680  16.279  13.119 -0.1225 -0.2939 -0.1154
 2265W        W18399   4.141   8.972  13.826 -0.1068  0.0029 -0.1090
 2266W        W18400   3.674   0.522  13.629  0.0832  0.2098  0.0842
 2267W        W18401   1.482   9.761  15.270 -0.2262  0.0022 -0.1005
 2268W        W18402  18.551  16.036   2.307 -0.2487 -0.4621 -0.1822
 2269W        W18403  18.375   2.679   3.455  0.0194 -0.1348  0.0322
 2270W        W18404   9.095  15.896  14.962 -0.0435 -0.0463 -0.0924
 2271W        W18405   8.262   2.523   4.597 -0.2673  0.0371 -0.1901
 2272W        W18406   0.852  16.589  13.737  0.1899  0.0637 -0.0741
 2273W        W18407   8.854  18.316   3.078  0.2688 -0.0921 -0.0526
 2274W        W18408   8.970   5.801  13.429 -0.1356 -0.0638  0.0758
 2275W        W18409  13.415   4.329   9.726  0.0057 -0.0622 -0.2747
 2276W        W18410   5.045   5.635   0.866  0.1844  0.2224  0.1114
 2277W        W18411  12.275   6.429  13.142 -0.1507  0.0792  0.1402
 2278W        W18412   6.512   4.565   1.911 -0.1026  0.1170  0.0346
 2279W        W18413  16.062  16.698  12.504 -0.1637  0.0715 -0.5704
 2280W        W18414  15.939  15.737   1.942  0.1885  0.1105 -0.0782
 2281W        W18415   1.129  14.542  12.754 -0.1935  0.0105 -0.0704
 2282W        W18416   3.323  13.985  11.893 -0.0015  0.0287  0.0376
 2283W        W18417  17.665  10.221   1.006 -0.3431 -0.1363 -0.0692
 2284W        W18418   9.489  15.426  12.607 -0.0452 -0.0861  0.1757
 2285W        W18419  18.216   4.983  12.048  0.1035  0.1169 -0.1058
 2286W        W18420  10.637  14.912   4.986  0.0057 -0.1450  0.1692
 2287W        W18421  15.331  12.002   3.265 -0.0919 -0.1746  0.0773
 2288W        W18422  13.068  11.970   0.450 -0.1092  0.0084  0.1399
 2289W        W18423  12.820   4.373   5.165 -0.0311  0.3375  0.0492
 2290W        W18424  13.683   9.645   5.680 -0.2410  0.2901  0.0008
 2291W        W18425  13.306  10.494   0.100 -0.1913  0.2345 -0.0377
 2292W        W18426   5.373  13.580  14.127  0.1635  0.0978 -0.1155
 2293W        W18427  12.371   4.410  12.246 -0.1922  0.0714 -0.0108
 2294W        W18428   1.703   0.779   4.655  0.4255  0.1442  0.0968
 2295W        W18429   7.613  18.205  14.510  0.2406  0.1808 -0.2906
 2296W        W18430   5.958  10.438  13.214  0.2617 -0.1474 -0.1677
 2297W        W18431  10.441  16.984   1.395 -0.0064  0.2131 -0.3906
 2298W        W18432   1.492   3.953  13.677  0.2128 -0.0932 -0.0055
 2299W        W18433   2.069  15.792   5.962 -0.2002 -0.1774  0.0667
 2300W        W18434  10.181  16.029   4.027  0.0776 -0.2018  0.2102
 2301W        W18435  13.935  16.266  13.813 -0.2687  0.0292  0.2002
 2302W        W18436   3.841  11.663  15.530  0.1295 -0.0512 -0.0675
 2303W        W18437   8.576  15.415  15.351 -0.0276  0.0076 -0.2410
 2304W        W18438  12.080  14.329   2.339  0.1200  0.0798 -0.0811
 2305W        W18439  17.872  16.502   2.923 -0.0467  0.1007  0.0047
 2306W        W18440  16.030  15.669  10.415  0.1203  0.1224  0.1526
 2307W        W18441   9.103   2.807  15.101  0.0265 -0.1454  0.0860
 2308W        W18442  16.883   1.790  13.583  0.0087 -0.2331 -0.1528
 2309W        W18443   7.671   5.349  12.472 -0.1279  0.0105  0.1074
 2310W        W18444   2.540   1.240   0.304  0.0506  0.1874 -0.2810
 2311W        W18445   0.444  14.915   3.730 -0.3398 -0.1944  0.0795
 2312W        W18446   2.177  12.933  14.623  0.1404 -0.1128  0.1356
 2313W        W18447  10.248  16.069  13.383  0.2490  0.1490 -0.2279
 2314W        W18448   2.980   2.911   5.199 -0.1709  0.4020  0.2674
 2315W        W18449   8.962   4.928   4.853  0.3825 -0.0958  0.0271
 2316W        W18450   4.586   3.142  12.312 -0.1666  0.0133  0.1534
 2317W        W18451  17.338   1.699  10.538  0.1476  0.0212  0.2378
 2318W        W18452  12.320  16.365   4.506 -0.1341 -0.0810 -0.0943
 2319W        W18453   9.024  15.037   4.233  0.0465 -0.2474 -0.1921
 2320W        W18454   6.673  14.791   0.027 -0.2770 -0.0294 -0.0358
 2321W        W18455  10.802   8.613  11.787 -0.0195  0.0974  0.1008
 2322W        W18456  15.334  14.882  11.090  0.3066 -0.0841 -0.2731
 2323W        W18457   5.986   0.900   4.377  0.1785  0.2729  0.0276
 2324W        W18458   8.424  11.392  14.795  0.2113  0.0711 -0.0695
 2325W        W18459   3.391   7.917   5.680 -0.0113  0.0847 -0.2964
 2326W        W18460   5.921   6.169  13.397 -0.0235 -0.1726 -0.1958
 2327W        W18461   3.930  10.871  11.035 -0.0939 -0.1778 -0.0237
 2328W        W18462   1.970   9.170  11.362 -0.1307 -0.0145 -0.2874
 2329W        W18463   3.404   5.405   0.548 -0.0742 -0.2693 -0.0804
 2330W        W18464   4.139   2.941   0.487  0.3182 -0.0381 -0.0297
 2331W        W18465   0.057   3.165  14.376 -0.1809  0.0672 -0.1285
 2332W        W18466  11.696   3.599   3.651 -0.0687 -0.0564  0.2052
 2333W        W18467   8.115  16.959  10.519  0.1019  0.1293 -0.0118
 2334W        W18468  14.795   3.655   4.803  0.0445  0.1977  0.4572
 2335W        W18469  13.409   8.794  10.846  0.0833 -0.0053 -0.0418
 2336W        W18470  15.470   3.471   3.966  0.0304  0.3100  0.0725
 2337W        W18471  12.868   7.743  13.224  0.3525 -0.0946 -0.0235
 2338W        W18472  17.582  14.053   4.449 -0.2726  0.1339 -0.3099
 2339W        W18473  15.798  15.031  12.854 -0.0020 -0.0842 -0.1034
 2340W        W18474   5.934  14.312   3.071 -0.2310 -0.0880 -0.5196
 2341W        W18475   6.707  12.186   3.321  0.3046  0.0533 -0.1823
 2342W        W18476  15.113   1.495   4.384 -0.0293 -0.2373  0.2465
 2343W        W18477   6.891  12.738   0.656 -0.0550  0.0797 -0.2204
 2344W        W18478  11.434   6.839  13.719 -0.0955 -0.2290  0.1218
 2345W        W18479   2.942  18.205  10.640 -0.0176 -0.0903  0.2722
 2346W        W18480  17.583  18.570  10.935 -0.0962 -0.2038 -0.0782
 2347W        W18481  10.796   1.745   3.396  0.0763 -0.0082 -0.0021
 2348W        W18482  14.669  13.909   5.149 -0.0517 -0.2752  0.1574
 2349W        W18483  17.476  15.784   3.162  0.1480  0.2933  0.1374
 2350W        W18484  13.340  18.732   0.928  0.1951 -0.2852 -0.0954
 2351W        W18485   4.964  16.999  13.155  0.0186 -0.1214  0.2323
 2352W        W18486   7.019   2.373   1.611 -0.0951 -0.0733 -0.1948
 2353W        W18487  13.476   6.877   3.204 -0.0191 -0.1079 -0.0783
 2354W        W18488   9.001  12.001   2.130  0.1576  0.0213  0.3447
 2355W        W18489   2.579   0.192   0.338 -0.3052  0.0717 -0.2843
 2356W        W18490  18.574  14.019  13.680 -0.1496 -0.0647 -0.0418
 2357W        W18491  15.067  11.607   0.245 -0.3771 -0.1367  0.1181
 2358W        W18492   9.098  10.113   2.274  0.0922  0.2507  0.5061
 2359W        W18493  11.425   7.806   1.821 -0.0202 -0.1918  0.0497
 2360W        W18494  13.319   3.824   3.151 -0.2128 -0.0305  0.4232
 2361W        W18495   4.895  14.843   4.726  0.0867  0.1876  0.3731
 2362W        W18496  14.056   8.412  12.340  0.1051  0.0654 -0.1783
 2363W        W18497   5.524  16.902  12.952 -0.0094  0.2044 -0.2975
 2364W        W18498  15.422   8.768  10.957 -0.1717 -0.0055  0.0996
 2365W        W18499   0.959  10.811   0.103 -0.1207  0.2142 -0.0968
 2366W        W18500   1.781   2.240   4.064 -0.0401  0.1083 -0.2437
 2367W        W18501  10.832   6.178  11.628 -0.1104 -0.0130  0.0487
 2368W        W18502  13.703   2.565  13.560  0.1566 -0.2300  0.1014
 2369W        W18503   6.972  13.525  14.226 -0.2112 -0.0706  0.2044
 2370W        W18504   5.736   6.448   1.892  0.1194  0.1670  0.2729
 2371W        W18505  11.967  13.352   0.945 -0.4259 -0.1393  0.0850
 2372W        W18506  16.541  15.326  13.577  0.2298 -0.0803  0.0591
 2373W        W18507   5.282  14.975   1.530 -0.1642  0.1273 -0.0165
 2374W        W18508   8.479   5.108   1.319  0.1490 -0.0981  0.1036
 2375W        W18509   3.430  14.605   3.184  0.1865  0.0816  0.0963
 2376W        W18510   5.972  17.035  10.868 -0.1354 -0.1284 -0.2437
 2377W        W18511   2.709   5.078   0.536 -0.2310 -0.0350 -0.0614
 2378W        W18512   3.466  12.258   3.449  0.1083  0.2333 -0.2966
 2379W        W18513  13.883  13.003   1.762 -0.0213  0.1906  0.0276
 2380W        W18514   7.773  11.946   2.687  0.0511  0.0616 -0.1257
 2381W        W18515   7.671   0.914   1.049 -0.1532  0.0239 -0.0702
 2382W        W18516  15.281  17.576   9.816  0.0474 -0.1060  0.2594
 2383W        W18517  11.604   8.554  13.408 -0.0124  0.0452 -0.1453
 2384W        W18518   4.175   6.099   4.576  0.2039 -0.0693 -0.1100
 2385W        W18519  14.396   1.889   2.545 -0.1699 -0.1213  0.2965
 2386W        W18520  11.651   2.384   1.827 -0.0250 -0.1264 -0.0339
 2387W        W18521   4.522   8.975  12.517 -0.4370  0.0490  0.3603
 2388W        W18522   5.080   6.056   4.358 -0.1635 -0.1488  0.1757
 2389W        W18523  17.560   3.583  12.532 -0.0892  0.0306 -0.1542
 2390W        W18524   6.574   8.102   5.460  0.1537  0.1976 -0.0216
 2391W        W18525  15.769   6.956   3.108 -0.0182  0.1843  0.2079
 2392W        W18526   1.951   5.166  12.126  0.0057  0.0962  0.0961
 2393W        W18527  15.371   9.151  14.368 -0.1142 -0.1580 -0.0512
 2394W        W18528   5.823  18.480   0.401  0.1336 -0.0402  0.0416
 2395W        W18529   8.865  15.766   2.186 -0.0667 -0.1204  0.1594
 2396W        W18530  13.476  18.176   0.042  0.0483 -0.0701 -0.4185
 2397W        W18531  17.250   5.127   2.101  0.1700  0.1397 -0.0209
 2398W        W18532   0.547  16.633   1.701  0.1072  0.2461 -0.2570
 2399W        W18533  12.768   2.796  13.285 -0.1020  0.1211 -0.0985
 2400W        W18534   9.810  15.510   2.609  0.0626  0.0398  0.2009
 2401W        W18535   2.894   0.329   1.405  0.2338 -0.0166  0.0563
 2402W        W18536   1.787  10.765   1.483  0.1465 -0.1774  0.1516
 2403W        W18537  10.686   0.342  14.054  0.0559  0.0826  0.0926
 2404W        W18538   7.182  16.298   1.738 -0.2031 -0.0385  0.3117
 2405W        W18539   4.166  12.661  11.456  0.0529 -0.1887  0.4394
 2406W        W18540  16.974   2.850   3.027 -0.1000  0.1681  0.1284
 2407W        W18541  16.326  16.477   5.464 -0.0238  0.0721  0.1909
 2408W        W18542  14.550   4.856  15.381  0.1288 -0.0584 -0.1882
 2409W        W18543   2.384  12.065  14.066  0.0461  0.0186 -0.0575
 2410W        W18544  18.340  15.955   0.894 -0.1620  0.0584  0.0073
 2411W        W18545   3.959   2.404   1.312  0.3155 -0.0766  0.1745
 2412W        W18546   1.637  14.292   3.448 -0.1592 -0.1107 -0.1151
 2413W        W18547   1.836   4.782   3.661 -0.0169 -0.1286  0.0090
 2414W        W18548   1.187   6.309  13.626 -0.0079 -0.2223 -0.1036
 2415W        W18549  15.429   3.311   2.725 -0.2722  0.1283  0.0698
 2416W        W18550  15.493   2.873   0.703  0.0093 -0.0343 -0.1941
 2417W        W18551  17.600  13.683   4.835 -0.0291 -0.0016 -0.1052
 2418W        W18552  10.666  15.866  12.541 -0.0868 -0.0184 -0.0679
 2419W        W18553  17.406  14.881   1.721 -0.0076  0.1756  0.0496
 2420W        W18554   8.895   1.857   0.250  0.0868  0.0376  0.1418
 2421W        W18555  17.554  12.821   2.521  0.2058 -0.0137  0.0842
 2422W        W18556   2.208  17.630   5.378  0.1487 -0.0501  0.0117
 2423W        W18557  18.385  17.882   4.053 -0.1412  0.1564  0.1556
 2424W        W18558  16.213  12.464  11.974  0.1446 -0.0508  0.0284
 2425W        W18559   0.699  15.570  13.632 -0.2167  0.0433  0.1636
 2426W        W18560   0.365   5.804   4.215 -0.0695 -0.0801 -0.4363
 2427W        W18561  17.379   1.105   0.216 -0.0783  0.0453 -0.0308
 2428W        W18562   2.555   3.941   0.897 -0.1060 -0.2341 -0.0392
 2429W        W18563  10.373   0.745   1.733 -0.0900 -0.0602 -0.0817
 2430W        W18564  16.606  17.056   1.474 -0.1885 -0.1083 -0.1241
 2431W        W18565   3.950   6.153   2.523  0.0255 -0.1352  0.0688
 2432W        W18566   2.315   1.861  12.688 -0.0588 -0.0321 -0.2477
 2433W        W18567   6.955  17.575  13.833  0.2510  0.0162 -0.2859
 2434W        W18568  15.000  14.147  14.677  0.1435  0.1687  0.2963
 2435W        W18569  11.688   5.807   5.001  0.1064 -0.0127  0.0534
 2436W        W18570   2.525  18.181   1.484 -0.4137 -0.4809  0.0560
 2437W        W18571  13.272  15.130   5.138  0.0699  0.1545  0.0403
 2438W        W18572   1.532   0.280  10.548 -0.1000 -0.0027 -0.0405
 2439W        W18573  16.044   7.948   1.014  0.0008  0.0726  0.1759
 2440W        W18574   1.551  18.257  10.077 -0.4081  0.0720  0.4310
 2441W        W18575  16.046   7.427   3.126 -0.0717  0.2626 -0.1531
 2442W        W18576   8.868  10.712  12.343 -0.4199  0.0338  0.3874
 2443W        W18577  11.623   8.021  10.602  0.1594 -0.2272 -0.2428
 2444W        W18578   1.186   0.447  10.275  0.1322  0.1058  0.2742
 2445W        W18579   4.181  12.862  15.165 -0.1555 -0.2202  0.1790
 2446W        W18580  13.330   0.841   3.833  0.1751  0.1374  0.2791
 2447W        W18581  13.933  15.699  13.131  0.0233  0.0228 -0.2383
 2448W        W18582  14.148   3.688  14.988 -0.1917  0.3752 -0.0828
 2449W        W18583  10.297   0.968   0.464  0.0889 -0.1392  0.2153
 2450W        W18584  18.062  13.171  13.547 -0.1499 -0.0524  0.3383
 2451W        W18585   0.989  16.115   4.370 -0.0252  0.0956  0.2545
 2452W        W18586  17.052   5.491   4.019 -0.0062 -0.0062  0.2467
 2453W        W18587  14.903  11.949  12.728  0.1826 -0.3156  0.1140
 2454W        W18588   7.982  15.557   1.215 -0.2434 -0.0546 -0.0445
 2455W        W18589   4.041  16.852   3.859  0.1661  0.2516  0.1366
 2456W        W18590   2.102  13.913  15.518 -0.2979  0.4626  0.0040
 2457W        W18591  17.434   5.540  12.313  0.0433  0.4301  0.1445
 2458W        W18592  14.821  18.044  14.954  0.1240 -0.1369  0.3398
 2459W        W18593   3.475   1.854  11.926 -0.0693  0.0023 -0.1419
 2460W        W18594  12.212   2.368  11.199  0.1442 -0.2722 -0.0003
 2461W        W18595  17.965   1.261   0.795  0.0872 -0.2441 -0.2825
 2462W        W18596   7.163   9.626  13.003  0.0176 -0.0923  0.0090
 2463W        W18597  15.378  13.781  15.303  0.1089  0.1142  0.0657
 2464W        W18598   8.589   9.224  11.243  0.0382  0.1537  0.2665
 2465W        W18599  14.458   1.860   4.057 -0.2861  0.1070  0.1144
 2466W        W18600   2.314   7.088  11.307 -0.3929  0.0248 -0.1195
 2467W        W18601   6.771   2.007   0.053 -0.2486  0.2168  0.4441
 2468W        W18602  17.714  14.581   0.984 -0.3453  0.2139  0.1809
 2469W        W18603  12.340  13.236   1.357  0.0856 -0.1147  0.0927
 2470W        W18604   7.974  14.089  14.670 -0.2668  0.1193 -0.0427
 2471W        W18605   8.733  13.481   3.957  0.3075  0.0620  0.0371
 2472W        W18606   7.971   0.418  13.474  0.2510 -0.1487  0.3178
 2473W        W18607  14.027   1.533  13.615  0.0424  0.1825 -0.2047
 2474W        W18608   6.782   0.283   2.893  0.0148  0.1737 -0.0835
 2475W        W18609  17.034  14.697  10.555  0.1036  0.1536 -0.1285
 2476W        W18610   8.870   8.370   1.307  0.2044  0.0045  0.0429
 2477W        W18611  10.716   6.634  14.895 -0.1720 -0.0077  0.3065
 2478W        W18612  16.678  11.553   1.039  0.0998 -0.1350 -0.0181
 2479W        W18613   0.923   3.154   3.621 -0.0793  0.1550  0.0126
 2480W        W18614   8.961   3.130  12.702  0.0438 -0.1510  0.0382
 2481W        W18615  15.881   3.771  10.724 -0.1456 -0.0402 -0.2726
 2482W        W18616   4.396  12.671  14.149  0.2339 -0.0968 -0.0181
 2483W        W18617  17.089  10.758   0.972  0.2016  0.2987 -0.0197
 2484W        W18618   1.127  17.787   1.482  0.0280 -0.2827  0.0590
 2485W        W18619  10.721  15.570   4.359  0.0648 -0.0368 -0.1693
 2486W        W18620   4.119   1.153  14.355 -0.1338  0.2501  0.0569
 2487W        W18621   4.167   8.863   0.913  0.0479 -0.0698 -0.0851
 2488W        W18622   2.211   1.872  11.217  0.0879 -0.0663 -0.0377
 2489W        W18623  13.890   8.161   1.200 -0.0117 -0.0123 -0.0348
 2490W        W18624  14.518   9.212   3.912  0.0854  0.0310 -0.0715
 2491W        W18625   9.542   1.249  13.864 -0.1547  0.0319 -0.3268
 2492W        W18626  17.150   5.195  15.069 -0.1958  0.0398  0.2313
 2493W        W18627  18.151  12.910  14.890 -0.0361 -0.1332  0.1576
 2494W        W18628  11.887   6.770  13.501  0.1929  0.2131  0.2446
 2495W        W18629  14.516   9.166  14.848  0.1348 -0.0538  0.2530
 2496W        W18630   6.599  12.191  10.651 -0.1095 -0.0527 -0.0193
 2497W        W18631   4.979  18.305   4.437 -0.3292  0.1287  0.1015
 2498W        W18632  10.119  12.861   3.179  0.1978  0.0302 -0.1529
 2499W        W18633  13.692  13.820  13.067 -0.0890 -0.3398  0.3473
 2500W        W18634   1.850  13.018   5.442 -0.0655  0.3608  0.1462
 2501W        W18635  17.040   1.431  15.482  0.1247 -0.0612  0.0292
 2502W        W18636   3.349   9.571  10.671 -0.1387  0.1712  0.0647
 2503W        W18637  12.322   5.376  14.457  0.0804 -0.1792  0.2069
 2504W        W18638   8.158   4.320   2.383 -0.0443  0.0145 -0.3961
 2505W        W18639   4.957  11.321   0.100  0.0389 -0.2960 -0.0314
 2506W        W18640  15.568  15.302   0.469 -0.1208 -0.2552 -0.2973
 2507W        W18641   6.745   6.399   4.855 -0.1170  0.0119 -0.2051
 2508W        W18642  11.497  15.719  12.785 -0.1531 -0.0466 -0.0458
 2509W        W18643  13.220   7.975   1.445 -0.1029  0.0684 -0.1290
 2510W        W18644  16.427  16.699   5.036  0.0703  0.1215 -0.2200
 2511W        W18645  15.097  11.188  14.143 -0.0206 -0.5728  0.1668
 2512W        W18646  17.498   7.927   2.741  0.0378  0.1561 -0.2852
 2513W        W18647   4.710   7.853   5.935  0.1267 -0.1453  0.1037
 2514W        W18648   8.632   8.136   1.696  0.1339  0.1613  0.1169
 2515W        W18649   9.767  10.059  13.405  0.0423 -0.1358  0.1334
 2516W        W18650  17.648  11.440  11.023 -0.3818 -0.0268  0.0617
 2517W        W18651  12.381   5.336   9.719  0.0565 -0.1142  0.4053
 2518W        W18652   3.515   2.737   0.104  0.1152  0.0956 -0.1463
 2519W        W18653   5.641   9.805   3.705  0.0747  0.1957  0.1574
 2520W        W18654   6.910   0.332  12.007  0.0701  0.0683 -0.1459
 2521W        W18655   0.896   8.556   0.223  0.2505  0.0131 -0.2948
 2522W        W18656   8.046   0.156   3.605  0.1080 -0.2165  0.0318
 2523W        W18657   3.825  15.532   4.335  0.0689  0.1257 -0.0939
 2524W        W18658  13.953   5.952   1.238  0.0794 -0.0589 -0.3546
 2525W        W18659   7.490   7.634   4.471 -0.0231 -0.3257 -0.0280
 2526W        W18660  17.113  11.817  13.696 -0.0039 -0.0399 -0.2017
 2527W        W18661   6.243  14.048   1.695  0.5178  0.0470 -0.2569
 2528W        W18662   6.635  13.414  14.960  0.2249 -0.2083  0.1128
 2529W        W18663  10.629   1.608   1.856 -0.1589  0.0903 -0.2994
 2530W        W18664  12.513  11.344  12.878 -0.2837 -0.3355 -0.2171
 2531W        W18665   1.406   0.972   5.031 -0.2411 -0.0171 -0.2048
 2532W        W18666  18.720  12.021  13.155 -0.2392  0.2370 -0.0227
 2533W        W18667  12.872   6.140   4.148 -0.1647  0.0593 -0.0321
 2534W        W18668  11.098   1.312   1.608 -0.2561 -0.0001  0.1648
 2535W        W18669  13.213   5.987   0.492  0.1940 -0.1680  0.0038
 2536W        W18670   8.162   0.120  11.629  0.2454  0.2561 -0.2199
 2537W        W18671  12.973  10.937  11.145  0.2558 -0.1396 -0.0297
 2538W        W18672   5.143  14.243   2.186  0.1036 -0.1890 -0.1766
 2539W        W18673  13.473  13.258  11.244  0.1394 -0.0998  0.0194
 2540W        W18674   1.424   4.388  11.143  0.0459 -0.1596 -0.1556
 2541W        W18675   4.045   1.922   1.179 -0.0918  0.3621 -0.1582
 2542W        W18676   1.638   2.387   0.445 -0.0314  0.2424  0.0054
 2543W        W18677  17.289   0.115  14.179  0.0775 -0.0316  0.5362
 2544W        W18678  13.046   3.189  14.000 -0.2121 -0.0598 -0.0366
 2545W        W18679  17.259   0.736  12.153  0.2377  0.0848  0.0465
 2546W        W18680  13.439   1.252   3.495 -0.1624  0.1180  0.2463
 2547W        W18681   9.408   3.156   5.438  0.3033 -0.0703  0.0364
 2548W        W18682  11.520  14.511   4.609 -0.1666 -0.0375  0.2852
 2549W        W18683   5.564   8.151  15.278 -0.1071 -0.2414  0.0297
 2550W        W18684  15.915  16.869   5.126  0.1703 -0.4306  0.1728
 2551W        W18685   6.519  18.619  12.058  0.1622 -0.0058  0.0322
 2552W        W18686   7.893   0.486   1.036  0.0990  0.1388  0.0631
 2553W        W18687  10.568  15.737  14.274 -0.1547  0.0116 -0.3478
 2554W        W18688  13.980   5.634   4.323  0.0325  0.0535 -0.2381
 2555W        W18689   4.682   8.571  15.262 -0.1679  0.2383  0.1449
 2556W        W18690   2.566   9.760   4.951  0.0225  0.0895  0.1767
 2557W        W18691   2.397  15.096  10.830  0.0559 -0.0867  0.0889
 2558W        W18692  16.013  16.214   1.564  0.0387 -0.3414  0.0219
 2559W        W18693  18.523   9.035   0.202  0.2953 -0.1139 -0.0482
 2560W        W18694  10.225  10.507   2.103 -0.1191 -0.1121 -0.0592
 2561W        W18695   4.745  14.477  13.433  0.2923  0.0080  0.0341
 2562W        W18696   3.863   2.589   3.261 -0.4422 -0.2119 -0.0182
 2563W        W18697   1.749  18.682   0.527  0.0351  0.0449  0.1712
 2564W        W18698   2.771   5.315   0.045  0.1086 -0.1155  0.2453
 2565W        W18699   3.544  12.802   4.914 -0.2462 -0.0698 -0.0113
 2566W        W18700  13.164   3.563  12.762 -0.0126  0.2064 -0.2227
 2567W        W18701   9.307  14.949   3.116 -0.1646  0.0533  0.3688
 2568W        W18702  18.727   0.670  12.048 -0.0510  0.1080 -0.0917
 2569W        W18703  15.724  12.912  14.878 -0.0756 -0.0848 -0.1600
 2570W        W18704   2.032   0.197  11.392 -0.0525 -0.3116  0.2299
 2571W        W18705  17.590   9.360   5.054 -0.0036  0.1662 -0.3234
 2572W        W18706   4.040  15.221   0.692  0.1428  0.1621 -0.1578
 2573W        W18707   6.876   9.431   4.214  0.0374  0.4051  0.1684
 2574W        W18708  14.285  16.671   1.784 -0.2347  0.0677 -0.0586
 2575W        W18709  13.275   6.707   1.760  0.0758 -0.2139 -0.1034
 2576W        W18710  16.335  11.714   1.987 -0.0966 -0.3296 -0.1044
 2577W        W18711  17.592  15.445   5.139  0.0776 -0.0809  0.1235
 2578W        W18712  10.528  15.251   9.598 -0.0121  0.1016 -0.1500
 2579W        W18713   1.729  18.591   4.010  0.4141 -0.0699  0.0528
 2580W        W18714   7.640   6.738  15.280 -0.0290  0.1112 -0.3155
 2581W        W18715   6.329  11.089  13.026  0.2193 -0.2100  0.0855
 2582W        W18716  14.634   7.860   0.676  0.2313  0.0786  0.2219
 2583W        W18717  17.129  14.507  12.654 -0.1508  0.1031  0.1519
 2584W        W18718   2.450  15.403   3.432 -0.5359  0.2137 -0.0549
 2585W        W18719  12.050  11.112   1.851 -0.1732  0.1873 -0.1565
 2586W        W18720  12.456  14.148  11.944  0.1838  0.0374 -0.0916
 2587W        W18721   5.687  12.939   4.801 -0.0425 -0.3214  0.0341
 2588W        W18722   1.178   3.469  13.013  0.5049  0.2215 -0.0663
 2589W        W18723   5.266   4.475   3.171 -0.0953  0.0861 -0.0721
 2590W        W18724   9.459  12.593   4.012 -0.0089 -0.0989  0.1562
 2591W        W18725   5.834  11.280  12.486  0.1616 -0.2242  0.0532
 2592W        W18726  14.556  12.326   2.044  0.1564 -0.1346  0.0562
 2593W        W18727  11.132  16.034   2.770  0.1370 -0.1936 -0.2101
 2594W        W18728  18.278   1.023  12.993 -0.1845 -0.1425 -0.1615
 2595W        W18729   8.438  11.619  11.411 -0.0044 -0.1028  0.3307
 2596W        W18730  10.243  17.690  13.800  0.0606 -0.1004  0.2424
 2597W        W18731   7.544   2.388   1.661  0.2004 -0.0230 -0.0116
 2598W        W18732  12.497   6.434   4.154 -0.2358  0.1298 -0.0509
 2599W        W18733  17.348  16.319   3.592  0.1860 -0.1465 -0.3130
 2600W        W18734   5.121   3.390   1.388  0.2222 -0.1406 -0.0396
 2601W        W18735  15.160   1.798   0.420  0.4207  0.0043 -0.0279
 2602W        W18736  11.116  13.479   0.513 -0.0904  0.0738 -0.3452
 2603W        W18737  16.754  14.924  12.831  0.3181 -0.1791 -0.0656
 2604W        W18738  17.027  10.209   0.813 -0.0328  0.0013  0.3743
 2605W        W18739  11.199  16.540   3.837  0.0052 -0.1647  0.2203
 2606W        W18740   9.691   5.302   0.048 -0.0699 -0.2634  0.0439
 2607W        W18741  13.234   6.810   3.600 -0.0874 -0.0391  0.0843
 2608W        W18742  18.534  14.856  13.620 -0.1222  0.1735  0.1748
 2609W        W18743  14.715  12.793   2.281  0.0879  0.2072  0.1188
 2610W        W18744   4.545   0.164   3.262 -0.1735 -0.2038  0.0263
 2611W        W18745   3.565  16.524   0.622 -0.2246 -0.1149 -0.0098
 2612W        W18746  15.643  15.421  12.015 -0.2458  0.1842 -0.0512
 2613W        W18747   7.032  12.311  13.125 -0.2370 -0.0159  0.0103
 2614W        W18748  18.403  10.694   1.538 -0.2106 -0.4767 -0.0739
 2615W        W18749  18.124  17.085  15.431  0.1602 -0.1154  0.0658
 2616W        W18750   4.070  10.897   0.891 -0.1144  0.0002 -0.0546
 2617W        W18751   8.453   1.477   3.749 -0.3438  0.0223  0.1891
 2618W        W18752   6.158  13.103   4.950  0.2497  0.1677 -0.2366
 2619W        W18753  13.593   3.217   4.848 -0.0032 -0.0015  0.0860
 2620W        W18754   7.980  14.212   1.022  0.2637 -0.0857 -0.0056
 2621W        W18755   1.631  13.671   2.031 -0.0272  0.0351  0.2304
 2622W        W18756   2.122   5.891   6.008  0.1238 -0.0800 -0.1094
 2623W        W18757   2.267  11.842   2.732 -0.0447  0.1982  0.0114
 2624W        W18758   5.857   7.009  12.796  0.2113 -0.1186  0.1334
 2625W        W18759  14.608  12.143  14.983 -0.0184  0.1310  0.0385
 2626W        W18760   0.995   4.976   5.127  0.0856 -0.3780 -0.1629
 2627W        W18761  11.674  13.197  11.747  0.0922  0.0270  0.1499
 2628W        W18762   5.491   0.316  13.776  0.2191  0.1183 -0.0039
 2629W        W18763   3.400   3.401   2.297  0.1118  0.0490  0.1500
 2630W        W18764  13.322  12.803  14.841  0.3229  0.1152 -0.0130
 2631W        W18765  10.504  18.612   4.699 -0.1046 -0.2272 -0.1972
 2632W        W18766  10.558   7.163  11.891  0.0597 -0.0125 -0.0298
 2633W        W18767   5.363  12.634   4.095 -0.1949 -0.0828 -0.1142
 2634W        W18768  13.239   5.423   3.256  0.1756 -0.1557  0.0120
 2635W        W18769   8.351   8.549  15.036  0.1544  0.1710  0.1891
 2636W        W18770  14.315  12.734  15.092 -0.3494 -0.1201 -0.0511
 2637W        W18771  18.579  11.940   0.099 -0.1831 -0.1436  0.3038
 2638W        W18772   0.288  13.849  12.003 -0.1560  0.2115  0.3072
 2639W        W18773  14.407  16.561   9.858  0.0116 -0.2664  0.1474
 2640W        W18774   1.136   9.076   0.969 -0.1055  0.3040  0.0471
 2641W        W18775   1.702   1.208   2.386 -0.1902 -0.1762 -0.2187
 2642W        W18776   5.937  16.640  12.112 -0.3134 -0.0926 -0.0001
 2643W        W18777   7.098   7.019   4.982  0.1334 -0.0654  0.0982
 2644W        W18778   2.851   2.542  12.574 -0.1087  0.1789  0.1456
 2645W        W18779  10.176   3.423   1.615 -0.1227 -0.2455  0.1249
 2646W        W18780  13.770  11.454  10.987  0.0649 -0.0868 -0.2878
 2647W        W18781  11.419  18.446  14.598  0.2315  0.2308  0.2175
 2648W        W18782  15.946   7.330   1.100 -0.1222  0.2269 -0.4056
 2649W        W18783  17.169  11.150   3.127 -0.0757  0.1309 -0.0282
 2650W        W18784   6.278   6.082  12.795 -0.1506  0.1975 -0.2428
 2651W        W18785   1.712   0.559   3.205  0.0906  0.0534 -0.0597
 2652W        W18786  15.505   8.669   2.219  0.0852  0.1055  0.0747
 2653W        W18787   3.174  13.831   1.880 -0.0147  0.0818 -0.1608
 2654W        W18788   6.464   9.956   3.545 -0.1211 -0.1609  0.0866
 2655W        W18789   4.887   8.895  11.852  0.1740 -0.1170  0.0852
 2656W        W18790   9.264   7.883   5.037  0.2642 -0.2710  0.3999
 2657W        W18791   1.849  16.698  11.715 -0.2823 -0.0541  0.2602
 2658W        W18792   6.019  14.818  13.839 -0.4785  0.1342  0.0768
 2659W        W18793   5.203   5.621   3.898  0.2708  0.0926  0.2098
 2660W        W18794  17.666   4.801   0.240 -0.3871  0.2267  0.0924
 2661W        W18795   7.708  15.318  14.190  0.1159  0.3056 -0.1977
 2662W        W18796  17.430  15.082   2.897  0.0875  0.0340  0.0759
 2663W        W18797   2.322   7.508   2.338  0.2191  0.1255  0.0892
 2664W        W18798   4.219   6.116   2.068 -0.1266 -0.1070  0.3026
 2665W        W18799   9.205  11.224   3.933 -0.0440  0.2265 -0.2397
 2666W        W18800   6.632  14.385  14.884  0.1137  0.4583  0.4692
 2667W        W18801  15.160  16.134   4.243  0.3278  0.1184  0.0139
 2668W        W18802  16.567  18.202   0.220 -0.0273 -0.0144 -0.2719
 2669W        W18803   1.520   6.234   4.954  0.3088  0.1495  0.3512
 2670W        W18804  17.709   5.175   4.771  0.0850 -0.0070 -0.4169
 2671W        W18805   1.582  12.599   5.130 -0.1416  0.2695  0.0714
 2672W        W18806   0.242  18.670   2.686  0.3132  0.1637  0.1366
 2673W        W18807  14.771   7.891   0.174  0.0858 -0.0760  0.0280
 2674W        W18808   8.331   6.423  13.672 -0.1466 -0.3637  0.1086
 2675W        W18809   2.380   4.712  13.862  0.2162 -0.2517 -0.1341
 2676W        W18810  16.637  10.259  15.261  0.1004 -0.2910 -0.0882
 2677W        W18811   3.794  10.714  12.573 -0.0326 -0.1457  0.2117
 2678W        W18812   5.371   1.068   2.532 -0.2371  0.2073  0.0324
 2679W        W18813   1.572   4.235   2.844  0.0821  0.0911 -0.0856
 2680W        W18814   8.092   5.856  15.134  0.2179  0.0889 -0.2024
 2681W        W18815   0.311   9.035  10.290  0.0513 -0.1142 -0.1477
 2682W        W18816  12.411   7.769   2.781 -0.4789 -0.0695  0.2455
 2683W        W18817   7.518  11.852   5.191  0.2244 -0.1377 -0.0421
 2684W        W18818   2.404  12.682  13.116 -0.0696 -0.0882 -0.0572
 2685W        W18819   0.434   5.889   3.692 -0.0841 -0.0423 -0.1524
 2686W        W18820   4.984  16.152  13.382 -0.3181 -0.1002  0.1438
 2687W        W18821   3.400   8.440  13.471 -0.1884  0.2109 -0.1161
 2688W        W18822  12.618   4.142   0.188 -0.2060  0.1456  0.1982
 2689W        W18823  12.873  15.247  12.594  0.3590  0.1347  0.2354
 2690W        W18824   8.225   6.504   3.663 -0.0094  0.1014 -0.0186
 2691W        W18825  11.653   6.855   4.595  0.1022  0.3606 -0.1423
 2692W        W18826  17.877  16.430   3.445  0.0161  0.1340 -0.1798
 2693W        W18827   6.444   2.613  11.004  0.5632  0.1853 -0.0797
 2694W        W18828   0.909  18.027   1.890 -0.1118 -0.0420 -0.0487
 2695W        W18829  10.068  11.118   5.051 -0.0868 -0.2225 -0.0886
 2696W        W18830   0.721   6.325  11.739 -0.1360 -0.0060 -0.2216
 2697W        W18831  11.542   5.680   1.096  0.0865  0.0989  0.2999
 2698W        W18832   6.067   6.013  13.872 -0.3669  0.1439 -0.1147
 2699W        W18833  18.434  10.566  13.837  0.0270  0.0980  0.0997
 2700W        W18834   1.206  17.666   2.585 -0.3565 -0.0570 -0.1755
 2701W        W18835  12.662  16.432  10.753  0.1926 -0.1793 -0.0442
 2702W        W18836  11.667   3.163   0.721 -0.1456  0.2990  0.0503
 2703W        W18837  11.483   1.674  13.078  0.1873  0.1375 -0.0131
 2704W        W18838  12.888  11.404  14.081 -0.2749 -0.0504 -0.0589
 2705W        W18839  12.583  15.627   3.252 -0.2313 -0.1575  0.0094
 2706W        W18840  10.514   0.245   1.680 -0.1903  0.1432  0.0993
 2707W        W18841  18.494   6.701  15.379  0.0160  0.1861 -0.0120
 2708W        W18842   1.822   5.978   2.445 -0.0757 -0.0719 -0.2739
 2709W        W18843   1.813  13.837  10.968 -0.1084  0.0843 -0.1811
 2710W        W18844   3.846   2.402   4.027 -0.1128  0.1735  0.1439
 2711W        W18845   7.827  17.210   1.814 -0.1983 -0.1346 -0.1338
 2712W        W18846  11.117   0.951  13.117  0.0930  0.1238 -0.0869
 2713W        W18847   3.807   2.042   9.831  0.1712  0.2373 -0.1166
 2714W        W18848  10.591  14.285  11.676  0.3180  0.2002 -0.2170
 2715W        W18849  17.190   8.340   2.786  0.0636 -0.2109  0.1388
 2716W        W18850  17.308   1.624  15.076  0.1624 -0.2913  0.2414
 2717W        W18851   9.971   8.648  13.292  0.3752  0.1807 -0.3016
 2718W        W18852   9.887   8.794   4.336 -0.1039  0.0644  0.1452
 2719W        W18853  10.617  14.638  14.018  0.1010  0.3254 -0.1794
 2720W        W18854   9.481  11.860   4.406 -0.3288 -0.3087  0.0487
 2721W        W18855   7.733   5.925  15.468  0.0738  0.0207  0.0381
 2722W        W18856   9.338  17.101  14.557 -0.7385  0.0378 -0.0808
 2723W        W18857   7.739   8.904  14.297 -0.1029 -0.0936  0.2236
 2724W        W18858  14.872   2.393   5.273 -0.3010 -0.0461 -0.2158
 2725W        W18859  12.782   8.937   2.253 -0.1813 -0.0698 -0.0159
 2726W        W18860   4.605   1.008   1.200 -0.3186  0.0656  0.2937
 2727W        W18861  15.809  16.350  12.136 -0.0320 -0.1023 -0.1922
 2728W        W18862   1.214   8.594  12.875  0.0261 -0.2710  0.0720
 2729W        W18863  11.525   9.219  11.033  0.1593 -0.0569 -0.1288
 2730W        W18864   0.819   9.612   4.681 -0.0057  0.2738  0.0048
 2731W        W18865  15.428   6.402   4.440 -0.0784  0.0869  0.0798
 2732W        W18866   2.620   4.610  11.130  0.0483  0.0283 -0.0384
 2733W        W18867   7.327  13.089   4.990  0.1744  0.0689 -0.0948
 2734W        W18868   0.623   7.847  11.043 -0.0474  0.0322 -0.0399
 2735W        W18869   9.470  13.357   3.630 -0.1162 -0.0650  0.0224
 2736W        W18870   2.911   8.468  12.389 -0.0006 -0.0323 -0.3859
 2737W        W18871  11.954  12.831   0.806  0.3118 -0.1158  0.1815
 2738W        W18872   5.183  11.448  13.798  0.2836 -0.3495  0.1539
 2739W        W18873  13.848   0.686  13.336  0.1597 -0.0424  0.0046
 2740W        W18874   8.687   9.223  10.311  0.0019  0.0018  0.1369
 2741W        W18875   7.536   5.531   2.271  0.3061 -0.0855 -0.2252
 2742W        W18876   8.295   9.571   3.847 -0.0658  0.3288  0.0812
 2743W        W18877   0.750   1.901   5.765 -0.1160  0.1597  0.2078
 2744W        W18878   6.300   4.867  11.843  0.1276 -0.1006 -0.2832
 2745W        W18879   7.936   5.025  15.007 -0.0364 -0.3021  0.2245
 2746W        W18880   9.558  11.836   3.170  0.0871  0.0187 -0.0779
 2747W        W18881   3.261   2.941  10.756  0.0808 -0.2578 -0.0655
 2748W        W18882   7.069   6.316  10.940  0.0363  0.0909  0.0100
 2749W        W18883   8.730   8.732  11.556 -0.2033  0.2935 -0.3255
 2750W        W18884   9.957   3.274   3.868 -0.1335 -0.0837 -0.0120
 2751W        W18885   6.120  10.424  10.846  0.1635  0.2480  0.0537
 2752W        W18886   6.506   5.581  12.934  0.1836  0.0179  0.2163
 2753W        W18887   7.107   0.692   4.480  0.0470 -0.1731  0.0902
 2754W        W18888   9.956  11.435  14.242 -0.0190 -0.1653 -0.1908
 2755W        W18889   4.159  15.094   4.622 -0.2087 -0.1471 -0.0625
 2756W        W18890  14.610   9.471  10.900  0.0028 -0.1505 -0.1235
 2757W        W18891   5.496   6.313  15.228 -0.1026 -0.2597  0.1422
 2758W        W18892  10.558  15.360  12.650  0.3034 -0.0434 -0.1624
 2759W        W18893   5.056  15.990   4.678  0.1033 -0.1775 -0.1492
 2760W        W18894  17.097   7.319   2.098 -0.1426 -0.0214 -0.0832
 2761W        W18895  15.663  11.448   1.528  0.3242  0.2096 -0.1359
 2762W        W18896   9.587   4.090  12.035  0.0956  0.0598  0.1131
 2763W        W18897   0.937  12.491   3.745 -0.0410  0.3003  0.2377
 2764W        W18898  12.636  11.144   0.924  0.0975 -0.2408 -0.0891
 2765W        W18899   4.552   4.963  11.860  0.2200  0.0788  0.1817
 2766W        W18900  17.881  14.567  11.372  0.1158 -0.2223 -0.1269
 2767W        W18901   5.252   1.401   5.132 -0.1633  0.0098 -0.1548
 2768W        W18902   2.912   6.417   5.056  0.2208  0.2052  0.1895
 2769W        W18903  12.671   9.800  14.592  0.0416 -0.1449  0.0090
 2770W        W18904   4.756   7.623   0.682  0.1211 -0.3426  0.1504
 2771W        W18905  15.048   7.989  12.992  0.1323  0.1241 -0.1377
 2772W        W18906   8.601  17.053  10.662 -0.0133  0.1290 -0.3401
 2773W        W18907  11.563  11.805  10.981  0.0973  0.0742 -0.4431
 2774W        W18908  11.818   6.068  12.443  0.0861  0.2089 -0.1102
 2775W        W18909   4.760   9.800   0.549  0.1457 -0.2227  0.1935
 2776W        W18910  14.935   4.880  11.243  0.0861 -0.2505  0.0076
 2777W        W18911  14.669  16.892   0.310  0.1133 -0.1170  0.0808
 2778W        W18912   3.144   9.761  14.413 -0.0904 -0.0098 -0.1214
 2779W        W18913   4.977  13.851  12.780 -0.2300  0.0787  0.0456
 2780W        W18914   4.908  12.483   0.769 -0.1753  0.2858 -0.2325
 2781W        W18915  17.719  12.156   5.216 -0.3137 -0.1280 -0.3441
 2782W        W18916  12.259   9.297  13.229 -0.0162  0.1047  0.1723
 2783W        W18917  14.808   1.939   5.023  0.1195  0.2637 -0.0600
 2784W        W18918   1.354   6.782   0.224  0.2999  0.1364 -0.1783
 2785W        W18919  16.040   8.424   5.175 -0.0103 -0.0884 -0.5678
 2786W        W18920   7.600  15.054   0.003  0.0843 -0.3006 -0.3162
 2787W        W18921   4.339   7.078  12.959 -0.1686  0.1097  0.1539
 2788W        W18922  14.188   6.452   1.280  0.0029  0.0050  0.0730
 2789W        W18923   6.446   5.235  14.848 -0.0837 -0.0068 -0.1152
 2790W        W18924   0.765  10.106  11.085 -0.1278  0.1729 -0.0298
 2791W        W18925  10.227  15.746   4.474 -0.1375 -0.0983 -0.0625
 2792W        W18926   7.248   6.492  12.032  0.0741 -0.0228 -0.0734
 2793W        W18927   0.484  17.784  13.306 -0.2400  0.3340 -0.2453
 2794W        W18928   6.991  11.321   1.482 -0.0714  0.0283 -0.0482
 2795W        W18929  13.631   5.411  12.232  0.0811 -0.2069  0.0662
 2796W        W18930   6.817   5.093  13.562  0.1870 -0.2269 -0.0021
 2797W        W18931   5.312   6.292  13.073  0.4432  0.0688 -0.0154
 2798W        W18932  13.104   4.419  11.511 -0.2087 -0.1216  0.1625
 2799W        W18933  15.280   2.162   2.969 -0.0508  0.1735 -0.4683
 2800W        W18934  14.130   9.256   0.947 -0.0282 -0.4677 -0.0648
 2801W        W18935   0.791  18.425   2.191  0.0043 -0.2538 -0.0887
 2802W        W18936   9.731   7.064  11.447  0.0256 -0.1421 -0.0080
 2803W        W18937   8.647  13.377   4.799 -0.2858 -0.1768 -0.2049
 2804W        W18938   5.358   2.312  15.392 -0.0174  0.1139 -0.0350
 2805W        W18939   4.536   6.065   5.010  0.0289  0.0827  0.2415
 2806W        W18940   8.211  18.489  15.261 -0.0040  0.1814  0.2456
 2807W        W18941  17.475  10.715   5.408  0.1992  0.0490 -0.0368
 2808W        W18942  12.602  12.653  13.736  0.2047  0.0053  0.0684
 2809W        W18943   9.215   1.095   5.190 -0.0842 -0.0709  0.0708
 2810W        W18944   9.533   9.019  11.090  0.1418  0.0836  0.0658
 2811W        W18945   5.487  15.920  11.840  0.0994 -0.3228  0.0360
 2812W        W18946   2.803   1.084  12.768 -0.3703 -0.0349  0.3731
 2813W        W18947   6.350   7.047  14.150  0.2083  0.0040 -0.0708
 2814W        W18948  17.232   7.441   2.965 -0.3166  0.2393 -0.0226
 2815W        W18949  11.966   4.038  15.387 -0.2479  0.0849 -0.3086
 2816W        W18950   1.609   0.938  11.903 -0.0131  0.1698  0.1493
 2817W        W18951   1.397  12.747  13.088 -0.3064 -0.0352  0.0034
 2818W        W18952   9.934  11.359   0.350  0.3209 -0.2435 -0.1158
 2819W        W18953  10.188   2.043  14.858  0.0996  0.1084 -0.0175
 2820W        W18954  13.295   9.935  11.856 -0.1234 -0.0371 -0.1716
 2821W        W18955   5.906   8.328  14.872 -0.1346 -0.0973 -0.3414
 2822W        W18956   1.343   1.495  12.292  0.0636  0.0532 -0.1120
 2823W        W18957   9.468   3.898  14.364  0.1611 -0.0779  0.1244
 2824W        W18958  16.671   2.446   3.012 -0.2460 -0.1246 -0.4703
 2825W        W18959   0.184  14.833  11.767 -0.1078  0.0856  0.0608
 2826W        W18960  14.549  10.405   3.152  0.0790 -0.1241 -0.1368
 2827W        W18961  11.224  11.452   3.819 -0.2708  0.1076 -0.2917
 2828W        W18962   3.758  16.403   3.589  0.1643  0.0797 -0.1131
 2829W        W18963  15.000   4.614  15.543 -0.1893  0.0812  0.0691
 2830W        W18964  18.429   6.033  13.265 -0.1953 -0.0696  0.0010
 2831W        W18965   0.878  11.372   5.064 -0.2462 -0.0776 -0.1932
 2832W        W18966   2.467   7.033   2.905  0.2946  0.0293  0.1490
 2833W        W18967   0.672  14.220  14.003  0.1922  0.1981  0.0007
 2834W        W18968  12.121  18.020  12.962  0.1044 -0.1213 -0.1336
 2835W        W18969   1.259   3.104   3.022  0.1298 -0.1105 -0.3384
 2836W        W18970   9.907   5.200   4.805 -0.1015 -0.1996 -0.0442
 2837W        W18971  16.837   2.911  12.267 -0.1701  0.1409  0.0217
 2838W        W18972   3.191   7.156  11.411  0.1161  0.1428 -0.4106
 2839W        W18973  11.424   7.227  10.159 -0.3379 -0.4150  0.2184
 2840W        W18974  13.036  15.561  14.696  0.3355  0.2015  0.1159
 2841W        W18975  14.325  14.354  12.066  0.1586  0.0784 -0.1586
 2842W        W18976   7.334   2.232  14.119  0.0365  0.2629 -0.1465
 2843W        W18977   5.673  13.668  11.624 -0.0080  0.1848 -0.0933
 2844W        W18978   0.214  15.714  13.345  0.3258 -0.0532 -0.2361
 2845W        W18979   5.333   3.730   1.665 -0.0430 -0.1627  0.1626
 2846W        W18980  16.257  16.208   3.682  0.4099 -0.0682 -0.0178
 2847W        W18981   8.693  11.879  12.625 -0.1205  0.1284 -0.1758
 2848W        W18982   9.826  15.980   0.498 -0.0370  0.0699  0.1129
 2849W        W18983   3.351  16.490  11.520 -0.1884 -0.1587 -0.0370
 2850W        W18984   5.336   9.033  11.542 -0.4164  0.0860 -0.1842
 2851W        W18985   1.107  17.641  14.180  0.1022 -0.1067  0.1271
 2852W        W18986   0.851  11.090   2.436  0.2577 -0.0077  0.0813
 2853W        W18987  12.327  15.492   1.448 -0.0956 -0.3103  0.1969
 2854W        W18988  11.807  17.727  15.149 -0.1158  0.1654  0.0347
 2855W        W18989  11.939   5.805   2.851  0.0860 -0.1483 -0.3557
 2856W        W18990   8.798   7.503   0.479  0.0249 -0.0737  0.1698
 2857W        W18991   1.155   5.827   3.190  0.0402 -0.1064  0.0130
 2858W        W18992  17.260  18.586  11.399 -0.0448 -0.1663  0.1368
 2859W        W18993  13.112   2.206   2.329 -0.2126 -0.3855  0.1233
 2860W        W18994   8.740   6.478   2.861 -0.0524  0.0426  0.2085
 2861W        W18995   1.489   1.685   1.246  0.0694 -0.0921 -0.0706
 2862W        W18996   6.504  10.256  15.359 -0.1591  0.0232 -0.3049
 2863W        W18997   2.681  15.635  14.915 -0.2542 -0.1706 -0.0226
 2864W        W18998  16.237  10.817  11.338  0.0549 -0.0666 -0.1595
 2865W        W18999   8.570   5.578   4.282 -0.0003 -0.0227  0.2166
 2866W        W19000   6.730  15.663   0.019  0.0819 -0.0298  0.0420
 2867W        W19001   3.257  13.658   1.146 -0.1261 -0.5082  0.0968
 2868W        W19002   6.706   0.733   0.639  0.1988 -0.0193 -0.1148
 2869W        W19003   2.410   8.473  11.505 -0.2544  0.2365 -0.0594
 2870W        W19004  17.642   6.746   6.114 -0.2586 -0.2364  0.1345
 2871W        W19005   6.325   5.870  13.438 -0.0019  0.0133  0.4479
 2872W        W19006   2.451   2.717  14.980  0.1549  0.4253 -0.2974
 2873W        W19007   6.637   7.916   0.690 -0.2205 -0.0256 -0.2682
 2874W        W19008  14.664   5.719  13.602  0.1695  0.0816 -0.1703
 2875W        W19009   0.904   1.371  13.084 -0.4812 -0.0927  0.0617
 2876W        W19010   1.757   6.502   1.635 -0.0946  0.1989  0.0392
 2877W        W19011  12.564  16.164   5.438 -0.0962 -0.0526  0.1420
 2878W        W19012  10.225  10.873   0.169  0.2720  0.2187 -0.0788
 2879W        W19013  17.667   5.503  12.782 -0.2564 -0.0670 -0.1019
 2880W        W19014  15.548   2.578   3.896 -0.2126  0.1449 -0.0541
 2881W        W19015  18.446   4.339  15.230 -0.0572 -0.0428 -0.0783
 2882W        W19016  13.439   7.874   3.277 -0.1937  0.0763  0.1719
 2883W        W19017  18.606   3.309   2.766  0.1421  0.3497  0.0532
 2884W        W19018   9.872   6.466  12.208 -0.3571 -0.1391 -0.0732
 2885W        W19019  10.884  17.053  10.949 -0.1880  0.0119 -0.1072
 2886W        W19020   1.062  12.907  11.695  0.0100  0.0061  0.0175
 2887W        W19021  13.471  12.500  13.887 -0.3830 -0.0441 -0.1529
 2888W        W19022   9.729  13.503   0.398  0.1260 -0.0173  0.0060
 2889W        W19023  12.361   8.340  14.601 -0.0300 -0.1026 -0.0130
 2890W        W19024   5.084  14.996   2.283  0.2382  0.3672 -0.4282
 2891W        W19025   9.543  17.239   5.698 -0.0876  0.0013  0.0363
 2892W        W19026   4.311   8.793  10.782  0.2172  0.1759 -0.1356
 2893W        W19027  13.917   7.314   5.177 -0.2920 -0.0489 -0.1359
 2894W        W19028   9.982   6.002  10.402  0.3848 -0.1582  0.2834
 2895W        W19029  12.788   4.000   2.844  0.0288  0.0340 -0.2082
 2896W        W19030  17.069  15.065   3.687 -0.1862 -0.0338  0.1301
 2897W        W19031   6.544  18.455   5.227 -0.4457  0.0268  0.3850
 2898W        W19032  12.560   7.286  13.900  0.1794  0.2314 -0.3043
 2899W        W19033  10.056   2.374   4.946  0.1774  0.0032  0.2765
 2900W        W19034  16.385   9.280   4.569  0.1314 -0.0012 -0.3112
 2901W        W19035   3.950  15.345  14.094  0.0346 -0.0407  0.0164
 2902W        W19036   0.504  13.928  10.851 -0.1613 -0.2260  0.0613
 2903W        W19037   0.763  10.696   1.518 -0.1307  0.0740  0.0446
 2904W        W19038   2.820  10.454   4.816 -0.2288 -0.3350 -0.0782
 2905W        W19039   4.933  16.557  11.720 -0.1615  0.1088  0.0393
 2906W        W19040   0.885   3.869   3.595  0.1886  0.1762 -0.1840
 2907W        W19041   9.665  17.843  13.154  0.0319 -0.1832 -0.0813
 2908W        W19042   1.987   0.524   3.657  0.0375 -0.0087 -0.0348
 2909W        W19043   2.814   9.064  13.737 -0.1272  0.1170 -0.0187
 2910W        W19044   6.971  17.776   4.599  0.1626 -0.0667  0.1254
 2911W        W19045  13.796  17.617   4.782 -0.1204 -0.0213 -0.0822
 2912W        W19046   9.951  18.208   2.262  0.4375 -0.0720 -0.0520
 2913W        W19047   3.883  11.827  14.791  0.1638  0.1123  0.0135
 2914W        W19048   3.884   1.322   0.582 -0.0513 -0.1011  0.4277
 2915W        W19049   6.216   2.591  11.842  0.2720  0.1008 -0.0291
 2916W        W19050   3.130  14.818   1.829  0.1225  0.2551  0.3369
 2917W        W19051  15.268  12.931  15.258  0.0084  0.1545 -0.2295
 2918W        W19052  17.114   3.398  10.856  0.1078  0.2252  0.2609
 2919W        W19053   8.911   0.099  13.292 -0.2663  0.1200 -0.2920
 2920W        W19054   5.856  11.743   2.932 -0.1003 -0.0583 -0.0302
 2921W        W19055   4.392   3.312  11.326 -0.1267  0.2229 -0.0525
 2922W        W19056   6.390  17.330  12.566 -0.1916  0.2965  0.1647
 2923W        W19057   8.012  15.092   3.766  0.2152  0.2164 -0.2717
 2924W        W19058  12.335   7.032   3.246  0.2972  0.2184  0.3240
 2925W        W19059   7.622  17.927   0.699  0.0681 -0.3976 -0.0484
 2926W        W19060   2.383   0.096  10.499 -0.1000  0.1689  0.0720
 2927W        W19061   4.911   1.857  10.770 -0.0641  0.1338  0.0679
 2928W        W19062   4.982   5.799  15.007 -0.1006  0.0603 -0.0037
 2929W        W19063   2.028   5.815  15.349  0.2934  0.5936  0.1113
 2930W        W19064   1.993  18.169   1.761  0.2635 -0.0770  0.1437
 2931W        W19065  10.008  13.957  11.746  0.0540  0.1119 -0.1167
 2932W        W19066  17.907   4.592   3.551 -0.0688 -0.1169 -0.1327
 2933W        W19067   0.944  11.132  14.118  0.1261  0.1191  0.1787
 2934W        W19068  13.868  14.920   2.144 -0.0982 -0.0073  0.3084
 2935W        W19069  13.957  13.601  14.954  0.1794 -0.1770 -0.0853
 2936W        W19070  17.286   2.779  11.128  0.2432  0.0594  0.1204
 2937W        W19071   5.303  17.222   2.746 -0.0738 -0.1052  0.1517
 2938W        W19072  12.179  15.149   5.367 -0.1463  0.0334 -0.0017
 2939W        W19073  14.264  17.510  10.909  0.0716  0.1222 -0.0619
 2940W        W19074   2.995   1.558   3.566 -0.0405 -0.1669  0.0778
 2941W        W19075  18.078   9.742   2.282 -0.0802 -0.2323  0.2032
 2942W        W19076   3.405   9.898  14.865 -0.1280  0.1060 -0.0303
 2943W        W19077   5.561   6.190   3.889  0.1242 -0.1489 -0.1719
 2944W        W19078  13.762   9.719   4.910  0.1898  0.0652 -0.1130
 2945W        W19079  15.560   0.193  11.472  0.1890  0.0743  0.0909
 2946W        W19080   1.101   3.494  12.078 -0.2391 -0.2227 -0.0793
 2947W        W19081   3.086  13.413  14.331 -0.3535 -0.2056 -0.0183
 2948W        W19082   6.336  12.318  14.513 -0.2310  0.1076 -0.1549
 2949W        W19083   5.182   6.448  11.045  0.3207 -0.0110  0.0059
 2950W        W19084   7.852   2.714   1.344  0.0110 -0.3023  0.2616
 2951W        W19085  17.359   3.011   1.439  0.2620 -0.2498  0.0132
 2952W        W19086  15.648   9.576   2.654 -0.3491 -0.2783 -0.0383
 2953W        W19087   3.381   5.953   0.627 -0.1939 -0.5773  0.0969
 2954W        W19088   0.195   0.718   3.892  0.1423 -0.0480 -0.0606
 2955W        W19089  17.274   8.180   4.604  0.3158 -0.3564 -0.1763
 2956W        W19090   9.176   0.337  10.002  0.0598 -0.0875  0.0716
 2957W        W19091  18.193  15.881  13.800  0.1367  0.2003  0.1329
 2958W        W19092   4.564   4.793  13.747  0.1054 -0.1286  0.0014
 2959W        W19093  16.588  15.919   2.074  0.1889 -0.0763  0.1925
 2960W        W19094   3.759   6.726  14.093 -0.0381  0.0270 -0.3898
 2961W        W19095   2.326  11.452  11.340 -0.2313  0.1185 -0.1122
 2962W        W19096  14.112   5.189   4.483  0.1931 -0.2417 -0.0727
 2963W        W19097  10.317   7.719   5.025 -0.0455  0.0729 -0.0934
 2964W        W19098   2.908  18.610   5.259  0.0144 -0.0907  0.0142
 2965W        W19099   5.417   9.822  13.302 -0.0608  0.0772 -0.1123
 2966W        W19100   7.980   9.351  14.565  0.0259  0.1576  0.2013
 2967W        W19101   0.077  14.943   5.387  0.0017 -0.0275 -0.0633
 2968W        W19102  16.289   0.694   3.807  0.2054  0.2818  0.2089
 2969W        W19103   0.820   8.903  12.804  0.3134 -0.0354 -0.1031
 2970W        W19104  11.928  18.594   3.263 -0.0402 -0.0661 -0.1380
 2971W        W19105   0.148  10.206  12.776 -0.2780 -0.3398  0.2527
 2972W        W19106  14.711   1.031  11.410 -0.0136  0.2833  0.0132
 2973W        W19107  12.738  12.981   5.084 -0.1503  0.0105 -0.0204
 2974W        W19108   2.644  12.271  10.818  0.0232  0.1531 -0.0255
 2975W        W19109   6.202   0.077  13.967  0.0399  0.1439  0.3564
 2976W        W19110  13.888   8.291   4.212  0.0280 -0.2132  0.1697
 2977W        W19111  17.742   7.167   3.848 -0.1168  0.0236 -0.0957
 2978W        W19112  14.427  16.572   4.875  0.3370 -0.1671 -0.0711
 2979W        W19113  17.950  17.825  10.838  0.0406  0.0703  0.3120
 2980W        W19114  17.653  17.266  13.453 -0.0964 -0.2912 -0.1075
 2981W        W19115   3.306  10.321  13.486  0.0545 -0.0343 -0.0215
 2982W        W19116  15.254   7.022  14.728 -0.2204  0.0472 -0.3286
 2983W        W19117  14.089  15.701   4.453  0.2621  0.1364 -0.2363
 2984W        W19118  12.005   5.942   4.642 -0.2197 -0.1705 -0.1680
 2985W        W19119   5.038  10.206   2.898 -0.1392  0.0334 -0.1315
 2986W        W19120  13.336  12.002  15.139 -0.0836  0.0558  0.0742
 2987W        W19121  13.613  18.430  13.709 -0.0090 -0.0676  0.1278
 2988W        W19122  10.152   8.872  14.757  0.2043  0.0530 -0.3372
 2989W        W19123  15.388  17.570  11.443  0.2846  0.1482  0.0210
 2990W        W19124   4.782   7.437   1.244 -0.0028 -0.1949  0.2797
 2991W        W19125   1.300   9.666  13.826 -0.1092 -0.1421  0.0562
 2992W        W19126   6.296   0.971   0.174 -0.1745  0.2810  0.1272
 2993W        W19127   3.280  14.326   1.807 -0.1817 -0.0292  0.1390
 2994W        W19128  12.299   2.372  14.733 -0.0477 -0.2308 -0.0046
 2995W        W19129  17.899   5.111   2.807  0.0235  0.3510  0.1208
 2996W        W19130   4.930  16.438   2.297 -0.0240  0.0764  0.5481
 2997W        W19131   9.985  12.655   4.109  0.1588 -0.2480 -0.0408
 2998W        W19132   9.779  16.801   1.103  0.2098 -0.0566 -0.0507
 2999W        W19133   5.026   2.915   0.695 -0.1683 -0.2913 -0.1329
 3000W        W19134   1.706  15.464   2.411  0.0260  0.4262  0.0329
 3001W        W19135   5.767   1.375   5.086 -0.2393 -0.1046  0.3408
 3002W        W19136  11.351   0.853   4.403 -0.1690 -0.1807  0.0627
 3003W        W19137  13.737   7.057  11.342  0.0588  0.0642  0.0623
 3004W        W19138   0.312  15.107  12.236 -0.2285 -0.3216  0.0166
 3005W        W19139  16.139   6.956  13.637 -0.0925 -0.2727  0.2441
 3006W        W19140   7.728   5.041   4.099 -0.3135  0.3180  0.2795
 3007W        W19141  13.176   2.502  11.780  0.1180 -0.1449 -0.1176
 3008W        W19142  16.576  13.297  14.009 -0.0236  0.3012  0.0482
 3009W        W19143  10.361   5.372   2.512 -0.0696 -0.0040  0.0253
 3010W        W19144   8.423  11.362   5.496  0.0266  0.2332 -0.1345
 3011W        W19145  13.581  15.907   4.797  0.0984 -0.0390  0.0225
 3012W        W19146   9.116   5.483  13.129  0.0129 -0.0012  0.1508
 3013W        W19147  16.817   3.851  11.762  0.0086  0.0121  0.1248
 3014W        W19148   6.525   4.383   4.676  0.2449  0.2638 -0.0374
 3015W        W19149  15.374  10.600   4.187 -0.0959 -0.1506 -0.0694
 3016W        W19150  18.223  12.792  13.738 -0.0452  0.0246  0.0789
 3017W        W19151   2.972   5.464  14.231 -0.1760 -0.1847  0.2948
 3018W        W19152   0.660  11.676   1.082 -0.0989  0.0330  0.5282
 3019W        W19153   2.874   5.844   4.656 -0.0964  0.0179 -0.0198
 3020W        W19154  13.838  14.211   3.227  0.2164  0.0058 -0.0400
 3021W        W19155   1.703  16.006   3.087 -0.2300 -0.1570  0.3025
 3022W        W19156  15.914  13.911  12.601 -0.1088 -0.1255 -0.0476
 3023W        W19157  16.108  16.832   4.641  0.0022  0.0531 -0.1499
 3024W        W19158   2.552   5.149  12.337  0.1720  0.1186 -0.0166
 3025W        W19159   0.633  17.407   3.328 -0.1838 -0.1764 -0.0516
 3026W        W19160   6.297   5.014  14.206 -0.0039 -0.0519  0.3902
 3027W        W19161   9.413   4.536   3.764  0.0711 -0.1077  0.1338
 3028W        W19162   8.398  14.892   3.037 -0.4284 -0.1126  0.0860
 3029W        W19163   0.240   9.269   0.025  0.0969  0.0372  0.2575
 3030W        W19164  15.179  10.931   2.878  0.1065 -0.1949 -0.2344
 3031W        W19165  15.154  14.649  14.648  0.1480 -0.1694  0.6025
 3032W        W19166  17.048   6.037  15.364 -0.1816  0.0640 -0.1271
 3033W        W19167  17.262  13.529  12.434  0.2400  0.5073  0.2240
 3034W        W19168   2.655   7.026   1.817 -0.0355  0.0188  0.1195
 3035W        W19169  15.760   6.139   4.141  0.2060  0.0790 -0.4257
 3036W        W19170   0.107  18.220   3.205  0.0095  0.0994  0.2261
 3037W        W19171   8.463   2.111   2.624  0.2215 -0.1257  0.2633
 3038W        W19172  15.993   2.831  13.987 -0.1799 -0.3073  0.0140
 3039W        W19173  15.606   8.653   5.165  0.1522  0.2496  0.2120
 3040W        W19174   8.787  14.929  11.110  0.0513 -0.0166 -0.1145
 3041W        W19175  12.535  18.330   0.612  0.0136  0.0098 -0.1501
 3042W        W19176  11.091  14.333   0.561  0.0288 -0.1548 -0.0794
 3043W        W19177   9.063  11.537   2.306 -0.0621  0.3023  0.1458
 3044W        W19178   8.117   5.305   2.116 -0.0496  0.2060 -0.3090
 3045W        W19179  15.886  16.381   5.846 -0.0705 -0.0982 -0.4700
 3046W        W19180   6.365   1.968   4.678 -0.0308  0.2153 -0.2191
 3047W        W19181  15.969  15.163   4.491 -0.2424 -0.4440 -0.0585
 3048W        W19182   7.428  11.879  13.849 -0.0390  0.2589 -0.2473
 3049W        W19183   3.590   2.930   4.260  0.0070  0.3086 -0.3620
 3050W        W19184   5.056  16.201  15.163 -0.0655 -0.1134 -0.3220
 3051W        W19185  11.919   8.752  12.470  0.2871  0.2038  0.0018
 3052W        W19186   7.650  17.273  11.194  0.0735  0.0774  0.1912
 3053W        W19187  15.611   1.097  13.886  0.5451  0.1443 -0.0251
 3054W        W19188   7.455  12.945   2.224  0.0675 -0.1062 -0.3291
 3055W        W19189   3.677   3.333   4.994  0.2636 -0.0688 -0.1591
 3056W        W19190   8.843   0.074  15.029 -0.0866  0.5426  0.1543
 3057W        W19191   4.240   3.905  11.944  0.0174 -0.0318  0.0167
 3058W        W19192   5.491   0.543   0.849  0.3845  0.0908  0.0824
 3059W        W19193  10.663   1.482  12.519 -0.2413 -0.0286 -0.2345
 3060W        W19194   7.495   3.606  11.228 -0.0686 -0.0657 -0.2234
 3061W        W19195  18.228  14.012   4.616  0.0622 -0.1890 -0.0392
 3062W        W19196  14.706   1.216  14.360  0.1467  0.0975 -0.0388
 3063W        W19197   7.850  10.020   5.259  0.2144  0.2757  0.0301
 3064W        W19198  14.863  12.156   3.317 -0.2092  0.2641  0.0669
 3065W        W19199   3.940  16.792   3.119 -0.1569  0.2420  0.1161
 3066W        W19200   7.619   4.544  11.152  0.0804 -0.2528 -0.1189
 3067W        W19201  12.032   9.794  11.259  0.1223 -0.1074  0.2801
 3068W        W19202  14.956  15.874   0.195  0.1629 -0.2867  0.0896
 3069W        W19203   0.435   3.088   5.514 -0.0106 -0.0090  0.1505
 3070W        W19204   2.152   1.474   0.069  0.1489 -0.0640 -0.0272
 3071W        W19205  17.621   6.717   0.809  0.2174 -0.0715  0.3040
 3072W        W19206   8.591   9.401  15.367  0.5567 -0.0385  0.1154
 3073W        W19207  15.558   9.532   4.480  0.0542 -0.0936  0.0565
 3074W        W19208  13.158   5.025  15.507 -0.3357 -0.2774  0.1589
 3075W        W19209  13.874   6.736  10.900 -0.0536  0.1986 -0.5001
 3076W        W19210   6.117  13.759   3.039 -0.1251 -0.3032  0.0503
 3077W        W19211  16.939   5.944   3.539  0.4443  0.0751 -0.1611
 3078W        W19212  11.340   4.755   5.348 -0.1138  0.0341 -0.0873
 3079W        W19213   2.290   8.107  15.452  0.2075  0.0346  0.2321
 3080W        W19214   9.158   1.546  10.997 -0.0161 -0.0209 -0.0038
 3081W        W19215  12.554   8.414   3.140  0.3272 -0.1272 -0.0047
 3082W        W19216   4.783   9.326   2.523 -0.2512  0.0022  0.2665
 3083W        W19217   5.016  17.694  12.412 -0.0031  0.1403 -0.1850
 3084W        W19218   3.247   2.751   0.604  0.0858 -0.2225 -0.3233
 3085W        W19219   7.685   1.659  12.656 -0.0810  0.1465  0.1510
 3086W        W19220  10.100   3.388  13.953  0.0318 -0.1039  0.1982
 3087W        W19221  10.381   9.756  12.812 -0.1330  0.0489 -0.2023
 3088W        W19222   8.948   4.860   0.487 -0.1558  0.3612 -0.1117
 3089W        W19223  12.993  12.090  14.835  0.2021 -0.1807 -0.1060
 3090W        W19224  18.692  10.947   1.887 -0.3476  0.0033  0.1793
 3091W        W19225  18.063  16.901   2.051  0.0223 -0.1231  0.1455
 3092W        W19226  13.067   7.160  11.052 -0.2125  0.4056  0.0219
 3093W        W19227  10.289   1.121  15.465  0.3177  0.1606  0.0809
 3094W        W19228  15.937  10.703   3.654  0.0526  0.2610  0.0893
 3095W        W19229  16.060   0.423  11.722 -0.0651 -0.3440 -0.1888
 3096W        W19230  15.333   9.328   3.996  0.0440 -0.0358 -0.2516
 3097W        W19231  14.872  16.695  10.678 -0.1029  0.1373  0.0546
 3098W        W19232   8.144   7.707   1.502 -0.0115  0.0351 -0.0268
 3099W        W19233   5.143  10.013   1.935 -0.1341 -0.0509  0.5263
 3100W        W19234   1.154   4.356   3.437 -0.0706 -0.0952  0.2681
 3101W        W19235  14.813   8.025  15.135 -0.4026  0.1302  0.2409
 3102W        W19236  15.025  13.200  13.336 -0.4284 -0.0761 -0.2411
 3103W        W19237  16.558  12.580   1.902 -0.0988  0.0268  0.2216
 3104W        W19238  10.166  13.238  13.689 -0.2655  0.2030  0.2281
 3105W        W19239  16.008  15.434  11.668  0.0770 -0.2468  0.2161
 3106W        W19240   1.504  11.849  13.219  0.0128  0.2436  0.0235
 3107W        W19241  14.881  11.224   2.543 -0.0013  0.0972  0.0342
 3108W        W19242   6.664   1.605  14.963 -0.0349  0.0105 -0.0805
 3109W        W19243   9.527   4.322  15.391  0.0143  0.3122 -0.2342
 3110W        W19244  18.120   1.552   0.414  0.0113 -0.1741  0.1833
 3111W        W19245  17.437  14.123   5.565  0.1619  0.0742 -0.4643
 3112W        W19246   4.931  11.539  12.250 -0.0508  0.0398  0.3176
 3113W        W19247   9.812   3.044  10.673 -0.1518  0.1133 -0.0006
 3114W        W19248   5.588  16.793   5.926  0.1543 -0.0431 -0.0111
 3115W        W19249   5.769   3.944  12.252 -0.1559  0.2186 -0.1012
 3116W        W19250   4.572   2.993   4.911  0.1597 -0.3838 -0.1213
 3117W        W19251   5.505   5.919   1.722 -0.1304  0.1173 -0.4012
 3118W        W19252   7.792  18.323  13.839  0.0072  0.0852  0.1517
 3119W        W19253   8.783   7.649   1.671  0.0633 -0.1495  0.2502
 3120W        W19254   6.091  11.898   0.808  0.1832  0.3116 -0.2226
 3121W        W19255   0.260   5.925  14.467  0.0593 -0.1839 -0.0227
 3122W        W19256   4.644  17.333  12.718  0.0399  0.2040 -0.1056
 3123W        W19257   2.822   6.233   4.054 -0.1771  0.2048 -0.4052
 3124W        W19258   7.539  15.623  14.524 -0.2849  0.0797  0.0860
 3125W        W19259   2.972  17.371   3.887  0.1005 -0.2079  0.3547
 3126W        W19260   2.367   0.769  14.992 -0.0719  0.2121 -0.2403
 3127W        W19261  15.281   5.318  11.385  0.0981 -0.0860  0.1655
 3128W        W19262   0.330   8.225   2.932 -0.0078 -0.4814  0.0703
 3129W        W19263  10.389   9.455   1.244 -0.1362  0.2442 -0.2180
 3130W        W19264  12.977  17.166   4.553  0.1305 -0.0436 -0.1204
 3131W        W19265   7.128  12.990   3.734  0.0183 -0.2100 -0.0759
 3132W        W19266  16.726   9.408   4.221 -0.1421  0.2053  0.1328
 3133W        W19267   9.026  11.956  12.279 -0.3437  0.0099  0.0398
 3134W        W19268   9.814   5.092  11.361  0.1551  0.2768  0.1978
 3135W        W19269  18.467   7.561  11.529  0.0846 -0.3919  0.1018
 3136W        W19270   5.425   4.235  12.680 -0.2524  0.0996 -0.1583
 3137W        W19271  11.487   8.485   4.095 -0.2307  0.0325  0.1292
 3138W        W19272   7.658  15.505  10.879 -0.1375 -0.1792  0.0533
 3139W        W19273  11.805  18.710   0.617 -0.1803 -0.0919 -0.2170
 3140W        W19274  10.803   4.562   0.432  0.1039 -0.0524 -0.0459
 3141W        W19275   5.006   7.788   3.609  0.1542 -0.1127  0.3492
 3142W        W19276   3.086  13.276  13.817 -0.0593  0.0817 -0.0716
 3143W        W19277  10.863  17.298   2.128  0.4875 -0.0678 -0.2237
 3144W        W19278  12.517   5.878   1.308 -0.0250  0.1930 -0.0344
 3145W        W19279  16.927   0.362  14.392 -0.1960 -0.2680 -0.0262
 3146W        W19280  16.588   7.727   4.677  0.2491 -0.1674  0.3031
 3147W        W19281  15.176   0.652  13.242  0.1406 -0.0601 -0.1580
 3148W        W19282   3.938  12.901   3.928 -0.1178 -0.1719 -0.1571
 3149W        W19283   4.905   8.166   3.193 -0.1401 -0.0362  0.0707
 3150W        W19284  18.242   1.707  13.597 -0.0021  0.1302  0.0176
 3151W        W19285  13.649   3.077   4.316 -0.2158  0.1272  0.0318
 3152W        W19286   3.913  13.598   1.949 -0.3574  0.0340  0.0912
 3153W        W19287   4.138   5.540   1.241  0.1185 -0.1507  0.3133
 3154W        W19288   2.777  11.250  12.293  0.0717 -0.2079 -0.4115
 3155W        W19289   7.286  11.723   1.504 -0.0459 -0.1292 -0.2230
 3156W        W19290   1.631  12.162   0.086  0.0675 -0.0556 -0.2372
 3157W        W19291   1.297  16.907   3.834 -0.0348 -0.1418  0.1968
 3158W        W19292  16.778  16.928  13.588  0.1177 -0.0567  0.0374
 3159W        W19293   0.465   5.138  15.550 -0.0595  0.0062 -0.1455
 3160W        W19294   2.587   6.604   0.460  0.0332  0.1530  0.0025
 3161W        W19295   4.078  11.533   4.074  0.3154 -0.4545  0.1605
 3162W        W19296  17.484   7.490   3.478 -0.1249 -0.0508 -0.0861
 3163W        W19297   2.154   4.565   1.060  0.0670 -0.1901 -0.1866
 3164W        W19298  16.096  15.103   2.511  0.0155 -0.1479  0.1095
 3165W        W19299  15.785   4.443  11.056  0.0648 -0.0558  0.0608
 3166W        W19300  10.931  10.359   2.959 -0.1616  0.0377  0.1069
 3167W        W19301  10.620   4.104  10.848 -0.1754 -0.2377  0.1396
 3168W        W19302   3.967  11.528  12.927 -0.0379  0.0567 -0.2224
 3169W        W19303  15.908  12.263  10.817  0.1658  0.3420  0.1294
 3170W        W19304  10.691  13.843   9.911 -0.2339 -0.2939  0.0030
 3171W        W19305   0.820  16.557   5.106 -0.0022  0.2204 -0.0092
 3172W        W19306  11.491  15.016  11.915  0.1329 -0.2246 -0.0875
 3173W        W19307  17.350  16.552   1.326  0.2257 -0.0585 -0.0996
 3174W        W19308  15.853   7.209   0.325 -0.1456 -0.2768  0.2293
 3175W        W19309   5.964  15.213   5.179  0.1817 -0.1329  0.0615
 3176W        W19310   2.653  10.259  13.867 -0.2899  0.1510  0.0363
 3177W        W19311  18.481   1.974  11.293 -0.0049  0.0285  0.2876
 3178W        W19312  12.163  11.416   5.479 -0.1702 -0.1216 -0.4161
 3179W        W19313   5.224  12.231  11.109 -0.1484 -0.2648 -0.1232
 3180W        W19314   6.398  13.331   1.271 -0.0710  0.1091 -0.3833
 3181W        W19315  14.845   2.190   0.411  0.0477  0.0835 -0.0130
 3182W        W19316   1.113   2.261  12.667 -0.0217 -0.1902 -0.0893
 3183W        W19317   2.166   8.399   2.713 -0.0103  0.1829 -0.1220
 3184W        W19318   2.198  17.948   3.407  0.0422 -0.0815 -0.1458
 3185W        W19319  14.023  13.964   0.224 -0.2428  0.1222 -0.2190
 3186W        W19320   4.008   2.017  12.668 -0.0094 -0.4584 -0.4423
 3187W        W19321  16.085   2.421   5.273 -0.3590  0.0559 -0.1472
 3188W        W19322  18.653  16.217  11.478 -0.3884 -0.0004 -0.0620
 3189W        W19323   9.192   3.729  10.659 -0.1875  0.0261 -0.0277
 3190W        W19324   8.774   4.277   0.364 -0.2035  0.1902  0.1318
 3191W        W19325  13.104  16.854  12.819  0.0470  0.1900 -0.1453
 3192W        W19326  15.620   1.249  12.661  0.1868  0.2130 -0.1066
 3193W        W19327   8.776  11.097   4.982 -0.2499 -0.4346  0.1028
 3194W        W19328  15.707   5.494  14.119  0.0440  0.2540 -0.0358
 3195W        W19329   9.203  12.843   4.512  0.0600 -0.0115 -0.2005
 3196W        W19330  13.836   1.970   3.401  0.0060 -0.0671  0.1241
 3197W        W19331  11.739   1.864  14.044  0.0723  0.0174  0.2465
 3198W        W19332   3.995  15.644  14.588 -0.1001 -0.0413 -0.2690
 3199W        W19333  14.067   2.607  12.733 -0.0045 -0.0942  0.1494
 3200W        W19334  12.429  13.422   5.168 -0.3515  0.2209  0.0142
 3201W        W19335  14.155   4.274  11.410 -0.1654 -0.0335  0.1144
 3202W        W19336  10.611   9.138   2.139 -0.0222  0.0381 -0.1617
 3203W        W19337  13.431  16.823   3.716 -0.0921  0.1474 -0.1331
 3204W        W19338   5.591  15.470  11.679 -0.2924 -0.1353 -0.1325
 3205W        W19339  10.467   5.002  14.613  0.1865  0.0412 -0.4498
 3206W        W19340   0.102  12.311  14.377 -0.0833  0.0785  0.1106
 3207W        W19341  17.924  11.482   5.809 -0.3038  0.3433 -0.0929
 3208W        W19342   5.558   0.842  14.467  0.1081 -0.1488  0.1601
 3209W        W19343   4.322   5.388  13.958  0.1763  0.0726 -0.2058
 3210W        W19344   8.226   9.179   3.397 -0.2040  0.0407  0.0633
 3211W        W19345  10.519   2.647  14.096  0.2790 -0.0588  0.0089
 3212W        W19346   1.840  15.635  10.870 -0.1944 -0.1891  0.1831
 3213W        W19347  17.870  18.271  10.706  0.1214  0.2511  0.3232
 3214W        W19348   7.165   0.844  14.376 -0.1510  0.0343  0.0818
 3215W        W19349   1.422   4.254  14.616 -0.0930  0.1485  0.2577
 3216W        W19350  11.285   3.940   4.785  0.2943  0.2915 -0.2543
 3217W        W19351  13.917   1.251   0.011 -0.1333  0.0058  0.1122
 3218W        W19352  12.963  15.978   4.015 -0.0783  0.0397 -0.0276
 3219W        W19353   9.974   7.105  15.349 -0.0438  0.1915 -0.1944
 3220W        W19354   4.590  15.288   4.800  0.0269 -0.1074  0.0502
 3221W        W19355   1.156   7.143  11.252  0.2827  0.2967  0.3305
 3222W        W19356   5.048  13.600   3.809  0.0874 -0.1471  0.1198
 3223W        W19357  16.230   8.388  11.792 -0.1400  0.0281 -0.0996
 3224W        W19358  18.685   2.232  15.100  0.0947 -0.0638  0.3346
 3225W        W19359   6.922  13.226  13.358  0.0821  0.1914  0.1559
 3226W        W19360  12.311   5.045   5.357  0.3143  0.2221  0.0060
 3227W        W19361   1.200  14.563   2.009  0.0834  0.2198  0.5697
 3228W        W19362   2.800   7.475   2.602  0.1056  0.1645  0.1438
 3229W        W19363   8.974   5.404  12.627  0.0056  0.2224  0.0726
 3230W        W19364  17.016  11.976   4.654 -0.0825  0.0196  0.0690
 3231W        W19365   8.727  10.827  14.153 -0.1116  0.1513  0.0518
 3232W        W19366  14.366   5.651   4.667  0.1284  0.0844 -0.1296
 3233W        W19367   0.394  11.957  12.251 -0.2087  0.2159  0.1107
 3234W        W19368   6.883  15.837   5.182 -0.1479 -0.0686  0.2162
 3235W        W19369   1.727  17.183  11.757 -0.0633  0.1086  0.1189
 3236W        W19370  11.648   0.198   4.507  0.0071 -0.0368 -0.0606
 3237W        W19371   6.991   8.551   1.772  0.0445  0.2048 -0.2258
 3238W        W19372  12.680  13.437   3.733  0.0173 -0.1794  0.0861
 3239W        W19373  17.472  16.446   2.601 -0.2266  0.0330 -0.1411
 3240W        W19374  18.698   9.833   1.629 -0.0333  0.1908 -0.2780
 3241W        W19375   2.511  13.169  10.664 -0.1212 -0.0893 -0.0005
 3242W        W19376  17.657   4.696   3.015  0.2968  0.2176 -0.0324
 3243W        W19377   8.619   8.118  15.060  0.0630 -0.1184 -0.1089
 3244W        W19378   1.245  16.516  14.438  0.0534 -0.0153  0.1842
 3245W        W19379   2.165   8.887   0.740 -0.3107  0.2556 -0.2956
 3246W        W19380   8.803  15.698  12.252 -0.2384  0.1257 -0.1158
 3247W        W19381   9.949  17.225   2.386  0.3437 -0.0480 -0.3622
 3248W        W19382  18.581  17.116   1.602  0.1860 -0.3782 -0.0736
 3249W        W19383   0.720   6.373  15.256  0.0699  0.0713  0.0921
 3250W        W19384  16.795  13.803   1.925 -0.0006  0.2553  0.1814
 3251W        W19385  11.136   0.575   0.885  0.1079 -0.1048 -0.1135
 3252W        W19386  13.738   7.302   1.964 -0.3023 -0.3696  0.0712
 3253W        W19387  18.209   3.642   6.190  0.1186 -0.1067  0.3621
 3254W        W19388   1.501  15.996  13.843 -0.2608  0.0030  0.1216
 3255W        W19389  14.080  17.504  14.562  0.0314 -0.3550  0.4203
 3256W        W19390   5.542  17.697   2.599  0.0332  0.1548  0.0151
 3257W        W19391   4.827   6.465   1.306 -0.1713  0.0201 -0.0945
 3258W        W19392   7.037   9.057   1.559 -0.0656 -0.3598 -0.1539
 3259W        W19393   1.824  17.022   3.806 -0.1168  0.2583 -0.0481
 3260W        W19394  12.733   9.155   5.057  0.0491 -0.4693  0.0613
 3261W        W19395  16.429  14.071   1.167 -0.1250 -0.0568  0.0114
 3262W        W19396  16.777   5.216   0.178  0.2343  0.1397 -0.2671
 3263W        W19397  14.160  12.732   3.236  0.0001 -0.1268 -0.2223
 3264W        W19398  10.451  11.244  12.193 -0.0249 -0.2398 -0.0098
 3265W        W19399  17.369  13.242   2.734 -0.1738 -0.2926  0.0937
 3266W        W19400   8.035  14.736  15.535  0.1632 -0.0273  0.0007
 3267W        W19401  16.008  10.669  12.839 -0.1084  0.1996  0.0561
 3268W        W19402   1.473  15.793  15.473 -0.0765 -0.0438  0.1281
 3269W        W19403   6.214   0.287   3.053  0.0065 -0.0981 -0.0766
 3270W        W19404  13.078   1.974  13.757  0.1334 -0.0226 -0.1348
 3271W        W19405  13.216   5.870   4.382 -0.1744 -0.0021 -0.2284
 3272W        W19406   1.377  11.877  11.962 -0.1014 -0.0322 -0.2647
 3273W        W19407  17.134  14.723  13.616  0.1670  0.0023 -0.0036
 3274W        W19408  16.627   6.357   5.272 -0.2074  0.3898 -0.0629
 3275W        W19409  17.039  16.551   2.964  0.1608 -0.2634  0.0918
 3276W        W19410   0.882   5.138   0.867 -0.0918 -0.2561  0.1451
 3277W        W19411   9.600   5.349   5.257 -0.0675  0.5132  0.0015
 3278W        W19412  14.151  18.684   3.814 -0.0153 -0.0848  0.0603
 3279W        W19413   5.816   7.597  11.672 -0.0146 -0.0924 -0.1572
 3280W        W19414  15.173   9.454   2.956  0.2924  0.0627  0.0096
 3281W        W19415  16.243   2.834   1.784 -0.0501 -0.0882 -0.2217
 3282W        W19416   8.847  11.070   2.326  0.0914 -0.0388  0.4080
 3283W        W19417   1.297  14.289  11.966 -0.0629 -0.1132 -0.1375
 3284W        W19418   8.793  10.066  12.322 -0.5028 -0.1614 -0.0029
 3285W        W19419   2.663  13.722  14.958  0.1391  0.0096  0.3748
 3286W        W19420  10.228   8.681  10.853  0.3118 -0.0242  0.1047
 3287W        W19421  10.350   7.045   4.597 -0.1239 -0.2487  0.1262
 3288W        W19422  14.497  15.839  13.204  0.0622 -0.0935 -0.1199
 3289W        W19423   4.281  16.328  15.539 -0.3275 -0.1057  0.1537
 3290W        W19424  13.457  17.440  13.895 -0.2120 -0.0565 -0.1638
 3291W        W19425  10.013   4.855  13.359  0.2490  0.1737 -0.0795
 3292W        W19426  10.442  13.785  12.473  0.2181  0.1451 -0.0726
 3293W        W19427  18.050  17.046   3.719  0.1053  0.3108  0.2189
 3294W        W19428   6.843   0.729   2.631  0.1130  0.1233 -0.0788
 3295W        W19429   7.392   4.334  15.232 -0.0304 -0.1495  0.1173
 3296W        W19430  18.580  10.584  12.694 -0.0754 -0.0179 -0.2947
 3297W        W19431  18.383   7.344  13.400 -0.0207  0.1792  0.2130
 3298W        W19432  13.778   0.236  12.224 -0.1127 -0.3785 -0.4516
 3299W        W19433  18.027   7.578   1.293 -0.1238  0.2097  0.2144
 3300W        W19434   5.123   9.220  11.151 -0.0035  0.0109  0.3967
 3301W        W19435  17.559   8.041  11.424 -0.1416 -0.1774 -0.2044
 3302W        W19436   4.907  15.322   5.257 -0.1533  0.2245  0.0623
 3303W        W19437   3.999  16.184   3.204  0.2323 -0.0147 -0.1821
 3304W        W19438   7.088   7.134  13.139  0.1691 -0.0651 -0.2388
 3305W        W19439   2.187  16.126  10.990 -0.1165 -0.0335 -0.4278
 3306W        W19440  16.910  15.176   3.250  0.0994  0.0671 -0.2925
 3307W        W19441  14.339  17.626  11.624  0.2141  0.0614 -0.1712
 3308W        W19442  13.517  12.885   4.541  0.2073 -0.0795  0.3472
 3309W        W19443   6.584   0.313  13.326 -0.3324  0.0959 -0.2466
 3310W        W19444   8.827   3.173  14.394 -0.1117  0.2552  0.2513
 3311W        W19445   1.790   3.566  14.256  0.0144 -0.0805  0.0734
 3312W        W19446  12.971  14.971   5.605 -0.0657  0.2607  0.0584
 3313W        W19447  16.450  14.859   1.183  0.4618  0.0625 -0.0252
 3314W        W19448   5.355   3.800   4.054  0.0945 -0.1706  0.0901
 3315W        W19449   0.101   9.179   2.245 -0.1603  0.2073  0.1031
 3316W        W19450   4.992   7.017   3.913  0.2740 -0.0042 -0.1863
 3317W        W19451  14.643   3.769  10.167 -0.3371  0.1835 -0.1708
 3318W        W19452  12.378  18.595   4.176  0.1981  0.0174  0.1021
 3319W        W19453  13.534   0.528  14.135 -0.0365  0.4670 -0.0013
 3320W        W19454  14.347   5.662   2.878  0.1129  0.3094 -0.1096
 3321W        W19455   2.334   3.087   1.512 -0.2789 -0.0885 -0.0001
 3322W        W19456   6.661   6.681   2.316  0.0840  0.0239  0.0934
 3323W        W19457   3.892  14.089  14.482  0.2150  0.0016 -0.4200
 3324W        W19458  13.281  14.869   2.072 -0.0068  0.2329 -0.0755
 3325W        W19459   5.416  17.796   1.684 -0.2585  0.0697  0.0371
 3326W        W19460   1.204  17.247   4.504  0.1024 -0.2566  0.0156
 3327W        W19461   7.281   5.297   0.446 -0.1046 -0.1784 -0.3344
 3328W        W19462   7.665  15.270   0.851 -0.2787  0.0609 -0.0074
 3329W        W19463   8.239  12.284   2.034 -0.0307  0.1667 -0.2353
 3330W        W19464  12.647   8.023   1.788  0.1391  0.2188 -0.1598
 3331W        W19465   5.771   1.707   0.494  0.2974 -0.2931  0.0957
 3332W        W19466   8.636  12.259   1.049  0.1927  0.0989 -0.0175
 3333W        W19467   1.575   1.556   3.278  0.0433 -0.2042 -0.0220
 3334W        W19468  17.089   2.556  13.431  0.0433  0.2442  0.0494
 3335W        W19469   4.184   3.365  12.099  0.0561 -0.0145  0.0372
 3336W        W19470  15.602   3.068   3.692 -0.5197  0.3310  0.3296
 3337W        W19471  11.514   5.377   4.131  0.0498 -0.0766  0.0324
 3338W        W19472  16.938   6.181   5.695  0.1738  0.2826  0.2244
 3339W        W19473   6.020   7.969  12.015 -0.1338  0.2591 -0.0469
 3340W        W19474   6.203   6.914   1.433  0.0502 -0.0999 -0.1301
 3341W        W19475   4.373   8.396   3.542 -0.1155  0.0010  0.4303
 3342W        W19476  13.569   5.373   4.493  0.3287  0.0940 -0.1070
 3343W        W19477  15.126  17.390   4.038  0.1099 -0.1661 -0.2017
 3344W        W19478   9.028   5.286   2.807 -0.0136  0.0836 -0.1055
 3345W        W19479   3.732  14.081   2.552 -0.0420 -0.0623 -0.3426
 3346W        W19480   3.157   1.937   1.529 -0.2968  0.1509 -0.0985
 3347W        W19481  10.332  14.238  12.655 -0.1176  0.0438  0.0709
 3348W        W19482   5.848  11.218   3.622 -0.2178 -0.0666 -0.2591
 3349W        W19483  18.481   3.643  15.016 -0.0799 -0.2103  0.0801
 3350W        W19484  12.593   3.992   4.102 -0.0296  0.1327  0.0596
 3351W        W19485  12.790  11.210  15.037 -0.0832  0.2602  0.1257
 3352W        W19486  10.855   8.248   4.544 -0.3156 -0.0507 -0.0596
 3353W        W19487   3.218   5.936   2.038  0.0873 -0.1622  0.2546
 3354W        W19488  17.899  15.310  12.085  0.3184  0.1013 -0.0758
 3355W        W19489   3.834  12.257   4.726 -0.0514  0.0867  0.0108
 3356W        W19490   2.364   5.813  13.243  0.0936 -0.1309  0.0008
 3357W        W19491  12.119   9.334  14.630 -0.4255 -0.2845  0.1940
 3358W        W19492   2.112   8.913   5.188  0.4517 -0.1268 -0.0951
 3359W        W19493  14.112  13.788   5.227  0.0297  0.1432 -0.0706
 3360W        W19494   4.270   5.053  13.185 -0.1217 -0.0467 -0.1357
 3361W        W19495  11.082  15.232   0.691  0.2198  0.0073 -0.0645
 3362W        W19496   9.572   1.042   0.731  0.0290  0.3241 -0.2642
 3363W        W19497  16.381   8.717  10.743  0.0098  0.1599  0.1556
 3364W        W19498  18.379  17.020   5.108 -0.2895 -0.0778  0.0236
 3365W        W19499  17.410   4.383  12.180 -0.2371  0.1205  0.1133
 3366W        W19500   2.858   3.000  12.389  0.0880  0.0464  0.1775
 3367W        W19501  10.162   5.325  11.651 -0.2131  0.1830  0.4132
 3368W        W19502   7.648   6.161   5.729  0.1970 -0.0823  0.1977
 3369W        W19503   3.063  16.707   2.520  0.1010  0.2268 -0.2474
 3370W        W19504  15.961  10.993   2.132  0.1031  0.0106 -0.1151
 3371W        W19505  16.304  15.908   2.677 -0.0801 -0.1091 -0.0363
 3372W        W19506  17.207  18.230   2.666  0.3364 -0.2296  0.3527
 3373W        W19507   6.067   2.090   0.642 -0.2759  0.2221  0.2771
 3374W        W19508  14.525   3.190   1.902  0.1363 -0.1011  0.1581
 3375W        W19509  18.259  15.131  10.994  0.1309  0.0870 -0.2988
 3376W        W19510  10.064  15.253   4.324  0.0742  0.1382 -0.1394
 3377W        W19511  15.741   4.929   4.618  0.0329  0.2160  0.0681
 3378W        W19512  11.916  10.348   0.739 -0.0847 -0.0336  0.0538
 3379W        W19513   7.224  11.371   3.700  0.5951  0.0617 -0.4016
 3380W        W19514  14.408  11.033   1.680  0.1667  0.1357 -0.3186
 3381W        W19515  16.448   8.524   1.402 -0.0229  0.3682 -0.1341
 3382W        W19516   4.796  18.562  14.546  0.0158 -0.3101  0.3411
 3383W        W19517   5.868   9.645  13.149 -0.0849 -0.2997 -0.0870
 3384W        W19518   2.742   4.393   3.501 -0.0756  0.0221 -0.1763
 3385W        W19519  14.720   5.916   1.825  0.0818 -0.3170  0.0653
 3386W        W19520  17.971   9.484   0.920 -0.1608  0.0279  0.1607
 3387W        W19521  17.914  13.030   4.197 -0.1020  0.3291 -0.0142
 3388W        W19522   5.794   2.428  10.440  0.0592 -0.1694 -0.0660
 3389W        W19523  18.691   4.567   4.186 -0.0329  0.0661 -0.2205
 3390W        W19524  17.953  18.506   2.431  0.2014  0.3590 -0.1975
 3391W        W19525   7.801   0.621   3.641 -0.1515  0.0687 -0.1282
 3392W        W19526  15.815   4.487   9.724 -0.0798 -0.5151 -0.1315
 3393W        W19527   2.375  10.556  12.617  0.0986  0.3706 -0.2482
 3394W        W19528  16.251   6.016   2.975  0.2300 -0.0174  0.0819
 3395W        W19529   9.356  16.370  13.319  0.0145  0.2099  0.2784
 3396W        W19530  16.531  13.324  13.322 -0.3049 -0.1109  0.2842
 3397W        W19531   3.870   8.477  12.000  0.3148  0.2995 -0.3001
 3398W        W19532   1.988   0.202  12.478  0.0885  0.0744 -0.2933
 3399W        W19533  11.115   7.957   2.273  0.0478 -0.1074 -0.1005
 3400W        W19534   7.770   6.325  14.995 -0.0577  0.0128 -0.1952
 3401W        W19535   7.963   4.448   3.271 -0.1764 -0.2101 -0.0529
 3402W        W19536   2.522  17.057   4.835  0.2686  0.0313 -0.1927
 3403W        W19537  13.871  15.941  11.644  0.0129 -0.0082  0.1406
 3404W        W19538   4.869  11.068   2.140  0.0153 -0.1939  0.3459
 3405W        W19539   7.232   7.727   1.806 -0.0756 -0.0268 -0.1157
 3406W        W19540  15.659   6.905  10.818 -0.4102  0.0548  0.0800
 3407W        W19541   2.720   7.469   5.037  0.2345  0.0206  0.4206
 3408W        W19542   6.628   8.972   4.171  0.2396 -0.2443 -0.1026
 3409W        W19543  13.194   3.865  11.647 -0.0654  0.2465  0.0281
 3410W        W19544   9.164  18.483  12.161  0.3908  0.3818 -0.0969
 3411W        W19545   1.277  17.456  10.438  0.0252  0.1933  0.3121
 3412W        W19546  13.992  13.499   4.696 -0.0160  0.1556  0.1135
 3413W        W19547  18.311  14.818   0.468  0.1170 -0.0473  0.0309
 3414W        W19548   6.935   4.185   3.851 -0.1512  0.1670 -0.0701
 3415W        W19549  11.540   1.022  11.823 -0.2400 -0.2062  0.2182
 3416W        W19550   8.876   7.549   4.581  0.3250 -0.0004  0.0415
 3417W        W19551  15.393   0.553  14.611 -0.3419  0.0697  0.1094
 3418W        W19552  16.566  14.245  13.325  0.0190  0.0586  0.0484
 3419W        W19553  16.075   6.657   0.723 -0.2262 -0.2963  0.0740
 3420W        W19554   6.670  14.476   4.509 -0.1250 -0.2036  0.2007
 3421W        W19555  16.602   4.698   2.415 -0.1468 -0.0003  0.1730
 3422W        W19556  14.575  11.201  13.179  0.0546  0.2123  0.1313
 3423W        W19557   9.289  14.790   5.698  0.1483  0.1453  0.1405
 3424W        W19558  12.022   3.902   0.833  0.1635  0.1681 -0.4252
 3425W        W19559  14.625   8.427  12.762 -0.3787 -0.1356 -0.3057
 3426W        W19560  11.876   6.840  11.721 -0.0521  0.2780  0.0013
 3427W        W19561   6.250  15.871   4.647 -0.1119 -0.0233  0.0024
 3428W        W19562   4.693  12.786   3.402  0.0156 -0.1273 -0.0318
 3429W        W19563   1.255   9.848   5.800  0.0574  0.0112  0.3941
 3430W        W19564  10.651  16.742   2.754 -0.0978 -0.0943  0.2515
 3431W        W19565   2.173  17.029  11.887 -0.1130  0.4160  0.0583
 3432W        W19566   5.661   5.630   3.119 -0.1370 -0.3703  0.0035
 3433W        W19567  10.581   1.617   2.982  0.1617  0.1116 -0.2045
 3434W        W19568   4.152   5.743  14.934 -0.0780 -0.1067 -0.1616
 3435W        W19569  17.303  13.763  15.091 -0.0187  0.0409  0.0960
 3436W        W19570  15.298   4.606   4.968  0.1668  0.2530 -0.1957
 3437W        W19571  10.154  14.081   4.742  0.2483 -0.0900  0.2734
 3438W        W19572   3.423  12.837  10.684 -0.0259 -0.1965 -0.4456
 3439W        W19573   4.364   6.917  11.971 -0.2799 -0.1013 -0.2361
 3440W        W19574  10.615   4.776  14.010 -0.1051  0.1284 -0.1518
 3441W        W19575   2.724  18.194   4.336  0.1061 -0.1623 -0.1579
 3442W        W19576   5.221   5.316   9.938 -0.5281 -0.1596  0.0870
 3443W        W19577   1.248   5.754  10.477 -0.1163  0.0976 -0.1144
 3444W        W19578   1.917   6.586  10.784  0.0598  0.0100 -0.2877
 3445W        W19579   0.844   3.007  11.755 -0.1436 -0.1072 -0.1648
 3446W        W19580   2.834   3.493   4.152 -0.1799 -0.0261  0.0694
 3447W        W19581  13.967   9.162  13.422 -0.1042  0.1233 -0.1055
 3448W        W19582   8.142  13.987  12.860  0.2606  0.1629 -0.2941
 3449W        W19583   0.585  14.960   0.559 -0.0513 -0.0704  0.0942
 3450W        W19584  10.867  11.947   3.181 -0.2707 -0.2387 -0.3284
 3451W        W19585   3.987   0.276  11.030 -0.1764  0.1183  0.2633
 3452W        W19586   9.802   4.114  13.941  0.0434  0.1330 -0.1316
 3453W        W19587  16.600  10.591   1.024  0.0372  0.1299  0.0343
 3454W        W19588  13.342   8.642   1.010  0.1847 -0.0561 -0.0134
 3455W        W19589   7.834  17.744   4.931 -0.0260 -0.0315  0.0370
 3456W        W19590   7.646   7.957   2.318 -0.0743 -0.1280 -0.3845
 3457W        W19591   4.430  11.920  14.771 -0.2628 -0.0613 -0.0305
 3458W        W19592  17.729  16.336  14.386 -0.3135  0.1087  0.0654
 3459W        W19593   7.387  10.106   3.702 -0.0984 -0.5308  0.0597
 3460W        W19594  11.391   3.047  10.897 -0.0878 -0.0734 -0.2632
 3461W        W19595  11.238  18.505  14.074 -0.1379 -0.1627  0.1659
 3462W        W19596   5.841  17.819  12.130 -0.0820  0.1581  0.0960
 3463W        W19597  18.384  14.434  12.233  0.3858  0.1784 -0.2331
 3464W        W19598  12.344   5.764   2.386  0.3083 -0.3221 -0.0393
 3465W        W19599  11.960   5.394  12.401 -0.0370  0.0681  0.1124
 3466W        W19600  13.714   1.949   0.904  0.0920 -0.2631  0.0113
 3467W        W19601  18.439  11.879   3.088 -0.2384 -0.3060 -0.2804
 3468W        W19602   3.982   6.033   1.437  0.3375 -0.1632  0.2519
 3469W        W19603  17.497  12.016  10.202 -0.0649  0.0371  0.0970
 3470W        W19604  13.564  13.794   4.412  0.0784 -0.3456  0.1274
 3471W        W19605  17.895   6.176   0.912 -0.1532 -0.0011 -0.1560
 3472W        W19606   7.878   1.193  12.732  0.1859 -0.1538  0.2435
 3473W        W19607  15.931  13.155   1.002  0.2064  0.3785  0.3893
 3474W        W19608   3.589   9.760  15.351  0.0939  0.3182 -0.2314
 3475W        W19609   9.860   6.586  11.664  0.0385  0.2027 -0.2320
 3476W        W19610   6.670  10.119  11.989  0.3751  0.2231 -0.2012
 3477W        W19611   7.578  12.716   0.006 -0.0289  0.1449  0.0738
 3478W        W19612  13.325   8.344   0.049 -0.1067 -0.2301 -0.1231
 3479W        W19613  12.347  16.919   3.602 -0.1802 -0.0592  0.1399
 3480W        W19614  10.521  12.724   2.880 -0.0101 -0.0222  0.1763
 3481W        W19615   8.696   3.480  13.467  0.0127  0.1025 -0.1491
 3482W        W19616   4.962   6.640   0.764 -0.0793  0.0867 -0.0065
 3483W        W19617  11.453   5.509   3.089 -0.2537  0.1408  0.3059
 3484W        W19618   4.404  14.583  14.656  0.0838 -0.0928  0.0754
 3485W        W19619  14.642  15.439   9.961  0.0431  0.1141 -0.1725
 3486W        W19620   6.068   2.443   2.538  0.1004 -0.0008 -0.2422
 3487W        W19621   6.416   1.869  12.828 -0.2430  0.1742  0.0745
 3488W        W19622   6.336  11.705  13.934  0.0724  0.2079  0.4679
 3489W        W19623   0.306  18.066   4.290 -0.0385 -0.1944  0.1556
 3490W        W19624   5.765   4.738   5.986  0.3103 -0.0149 -0.2730
 3491W        W19625  18.642   4.576   0.424 -0.0728  0.1105 -0.1468
 3492W        W19626  10.184   1.224   4.441 -0.0421 -0.1353  0.3508
 3493W        W19627   0.928   2.407   2.551 -0.1007 -0.3046  0.0724
 3494W        W19628   8.340  14.337  12.601 -0.1224 -0.1888  0.1862
 3495W        W19629   0.463   3.084   1.483  0.1855  0.1457  0.3704
 3496W        W19630  12.944  15.081   1.512 -0.0817 -0.0662 -0.3467
 3497W        W19631  10.302   9.299  14.433 -0.1283  0.0282 -0.0573
 3498W        W19632  13.382  15.964   0.693 -0.3023  0.1345  0.1898
 3499W        W19633  12.391   0.106  13.390 -0.0173 -0.0990  0.0941
 3500W        W19634   3.484   9.928   3.793 -0.0979 -0.0417 -0.1226
 3501W        W19635   6.238   7.070   5.341 -0.0851  0.2810  0.0446
 3502W        W19636   3.006  13.038  10.493 -0.2389 -0.1562  0.0531
 3503W        W19637  10.308   0.409   2.100 -0.0397 -0.2517 -0.0680
 3504W        W19638   4.981   2.757   4.711  0.0304 -0.0321  0.0145
 3505W        W19639   3.120   8.812   5.183  0.0914  0.1113 -0.1760
 3506W        W19640   7.524   6.700   1.690  0.1101  0.2828  0.1157
 3507W        W19641  16.511   1.128   4.153  0.3393 -0.1084 -0.1853
 3508W        W19642  13.777   0.855  13.824 -0.1719  0.0767 -0.0879
 3509W        W19643   6.787  15.453  14.137  0.0613  0.3792 -0.2272
 3510W        W19644  17.975  16.543   0.136  0.3301  0.3931  0.0240
 3511W        W19645   2.546   3.791   1.855  0.0531  0.0875 -0.0464
 3512W        W19646  10.905   5.772  12.392 -0.1134 -0.2621 -0.3709
 3513W        W19647   4.249  12.055  12.682  0.0761  0.2199 -0.1528
 3514W        W19648  10.222  15.198   2.621  0.2191  0.1183 -0.0976
 3515W        W19649   4.674  17.287  14.073  0.1328 -0.2380  0.1952
 3516W        W19650   9.824   2.750   0.346 -0.1535 -0.0798 -0.1985
 3517W        W19651   0.549   8.915   0.127 -0.2096 -0.1546 -0.2532
 3518W        W19652  10.455  11.441   0.977  0.0151  0.1670  0.0852
 3519W        W19653  10.349   5.761  11.837 -0.0743 -0.4407 -0.1662
 3520W        W19654  11.278  17.874   4.093  0.0789  0.0346  0.1910
 3521W        W19655   0.100  12.803   1.695 -0.0346  0.4993  0.0011
 3522W        W19656   1.143  17.473   5.100 -0.3538 -0.2112 -0.2536
 3523W        W19657   4.825  15.440  14.704 -0.3793 -0.0062 -0.2065
 3524W        W19658  17.501   6.384   0.367  0.0552 -0.2483 -0.0639
 3525W        W19659   9.469   4.928   3.340 -0.1511 -0.1310  0.1904
 3526W        W19660  13.385  13.216   1.789  0.1461  0.3904  0.1648
 3527W        W19661  12.981   8.554  10.702  0.0149 -0.0646  0.0465
 3528W        W19662  16.159   3.725  14.299  0.0489 -0.0277 -0.0817
 3529W        W19663  14.864  13.379  15.500  0.3319  0.0773 -0.1948
 3530W        W19664   7.552   6.740  12.379 -0.0031 -0.2968  0.0940
 3531W        W19665  17.893   8.448   3.580 -0.2397 -0.5308 -0.1366
 3532W        W19666  10.880   1.520   3.824  0.1123  0.2937  0.1571
 3533W        W19667   8.317   4.637  14.817 -0.0152 -0.2339 -0.1284
 3534W        W19668  15.474   5.188  15.209 -0.0650 -0.1606 -0.0898
 3535W        W19669   5.660   9.749   4.963 -0.1455  0.3427 -0.1585
 3536W        W19670   8.783   6.372   3.325  0.1426  0.2116  0.3878
 3537W        W19671   3.754   8.973  14.143  0.1315  0.0067 -0.0318
 3538W        W19672   9.177   8.424   5.351 -0.1097 -0.1910  0.0592
 3539W        W19673   9.731   0.247  13.228  0.2370 -0.2285  0.1905
 3540W        W19674  15.060  10.216   3.423 -0.0568 -0.0422 -0.5127
 3541W        W19675  10.848   6.716   5.361  0.1599 -0.0738  0.0264
 3542W        W19676   1.823  17.750  14.769 -0.2129  0.1132  0.1156
 3543W        W19677  12.978   6.510  11.728 -0.0570 -0.1366  0.5901
 3544W        W19678   1.450   7.130   1.898  0.1116 -0.0352 -0.1273
 3545W        W19679  16.389   1.252  10.666  0.2472  0.0199  0.0225
 3546W        W19680  11.259   0.361  11.602 -0.1141 -0.2412  0.0408
 3547W        W19681   9.729   9.689   5.021  0.1818  0.2527 -0.1005
 3548W        W19682  12.052   0.825  13.280  0.0521  0.0368  0.4089
 3549W        W19683   5.097  10.243  12.950  0.0089  0.2270 -0.2003
 3550W        W19684  13.917   9.474  10.341  0.0647 -0.0428  0.0754
 3551W        W19685   0.660  13.170  12.269 -0.0595 -0.0104 -0.2460
 3552W        W19686  15.405   7.266  13.335 -0.0086  0.0789  0.0149
 3553W        W19687   0.248  17.197   2.430 -0.2538 -0.2459 -0.0319
 3554W        W19688   5.712   0.097   4.122 -0.1482  0.1887  0.1049
 3555W        W19689   3.811   4.853   1.438  0.1313 -0.0461 -0.4015
 3556W        W19690  18.076  12.961  15.395 -0.3075  0.2212  0.2115
 3557W        W19691   7.705   4.004  11.639  0.1433  0.1289 -0.1035
 3558W        W19692  11.163  12.267  10.425  0.5140 -0.3477 -0.1640
 3559W        W19693   5.304  15.349   0.118  0.1044  0.3168 -0.1289
 3560W        W19694   3.409   8.844  14.490  0.2279 -0.1297  0.0157
 3561W        W19695   2.312  18.133  14.796  0.1488  0.2625 -0.0559
 3562W        W19696  15.681  17.787   4.534 -0.0095  0.0861 -0.1465
 3563W        W19697   3.093   7.043  14.833 -0.0547 -0.2946  0.0919
 3564W        W19698  17.111   1.538   5.617 -0.1424 -0.1449  0.2304
 3565W        W19699  10.162  17.865  11.135  0.0745 -0.1548  0.1920
 3566W        W19700  11.433  16.968   1.955 -0.0021 -0.0188  0.2835
 3567W        W19701   7.947   6.940   4.923  0.1618 -0.1104  0.2157
 3568W        W19702   5.372  18.363  13.249 -0.0480  0.0756  0.1893
 3569W        W19703   3.928  17.812   2.077  0.3740 -0.2603 -0.1458
 3570W        W19704   5.327   0.274  12.828 -0.2317 -0.0182 -0.1199
 3571W        W19705   7.170  12.101  14.910  0.0868 -0.1736  0.0370
 3572W        W19706   9.299   7.188   2.943 -0.0296  0.2870  0.0433
 3573W        W19707   0.288   0.736  14.210  0.0900 -0.0798  0.2187
 3574W        W19708   6.750   6.169  10.551 -0.2149 -0.0751  0.0999
 3575W        W19709   6.599  11.916   4.220  0.1399 -0.0823 -0.0121
 3576W        W19710  13.158  13.207  13.138  0.2658  0.0161 -0.2653
 3577W        W19711   4.807  15.551   4.097 -0.3147 -0.1062 -0.1546
 3578W        W19712   2.289  11.946  10.015 -0.3886 -0.4187 -0.2884
 3579W        W19713  15.980  15.767   4.410 -0.0656  0.3325 -0.0323
 3580W        W19714  12.793   4.982  13.676 -0.1041  0.0310  0.0727
 3581W        W19715  18.343  10.645   2.232  0.3158 -0.0484 -0.1699
 3582W        W19716   7.401   8.349   5.220 -0.1177 -0.2553  0.0280
 3583W        W19717   7.098   1.958  13.729 -0.0693  0.1205  0.1386
 3584W        W19718   4.905   1.178  13.096 -0.2738 -0.3587  0.0558
 3585W        W19719  16.034  12.025  11.986  0.1011 -0.0690 -0.0295
 3586W        W19720   8.737  17.797   1.372  0.0118 -0.0686 -0.0580
 3587W        W19721  13.790   9.261  12.890 -0.0794  0.0340  0.0513
 3588W        W19722  11.637   2.801  14.977 -0.1416  0.1724  0.1746
 3589W        W19723   8.404   6.131   5.082 -0.0357 -0.1746 -0.0342
 3590W        W19724   3.042   3.269  13.480  0.0205 -0.1839 -0.1243
 3591W        W19725  12.957  17.979   1.814  0.2030  0.0408 -0.0984
 3592W        W19726   1.073   6.458  14.154 -0.0894 -0.0222 -0.1838
 3593W        W19727   9.136  17.296  12.668  0.3030 -0.0700 -0.1701
 3594W        W19728  10.384   7.953  14.029  0.0691 -0.0266 -0.0296
 3595W        W19729   0.403   7.267   2.692  0.0255  0.3647  0.2610
 3596W        W19730   4.432  10.876   3.568 -0.2221  0.0809 -0.1202
 3597W        W19731   2.954   0.184   2.640 -0.1832 -0.0688  0.0944
 3598W        W19732  14.816   1.933  15.387 -0.3245 -0.1334  0.0063
 3599W        W19733   6.655  17.776  14.548 -0.0493  0.2330 -0.0487
 3600W        W19734  11.268   3.520  12.488  0.1240  0.2478  0.2190
 3601W        W19735  14.291  12.595  12.952  0.2376  0.3042 -0.3558
 3602W        W19736   8.008   6.666   1.668  0.0636 -0.0130  0.0990
 3603W        W19737  12.054   6.044   1.548  0.0250  0.2835 -0.2310
 3604W        W19738  15.386  14.654   1.185  0.3208 -0.1561  0.0128
 3605W        W19739  12.056  10.237  12.014  0.0292 -0.1279  0.0136
 3606W        W19740  17.723   8.617   2.754 -0.0958 -0.1820  0.0977
 3607W        W19741   0.912   2.768   4.314  0.1805  0.1926 -0.0561
 3608W        W19742   0.182  14.713   0.808 -0.1242  0.0201  0.0943
 3609W        W19743  18.123   5.506   0.474  0.4046 -0.2365  0.0501
 3610W        W19744   0.742   5.130   0.330 -0.1032 -0.2133 -0.4148
 3611W        W19745   1.933   9.547   2.835  0.0786  0.0460  0.0227
 3612W        W19746  11.314  12.150  11.978 -0.1429 -0.1463 -0.1051
 3613W        W19747  14.572  13.311  12.076  0.0148  0.1993  0.2033
 3614W        W19748   4.434   8.060   0.696  0.0022 -0.0745  0.1116
 3615W        W19749  16.876   3.952   0.662  0.0706 -0.2118 -0.2728
 3616W        W19750  14.299  12.424   2.455  0.2332 -0.0463 -0.2527
 3617W        W19751   5.350  13.302   1.269  0.1556 -0.2843  0.2935
 3618W        W19752  10.879   4.101   0.735  0.4418  0.1912 -0.0073
 3619W        W19753   0.258   9.459   3.126 -0.0518 -0.0373  0.0450
 3620W        W19754   7.718   9.685   1.089  0.1559 -0.1797 -0.1942
 3621W        W19755   7.387   8.581  14.638  0.0485  0.1977  0.2841
 3622W        W19756  17.715   3.617   1.488  0.0100  0.0683  0.2332
 3623W        W19757  17.696  11.450  11.910 -0.1028 -0.0112 -0.0590
 3624W        W19758  17.599  18.718   4.538  0.2084 -0.1645  0.4645
 3625W        W19759  13.063  16.395   5.716 -0.0683  0.0804  0.0250
 3626W        W19760  18.128  13.772  15.540 -0.2195 -0.2315  0.3327
 3627W        W19761  13.432   3.975   0.586  0.1264 -0.2388  0.0008
 3628W        W19762  15.298   1.453  10.654  0.1997  0.2043  0.0289
 3629W        W19763   4.674   1.565  13.817  0.0297  0.1918 -0.1799
 3630W        W19764   2.847   4.467  13.956 -0.0154 -0.1983 -0.1888
 3631W        W19765   2.103   8.039  13.594  0.3415 -0.0861 -0.1258
 3632W        W19766  18.195   5.160   2.002 -0.1258  0.3814 -0.5865
 3633W        W19767  13.277   9.609  11.170 -0.0052 -0.1635 -0.1068
 3634W        W19768   1.869   6.184   0.714  0.0260  0.2824 -0.3216
 3635W        W19769   9.586  16.619   4.535  0.2910 -0.1208 -0.1198
 3636W        W19770  13.377   2.875   1.205  0.0717 -0.0063  0.5100
 3637W        W19771   3.471  14.632  12.066  0.1893 -0.2920 -0.2098
 3638W        W19772  17.088   5.396   3.350  0.1762 -0.2500 -0.0582
 3639W        W19773  11.903  10.398   1.263 -0.0517  0.1437  0.1247
 3640W        W19774  16.067   5.142   1.153  0.1862  0.0088 -0.1258
 3641W        W19775   0.917  14.762  14.137  0.3649 -0.0080 -0.2185
 3642W        W19776  11.237   2.854   1.466  0.3004 -0.0357 -0.1084
 3643W        W19777   0.183  10.381   1.345 -0.0133 -0.1682  0.0909
 3644W        W19778  18.367  10.449  10.963 -0.1766  0.0825  0.0957
 3645W        W19779  18.583   2.203  11.785  0.2016  0.4873  0.2777
 3646W        W19780   5.027   8.918  12.371  0.0096 -0.0309 -0.0207
 3647W        W19781   6.953  10.699   3.403 -0.3118 -0.3482 -0.0538
 3648W        W19782   5.628  12.545   1.121 -0.1317 -0.1526 -0.0761
 3649W        W19783  13.155  16.441  13.240  0.0787 -0.1827 -0.0021
 3650W        W19784   6.954   8.603   4.324  0.4665 -0.3644 -0.1641
 3651W        W19785   8.652   4.056   2.431  0.0860 -0.1978  0.0325
 3652W        W19786  12.907  10.309  12.028 -0.2225  0.0273 -0.1277
 3653W        W19787  11.224   6.349  14.966 -0.2441 -0.1601 -0.1896
 3654W        W19788  17.741   6.944   2.628  0.2592 -0.0918 -0.0785
 3655W        W19789  17.171   2.813   5.559  0.0829  0.2102 -0.1820
 3656W        W19790   5.533  15.462  12.206 -0.2866  0.2837 -0.0494
 3657W        W19791   8.429   1.102  14.721 -0.0062 -0.1590 -0.1513
 3658W        W19792   7.875  11.066   3.620 -0.0519 -0.2529  0.2567
 3659W        W19793  18.269  14.645  11.000 -0.1335 -0.1116  0.1293
 3660W        W19794   8.659  10.806  11.751  0.0008 -0.0042  0.3754
 3661W        W19795  17.284   1.148  10.266  0.0169 -0.1252  0.0918
 3662W        W19796   4.018   4.868  11.812  0.1818 -0.5548  0.0849
 3663W        W19797   4.257  17.001  12.823  0.0541  0.0695 -0.1100
 3664W        W19798  12.296  16.514  15.313 -0.2925  0.0597 -0.0337
 3665W        W19799  18.337  10.203  14.145  0.1745 -0.1737 -0.1270
 3666W        W19800  10.278   7.243   0.691  0.2358 -0.1325  0.0467
 3667W        W19801   7.757   7.977   2.804 -0.2987 -0.0359  0.1848
 3668W        W19802   8.940   3.145  13.717  0.0231  0.1394 -0.0251
 3669W        W19803  11.217  18.591   5.212  0.0414  0.1788 -0.2071
 3670W        W19804   0.006  13.927  12.900  0.1097 -0.2829  0.2384
 3671W        W19805  11.482   9.138   0.642  0.0993 -0.1294 -0.0886
 3672W        W19806   6.239  11.750   2.313  0.0843 -0.2031  0.0639
 3673W        W19807  10.754   7.178   1.455 -0.1107  0.1932 -0.1636
 3674W        W19808  11.053   7.068   4.403  0.0405  0.0384  0.1871
 3675W        W19809  16.235   6.688  11.582  0.0456  0.0086  0.0864
 3676W        W19810   0.110   3.181  14.936 -0.2395  0.0685 -0.0664
 3677W        W19811  13.595  14.111  11.851  0.1975 -0.0033 -0.1531
 3678W        W19812   0.113   2.665  11.762 -0.2459 -0.0641  0.0935
 3679W        W19813  10.526  16.414   3.985  0.2617 -0.0074 -0.0968
 3680W        W19814   3.135   5.533  13.520  0.4396 -0.3780  0.0180
 3681W        W19815  11.452  14.345  11.111 -0.0193  0.1944 -0.1235
 3682W        W19816  17.850   3.385   2.144  0.0875 -0.2295  0.1124
 3683W        W19817   0.358   3.046   1.954 -0.0769  0.1096  0.0432
 3684W        W19818  18.617   1.764   0.320  0.1716  0.3826 -0.2331
 3685W        W19819  10.912   0.316   1.975  0.1141  0.1756 -0.0553
 3686W        W19820  10.683   9.525  14.107  0.3069 -0.0134  0.1322
 3687W        W19821   9.176  11.159   1.958 -0.0687  0.0780 -0.1317
 3688W        W19822   6.459  16.637   1.243  0.0825 -0.2539  0.2029
 3689W        W19823   2.034   4.086  10.544  0.3245  0.0548 -0.3374
 3690W        W19824   0.988  11.967   2.867 -0.0583  0.1099 -0.0752
 3691W        W19825  17.151   3.686  12.720  0.1218  0.1631  0.1008
 3692W        W19826  10.159   0.612  15.457 -0.1391 -0.3117 -0.4703
 3693W        W19827   0.252  11.825   3.435 -0.0163  0.1155 -0.1790
 3694W        W19828   1.124   2.800   4.731 -0.0019  0.1237 -0.3751
 3695W        W19829   8.375   4.718  11.471 -0.0769 -0.3527  0.4293
 3696W        W19830  15.375   0.002   1.856  0.0735 -0.0030 -0.0527
 3697W        W19831  11.390   1.781   0.070  0.1797  0.1954  0.1487
 3698W        W19832  12.463   2.294   4.826  0.4104  0.0114 -0.0957
 3699W        W19833  12.439   7.389  12.128  0.3073  0.1214 -0.3230
 3700W        W19834   7.127  16.945   3.822 -0.2782  0.2890 -0.0196
 3701W        W19835   1.393   4.557  14.263 -0.0546 -0.2432 -0.0536
 3702W        W19836   3.081  12.880  14.227  0.0064 -0.1211  0.2250
 3703W        W19837   7.617   6.494  11.267  0.0047 -0.2197 -0.3103
 3704W        W19838   9.248  13.240  10.625  0.0221 -0.3138  0.0935
 3705W        W19839  10.004  14.261  14.670 -0.1198 -0.0816 -0.0872
 3706W        W19840  13.057  16.593   5.147  0.4276 -0.4075 -0.1415
 3707W        W19841   0.019  12.447   3.765 -0.0147  0.0783  0.0449
 3708W        W19842  17.794   8.040   0.051 -0.1123  0.1856  0.0520
 3709W        W19843   6.234  17.972  14.354  0.0171 -0.1089 -0.2879
 3710W        W19844   4.925   5.427  11.061 -0.0170  0.0397 -0.2458
 3711W        W19845   6.070  13.967  11.384  0.2163 -0.0116  0.3606
 3712W        W19846   6.722   7.394  13.987  0.0405  0.0222 -0.2048
 3713W        W19847   1.356   3.775  15.099 -0.0668  0.0446  0.0055
 3714W        W19848   0.076  11.218   4.567 -0.2663  0.3881 -0.2452
 3715W        W19849  15.162  17.863  13.188 -0.2494 -0.1434  0.0834
 3716W        W19850  15.429  17.322   4.449 -0.1101  0.2490 -0.0743
 3717W        W19851  10.811   4.810   3.557  0.1607  0.0729 -0.1191
 3718W        W19852  12.966  11.486  10.447  0.0175 -0.2884 -0.2076
 3719W        W19853  14.000   4.831   0.323 -0.0622 -0.1268  0.0407
 3720W        W19854   9.971   6.497   3.386  0.0036  0.0951 -0.1302
 3721W        W19855   7.437   3.544   2.280 -0.1433  0.1058  0.0086
 3722W        W19856  10.244  14.095  13.321 -0.2090 -0.0990 -0.3839
 3723W        W19857  17.753   6.608   1.347 -0.1490  0.1298  0.2656
 3724W        W19858  13.937   5.254  11.323 -0.1656  0.1311 -0.1178
 3725W        W19859  15.240   5.392   4.362  0.3816  0.1663  0.1879
 3726W        W19860  11.065   1.289   4.292 -0.3653 -0.0058  0.3335
 3727W        W19861  14.279   8.020   1.483  0.0714  0.3751 -0.2689
 3728W        W19862   6.840  15.937  15.126 -0.0741  0.1345 -0.2175
 3729W        W19863  13.669   4.951  12.608  0.0190 -0.0224  0.1334
 3730W        W19864  15.477  18.066  11.973  0.0343  0.2149 -0.0914
 3731W        W19865   1.723  10.058   2.053 -0.0687  0.2421  0.0205
 3732W        W19866  11.419  18.432   3.809  0.0259 -0.1742  0.2904
 3733W        W19867  12.127  15.497  13.036  0.1898 -0.0866 -0.1515
 3734W        W19868  14.985   1.353   2.038 -0.0319 -0.2055  0.3358
 3735W        W19869   2.371  16.368   3.355 -0.1605 -0.1432 -0.2229
 3736W        W19870   8.267   4.176  13.657 -0.2353  0.2769 -0.0736
 3737W        W19871  13.959   4.024  10.812 -0.0011  0.2265 -0.0877
 3738W        W19872   3.345  12.772  15.055 -0.0791 -0.0137  0.2171
 3739W        W19873  15.126  18.144   0.713 -0.0605  0.0296  0.0387
 3740W        W19874   8.335   7.444  13.478  0.0021 -0.1058 -0.0785
 3741W        W19875  16.247   2.490  13.123 -0.1811 -0.2255 -0.0813
 3742W        W19876  13.711  12.867   4.012  0.1623 -0.2512  0.2790
 3743W        W19877   8.263  16.077   0.095 -0.0652  0.1306 -0.1083
 3744W        W19878  11.966  14.224   0.030 -0.0325  0.0462  0.0726
 3745W        W19879   6.140  12.222   0.195 -0.0632  0.0584 -0.2688
 3746W        W19880   9.881   5.713   3.999 -0.0128 -0.0426  0.1182
 3747W        W19881   3.246  10.112   5.137  0.1386  0.1688 -0.0134
 3748W        W19882   1.688   3.304  12.922  0.0414  0.2042  0.1497
 3749W        W19883   3.289   0.227  12.294  0.0558  0.3907 -0.2704
 3750W        W19884  13.429  15.557  13.358  0.2515  0.2008 -0.2334
 3751W        W19885   1.158  10.479   4.937  0.1456  0.0556 -0.0153
 3752W        W19886   2.849   6.566   1.749 -0.1000 -0.2073 -0.0195
 3753W        W19887   9.194  10.751   0.103 -0.1428  0.1068  0.1605
 3754W        W19888  13.932   3.167   3.726 -0.0156 -0.1685 -0.0772
 3755W        W19889  16.100   4.046   0.735 -0.0969  0.1034  0.1202
 3756W        W19890  15.262   9.161   4.526 -0.0112 -0.2652  0.3771
 3757W        W19891  15.224   1.195   0.711  0.0537 -0.5044 -0.1049
 3758W        W19892   0.812   4.373  11.645  0.0156 -0.2141 -0.1932
 3759W        W19893   2.590   1.024  14.327  0.4376  0.1900  0.1213
 3760W        W19894   3.670  11.143   2.186 -0.1640 -0.3088  0.0325
 3761W        W19895  14.327   7.057   0.193 -0.0387  0.2105 -0.1908
 3762W        W19896  16.806   7.345  11.266  0.2930  0.2029  0.0972
 3763W        W19897   1.861  16.442   1.404 -0.0737  0.0967  0.0204
 3764W        W19898  13.691   5.702   2.171  0.2042  0.0220  0.3779
 3765W        W19899  15.062   1.172   5.704 -0.0525 -0.2311 -0.1378
 3766W        W19900   9.236  18.648   2.841  0.1884  0.1073  0.1454
 3767W        W19901  13.132  17.684  15.496 -0.2787  0.0017 -0.0929
 3768W        W19902   4.064   7.059   3.759 -0.3715  0.1928  0.0972
 3769W        W19903   7.386   0.812   4.070 -0.1097  0.1107 -0.0300
 3770W        W19904   1.039   3.770  10.514 -0.3210  0.2191  0.4311
 3771W        W19905  18.353  17.023  10.735  0.2864  0.1195  0.0031
 3772W        W19906  12.944  15.483  10.589  0.1399 -0.2031  0.0309
 3773W        W19907   7.362   1.821   2.914 -0.2689 -0.2851 -0.1630
 3774W        W19908  13.988  16.631   0.679 -0.2961 -0.3503  0.0909
 3775W        W19909   3.660   0.559  14.973 -0.0644 -0.0087  0.0442
 3776W        W19910   1.304   4.393   0.893  0.0844 -0.1054 -0.0097
 3777W        W19911  12.979  13.264  11.978 -0.1497 -0.0356 -0.3092
 3778W        W19912  16.742  15.926   1.160 -0.1903 -0.0237 -0.3150
 3779W        W19913   9.125   8.136  11.276  0.1622  0.1806 -0.0834
 3780W        W19914  15.405   5.916   1.136  0.0814  0.2764 -0.3183
 3781W        W19915  13.299  11.340   2.221 -0.1743 -0.1829 -0.0884
 3782W        W19916  17.265   6.424  15.147 -0.2639 -0.6508 -0.0480
 3783W        W19917   5.495   7.029  13.156 -0.1377  0.1123  0.0291
 3784W        W19918  15.548  15.532   4.646 -0.0434  0.3572  0.1103
 3785W        W19919   4.477  12.868   0.861 -0.0596 -0.0694  0.3276
 3786W        W19920  17.416   6.501   2.610  0.1979 -0.0596 -0.0746
 3787W        W19921   4.323  13.571  12.149 -0.0570  0.2350  0.1653
 3788W        W19922   1.344  13.359  11.237  0.0637  0.2342  0.0368
 3789W        W19923   0.849   8.389   4.951  0.1691 -0.0837  0.2728
 3790W        W19924   3.753   5.383  14.877 -0.0271  0.0567 -0.0676
 3791W        W19925  14.509   1.551   2.210 -0.1273  0.1212  0.1049
 3792W        W19926  13.425   9.823   3.184  0.1934 -0.2457 -0.0492
 3793W        W19927   4.790  18.089  12.630 -0.0344 -0.0059 -0.1913
 3794W        W19928  15.918   2.993  14.757 -0.0202 -0.2665 -0.1448
 3795W        W19929   1.641   1.047   4.130  0.2244  0.1320  0.0308
 3796W        W19930   4.741  11.229  13.994 -0.2302 -0.0140  0.0204
 3797W        W19931   1.365   3.849   0.406 -0.0839 -0.3329 -0.1764
 3798W        W19932   3.338   8.643   0.890  0.2880 -0.0868  0.3923
 3799W        W19933   9.097  17.141   5.526  0.1298 -0.1670 -0.0284
 3800W        W19934   0.050   4.472   3.130  0.0459  0.1144  0.0393
 3801W        W19935   9.862   4.045  11.612 -0.0555  0.1288  0.0639
 3802W        W19936   1.219  17.078   0.229  0.0176 -0.1205 -0.0644
 3803W        W19937   3.024   7.912   1.578  0.0321 -0.2212 -0.1819
 3804W        W19938  10.351  16.426  11.950 -0.0759  0.2676  0.1994
 3805W        W19939   2.297   3.689  10.754  0.3033  0.0723  0.2317
 3806W        W19940   5.318   6.902   1.763  0.2047 -0.0471 -0.2375
 3807W        W19941   8.393  16.951   3.977  0.2095 -0.1115 -0.1219
 3808W        W19942  12.175  11.973   2.152  0.0969 -0.3831  0.0600
 3809W        W19943  13.305   7.312   2.219 -0.3582 -0.0988  0.0910
 3810W        W19944   0.349   2.536  12.348  0.1844  0.2039  0.0124
 3811W        W19945   6.971   4.042   3.272 -0.1461  0.2521  0.1622
 3812W        W19946   6.283  16.233   2.280 -0.0065 -0.3593  0.0990
 3813W        W19947   6.991  16.165   3.087  0.2913 -0.0374  0.1363
 3814W        W19948   7.373  18.111   0.209 -0.0309  0.2112  0.1216
 3815W        W19949   2.125   5.186  14.578  0.2687 -0.1374  0.1662
 3816W        W19950   5.662  18.167   2.367 -0.1476 -0.2766  0.1788
 3817W        W19951  17.642  13.310   2.296 -0.2345 -0.0499  0.0425
 3818W        W19952  16.711   6.768  10.752 -0.0724  0.1830  0.0423
 3819W        W19953  14.978  13.665   2.903 -0.1874 -0.0745  0.3030
 3820W        W19954  10.736   0.147  14.929 -0.1509 -0.3897  0.1855
 3821W        W19955  14.493   5.510   3.506  0.2307  0.0108 -0.0967
 3822W        W19956   8.484   2.859  14.859  0.0340  0.2720 -0.1914
 3823W        W19957   0.756   7.956  15.251 -0.4130  0.0117  0.0582
 3824W        W19958   8.141   6.259  12.908  0.3679  0.1747  0.0111
 3825W        W19959   6.303   2.126   5.151  0.1767  0.1746 -0.3661
 3826W        W19960   7.525   8.384   2.578 -0.2249  0.0733  0.0374
 3827W        W19961   3.393   4.368   3.485 -0.0875 -0.2428 -0.2667
 3828W        W19962   3.934   3.262   0.823  0.2075 -0.2279 -0.1572
 3829W        W19963  10.994  13.292   3.540  0.1519 -0.0898  0.0802
 3830W        W19964  13.085   0.422   2.590  0.0870  0.0793 -0.2351
 3831W        W19965  17.242  12.602  15.109  0.0661 -0.0931  0.0711
 3832W        W19966  10.490  12.187   3.003  0.0497  0.1130  0.2186
 3833W        W19967   9.744   7.020   5.350 -0.2716 -0.1193 -0.0542
 3834W        W19968  12.345  14.914   3.589  0.1122  0.0281 -0.0081
 3835W        W19969   8.945   6.293  13.607 -0.0606 -0.0349  0.1183
 3836W        W19970   7.135  16.349  13.521 -0.0122  0.0339  0.1678
 3837W        W19971   4.477   3.914  13.716  0.0742  0.0355 -0.1054
 3838W        W19972  10.888  13.743  15.048  0.1696 -0.0207  0.0214
 3839W        W19973  17.895  16.407   2.218  0.1345  0.1189 -0.0458
 3840W        W19974   1.667   2.303  11.973  0.0249 -0.2302  0.2031
 3841W        W19975  17.657   7.014   5.127  0.0735 -0.2886 -0.0194
 3842W        W19976  12.336   1.688   4.004 -0.2284 -0.0421 -0.2471
 3843W        W19977   6.917  18.678  13.491 -0.0470  0.1930 -0.0328
 3844W        W19978   9.244  13.773   5.439 -0.6628  0.1446  0.0147
 3845W        W19979   4.872   8.623  10.830  0.0569 -0.1606  0.2098
 3846W        W19980   3.645  10.027  13.107 -0.5456 -0.2317 -0.1902
 3847W        W19981   7.220  16.733   4.325  0.0193 -0.1479  0.1539
 3848W        W19982   4.803   9.030   0.805 -0.1565  0.4430  0.1245
 3849W        W19983  10.810   0.929   5.770  0.2089 -0.1157  0.2288
 3850W        W19984  10.193  17.229   3.502  0.1727  0.3555 -0.2874
 3851W        W19985  17.098   8.616  15.386  0.4814 -0.0546 -0.2366
 3852W        W19986  14.216   8.690   0.506 -0.3150 -0.0318 -0.1442
 3853W        W19987  18.555   0.142  13.648 -0.0413 -0.1679 -0.0292
 3854W        W19988   0.596   2.597  11.818  0.2748 -0.0844 -0.3249
 3855W        W19989  11.549  17.530  14.008  0.2041  0.0053 -0.2147
 3856W        W19990   0.687  10.221  13.874 -0.1497  0.1731  0.3726
 3857W        W19991   9.742  11.699   2.637 -0.0946  0.0473  0.2433
 3858W        W19992  17.320  10.912  13.157  0.2282  0.1821 -0.3730
 3859W        W19993  14.422  10.091  11.668  0.0928 -0.0203 -0.3440
 3860W        W19994  11.591  10.469  14.148 -0.0393  0.0444  0.4551
 3861W        W19995  13.547   1.609   4.318  0.1149  0.1994 -0.2960
 3862W        W19996  10.074  10.344  15.036  0.2176 -0.0349  0.1723
 3863W        W19997  13.816  11.083  11.856  0.2301 -0.3253  0.1528
 3864W        W19998   6.489   4.772  13.786 -0.2798 -0.1111  0.3935
 3865W        W19999  10.275  14.945   1.460  0.1209  0.0513  0.0483
 3866W        W20000   6.150   2.120  12.547 -0.3234 -0.0329 -0.3822
 3867W        W20001   1.251   1.473  14.184  0.0300 -0.0784 -0.3997
 3868W        W20002  15.074  15.777   4.585 -0.0913  0.0308 -0.2345
 3869W        W20003  13.864  13.039   2.232 -0.1460  0.0431  0.1315
 3870W        W20004   3.998   1.152  14.849  0.0204  0.0774 -0.2161
 3871W        W20005  12.169   9.416   3.186  0.1336  0.0046  0.3619
 3872W        W20006  12.127   8.489   3.390 -0.1751 -0.1029  0.2062
 3873W        W20007  17.680   6.247   1.901 -0.1924  0.2186 -0.0152
 3874W        W20008   6.655   2.272   2.049 -0.2551 -0.2606 -0.1774
 3875W        W20009  17.517   8.021  14.802 -0.1080 -0.1143 -0.1634
 3876W        W20010   5.540   6.292  11.896  0.2016  0.1337 -0.0269
 3877W        W20011   9.089  13.808  14.055 -0.0887  0.0519 -0.1669
 3878W        W20012   0.352  13.910   0.636 -0.2803  0.0352 -0.0296
 3879W        W20013  14.249  16.259   3.558  0.1760  0.0886 -0.0493
 3880W        W20014   0.538  12.937   0.761  0.3405  0.0987  0.0845
 3881W        W20015  10.914   9.611   1.374 -0.1998 -0.1966 -0.0998
 3882W        W20016   8.708  13.620  14.986  0.1735  0.0189 -0.1653
 3883W        W20017  11.289  12.211   1.937  0.1133 -0.1837  0.1144
 3884W        W20018   6.024  13.927  12.149 -0.1779  0.0552  0.1827
 3885W        W20019  18.249   7.022   5.765  0.1235  0.3353 -0.0913
 3886W        W20020   8.732   3.531   2.530  0.0119  0.1513 -0.2328
 3887W        W20021   3.428   4.533   0.667  0.0649 -0.1121  0.2801
 3888W        W20022   1.720   4.621   2.420  0.0008 -0.1620  0.2358
 3889W        W20023   6.665   4.677  13.344 -0.1809  0.1935 -0.0373
 3890W        W20024   9.466  12.976  11.577  0.1262 -0.0703  0.0153
 3891W        W20025   4.211  13.576  11.554  0.3399 -0.0679  0.4154
 3892W        W20026  15.173   8.702  14.648 -0.2505 -0.1618  0.0242
 3893W        W20027   9.759  16.458   2.433  0.0463 -0.1524 -0.2998
 3894W        W20028  16.924  14.884   1.428  0.2329  0.3608  0.2926
 3895W        W20029   1.079   4.595   5.595 -0.1686  0.2836  0.2878
 3896W        W20030  11.552   9.898  12.052 -0.1513 -0.2178 -0.0648
 3897W        W20031   0.239   7.708   4.964  0.2781  0.1154  0.4394
 3898W        W20032   2.786   2.064  12.739  0.0866  0.1823  0.0009
 3899W        W20033  10.526   8.269  15.382 -0.2199 -0.2612  0.0996
 3900W        W20034   9.327  13.650   1.534  0.0972  0.1125 -0.0588
 3901W        W20035  16.196   2.300   3.187  0.1137  0.0256 -0.2507
 3902W        W20036  11.963   3.056  14.160 -0.4023  0.1237  0.1691
 3903W        W20037   7.928  15.919   5.497  0.1557  0.0747 -0.2494
 3904W        W20038   1.892  12.239   2.770 -0.2352  0.4534  0.0154
 3905W        W20039   8.445  12.938  11.594 -0.2677  0.0912  0.0859
 3906W        W20040   9.309   9.826  13.523 -0.2255  0.0358 -0.1215
 3907W        W20041   7.583   1.406   2.021 -0.0902  0.4132 -0.1621
 3908W        W20042   4.088  15.552   2.112 -0.0383  0.0986 -0.1251
 3909W        W20043   2.301  13.306  11.646 -0.0343  0.2014 -0.0425
 3910W        W20044   1.740  17.918  13.410  0.1004 -0.1419 -0.2014
 3911W        W20045  11.661   2.834  12.611  0.2377 -0.0912  0.1279
 3912W        W20046  13.402  18.657  11.828  0.1707  0.0657  0.1358
 3913W        W20047   2.291  17.082   5.373  0.1210 -0.0913 -0.0696
 3914W        W20048   2.971  16.663   0.060  0.0935  0.1281  0.0747
 3915W        W20049  15.350   9.937  11.830  0.3614 -0.2309 -0.2138
 3916W        W20050   3.103  17.601  13.638  0.2638  0.1082 -0.0953
 3917W        W20051   1.849  17.951   4.054 -0.1947  0.1441  0.2561
 3918W        W20052   2.999   8.123   0.330  0.2299 -0.1123  0.0308
 3919W        W20053  15.538  10.241   1.703  0.2175  0.1631 -0.1383
 3920W        W20054  15.543  13.743   3.156 -0.0754 -0.1719 -0.2069
 3921W        W20055   0.484  15.633  11.565 -0.0094  0.2875 -0.1939
 3922W        W20056  17.635   8.564  11.382 -0.3458 -0.0099 -0.1485
 3923W        W20057   3.658   4.938  14.055 -0.0944  0.0572  0.0324
 3924W        W20058   5.253  13.784   9.971 -0.1237 -0.0291 -0.1656
 3925W        W20059  18.589   8.822  14.277  0.3388  0.1174  0.1186
 3926W        W20060  16.456   0.142  11.760  0.2602  0.0979  0.0622
 3927W        W20061   3.794   9.810   2.999 -0.1121 -0.1367  0.1275
 3928W        W20062   6.594   8.893   1.320  0.2095  0.0925 -0.0946
 3929W        W20063   5.619   1.849  12.760 -0.4190  0.2783  0.0469
 3930W        W20064  12.192  16.539   5.021 -0.1596 -0.0453  0.0932
 3931W        W20065  13.918   1.980  13.273  0.1624  0.3998 -0.2279
 3932W        W20066  16.558   9.970  14.781 -0.2863 -0.0302 -0.0536
 3933W        W20067   8.152   6.112   1.777  0.2253 -0.0433  0.1327
 3934W        W20068  10.277  15.600   2.317 -0.1270 -0.0001  0.1195
 3935W        W20069  13.649  11.507   0.144  0.3273  0.0171 -0.1726
 3936W        W20070  15.783  13.040   0.511 -0.1085 -0.2179  0.2215
 3937W        W20071  12.134  15.360  14.757  0.0561  0.0169  0.1300
 3938W        W20072  11.723  17.203   2.550  0.0099  0.3424 -0.2972
 3939W        W20073   6.276  15.142  14.184 -0.0853 -0.1041  0.1563
 3940W        W20074  12.018   4.090   4.167  0.1930  0.0796 -0.1413
 3941W        W20075   0.792  17.385   1.671  0.1034 -0.1929 -0.1002
 3942W        W20076  11.077   8.454  14.428  0.0192 -0.4918  0.1578
 3943W        W20077   1.270   0.111   1.491 -0.3895 -0.1618 -0.0566
 3944W        W20078   1.262  11.262   2.184 -0.0159 -0.2307 -0.1910
 3945W        W20079  10.898  11.454  15.118 -0.0774 -0.0992 -0.3604
 3946W        W20080   1.980  16.847   2.321  0.1306 -0.1508 -0.0616
 3947W        W20081   6.142   0.159  13.071  0.0476  0.2332 -0.0786
 3948W        W20082  12.288  10.432  11.171 -0.0288 -0.0786  0.3388
 3949W        W20083  15.948  11.373  14.502 -0.1606 -0.1203  0.2004
 3950W        W20084  17.377  12.330   2.441  0.1275 -0.2978  0.1611
 3951W        W20085   6.324  15.722   2.351 -0.0522 -0.1413  0.0448
 3952W        W20086   2.040   7.040  12.718  0.1415 -0.2373  0.1166
 3953W        W20087  10.701   9.792  15.037 -0.1213 -0.0056 -0.0118
 3954W        W20088   6.130   4.777  12.412 -0.1351  0.5259 -0.0314
 3955W        W20089   0.664   9.747  11.604  0.0936 -0.4921 -0.1882
 3956W        W20090   4.194  18.177  14.228  0.0763 -0.0924 -0.2425
 3957W        W20091   6.746  15.945  14.248  0.2575  0.0403  0.0233
 3958W        W20092   4.543   3.637   4.881  0.4364 -0.1620  0.0566
 3959W        W20093  18.722  14.101  12.371  0.1269 -0.0019 -0.3774
 3960W        W20094  10.431  14.931  13.538 -0.0092  0.4395  0.2337
 3961W        W20095   7.751  16.848   5.386  0.2802 -0.0985 -0.0032
 3962W        W20096   5.238   0.525   0.063 -0.0350 -0.1454  0.0408
 3963W        W20097   1.450  15.473   4.866 -0.2189  0.2544 -0.1237
 3964W        W20098  10.159   6.894  12.155 -0.2224 -0.1268 -0.1573
 3965W        W20099   6.674  14.196   9.874 -0.0954 -0.0630  0.2690
 3966W        W20100   6.847  12.113   2.820 -0.3911  0.0325  0.0976
 3967W        W20101  14.237   7.210   3.728 -0.3570 -0.0910  0.2250
 3968W        W20102   5.795  18.133  10.819  0.2853 -0.3543 -0.0178
 3969W        W20103   6.479   1.029  14.098 -0.0610 -0.0113  0.0030
 3970W        W20104  13.131   6.980  12.749 -0.0934  0.0737 -0.1136
 3971W        W20105   1.255   8.613   4.208  0.0752  0.2039  0.2375
 3972W        W20106  12.972   4.601   4.751 -0.0037  0.1935 -0.3204
 3973W        W20107  15.177  12.227  13.629  0.0383 -0.1286  0.2240
 3974W        W20108  12.819  13.846   1.944 -0.0698 -0.2903  0.0813
 3975W        W20109   6.823  14.583  12.224  0.0009 -0.0942 -0.0784
 3976W        W20110  16.548  17.898   1.471 -0.2533  0.0926  0.0209
 3977W        W20111   0.395  11.703   4.998  0.0870 -0.2343  0.2143
 3978W        W20112   6.609   4.486   1.376  0.0352  0.0080 -0.0701
 3979W        W20113   7.087   3.080  14.366  0.0881  0.1010  0.0781
 3980W        W20114   8.053  12.305   4.528  0.0102 -0.0301 -0.1414
 3981W        W20115   4.159  18.298   1.803 -0.1201  0.1189  0.0489
 3982W        W20116  16.455  12.231   2.283  0.0927  0.1280  0.1463
 3983W        W20117   8.829   0.845  11.636 -0.2962 -0.0187 -0.0166
 3984W        W20118  13.432  11.764  13.853 -0.3434 -0.2281 -0.2989
 3985W        W20119   1.600   5.904  11.175 -0.0729  0.0163 -0.1994
 3986W        W20120  12.353  13.801   3.545 -0.0278 -0.0292 -0.2747
 3987W        W20121  13.880  11.948  14.586 -0.1229 -0.1076  0.1709
 3988W        W20122   7.763   9.736   2.550 -0.4117  0.0563 -0.1980
 3989W        W20123   5.747  15.534   4.031 -0.1515  0.0524  0.2888
 3990W        W20124  15.666   3.223  13.328  0.0509 -0.3050  0.4763
 3991W        W20125  15.477  10.511   3.307 -0.0824 -0.1425  0.3918
 3992W        W20126   3.523   2.485   1.669  0.0909  0.1599  0.1792
 3993W        W20127   1.546  12.332   2.409 -0.1527 -0.0288  0.1299
 3994W        W20128  14.381  14.890   1.294  0.0024  0.0797  0.2463
 3995W        W20129   9.332  13.752  10.396 -0.1877 -0.1207 -0.1899
 3996W        W20130  13.731   8.105  12.004 -0.2437  0.0785 -0.0385
 3997W        W20131   7.426  10.969   3.471  0.2808  0.1366 -0.2506
 3998W        W20132  17.869  16.976   5.926  0.1621 -0.1498 -0.1681
 3999W        W20133   3.821  18.497   4.296  0.0054 -0.0997 -0.3504
 4000W        W20134   1.649   0.157  11.785 -0.2125  0.0241 -0.0891
 4001W        W20135   0.822   2.422  15.265 -0.2875  0.0028 -0.0932
 4002W        W20136  14.724  16.923  14.182 -0.2366 -0.0701 -0.0261
 4003W        W20137   3.325   6.457   1.909 -0.0052  0.1213  0.1322
 4004W        W20138   2.087  16.345  14.653  0.1602 -0.0408 -0.0242
 4005W        W20139  14.028  11.527   2.402  0.2338  0.1870  0.1878
 4006W        W20140   3.909  17.477  13.811  0.1113 -0.0115  0.0996
 4007W        W20141   0.041   5.197   1.790  0.1611  0.0608  0.0274
 4008W        W20142  15.727  10.819  11.209  0.0146  0.4986 -0.2208
 4009W        W20143   6.462  17.021   2.650 -0.0628  0.0381 -0.1712
 4010W        W20144   0.598  11.799   3.831  0.1404 -0.0590 -0.1405
 4011W        W20145  14.770   3.950  12.536  0.3636  0.0441 -0.3763
 4012W        W20146   8.627   7.815  14.296 -0.0164  0.1616  0.1014
 4013W        W20147  16.744  10.158   0.265  0.0155 -0.0947 -0.2147
 4014W        W20148   7.063  13.122  14.809  0.2148  0.0078  0.1145
 4015W        W20149   8.289  16.169  13.344 -0.3755 -0.1257  0.3106
 4016W        W20150   2.330  10.521  11.768  0.0176 -0.0160  0.1527
 4017W        W20151   3.758  14.068   4.479  0.2204 -0.4517 -0.1757
 4018W        W20152  12.502   0.213   4.741  0.0215 -0.0090  0.1238
 4019W        W20153  16.009  11.830   1.607 -0.1649 -0.1894 -0.0263
 4020W        W20154  11.290  15.972   1.872 -0.1539  0.1018 -0.0960
 4021W        W20155  13.610   6.051   2.534 -0.0601  0.3281  0.2181
 4022W        W20156  13.846  10.918   1.600  0.1073  0.0235  0.0184
 4023W        W20157   0.717  14.366   2.898 -0.0057 -0.0200  0.2531
 4024W        W20158   3.305  13.191   3.209  0.0147 -0.0941 -0.2609
 4025W        W20159  12.915  11.083  12.155  0.0262  0.1534 -0.3890
 4026W        W20160  10.558   8.158   2.296  0.0415  0.0625 -0.3807
 4027W        W20161  17.090  17.782  14.902  0.1772 -0.3596 -0.2515
 4028W        W20162  17.137  14.472   3.165  0.0911 -0.0584  0.1625
 4029W        W20163   3.206   3.659   1.038 -0.1897  0.1212 -0.3314
 4030W        W20164   5.369   3.070  11.440  0.0628  0.3952  0.1206
 4031W        W20165   4.803  16.253   2.803 -0.0742  0.0294  0.0585
 4032W        W20166  17.945  11.225   5.344 -0.1072  0.0531  0.1144
 4033W        W20167   9.967  11.272  14.763  0.3915  0.3432 -0.0667
 4034W        W20168  11.066  10.082  13.814  0.2563 -0.3556 -0.0022
 4035W        W20169  15.246  13.832   0.921  0.1211 -0.0532  0.0357
 4036W        W20170   9.194   1.179   0.032  0.1129  0.1472  0.1197
 4037W        W20171  11.692   3.282  13.579 -0.0441 -0.2846 -0.0582
 4038W        W20172  13.992   1.588   2.934 -0.0378 -0.0591 -0.0710
 4039W        W20173  15.137   8.416  12.732 -0.1003 -0.0861  0.0645
 4040W        W20174   0.236   0.910  13.649  0.0895 -0.0378  0.0442
 4041W        W20175   5.832   9.763   0.210 -0.0687  0.0679  0.3670
 4042W        W20176  14.899   4.614   3.689  0.1365 -0.1344  0.0283
 4043W        W20177  16.369  13.674   0.064  0.1208 -0.3339 -0.0515
 4044W        W20178  15.083   3.629  12.357  0.0820  0.2324  0.2419
 4045W        W20179  16.975  12.959  12.122  0.1289  0.2130 -0.0610
 4046W        W20180   6.306  12.628  15.506 -0.0692  0.1499 -0.1637
 4047W        W20181  11.228   0.592   3.098 -0.2952  0.0708  0.0931
 4048W        W20182  17.763  17.291   2.130  0.0369 -0.0597  0.0973
 4049W        W20183   3.017   1.522  12.001 -0.0813 -0.1958 -0.0029
 4050W        W20184   1.988  18.425  11.742  0.0873  0.0655 -0.0585
 4051W        W20185   5.695  11.434   5.904  0.2216 -0.1643 -0.0178
 4052W        W20186  15.716  11.891   1.218 -0.1405  0.1134  0.2008
 4053W        W20187  13.259  12.968   0.353 -0.0447  0.2478 -0.1076
 4054W        W20188  13.408   1.122  14.056 -0.0207 -0.0225  0.2586
 4055W        W20189  12.311   6.809  13.781 -0.0993  0.2964  0.0770
 4056W        W20190  17.433   2.521   3.880  0.1124 -0.1819 -0.2490
 4057W        W20191  13.195   1.358  14.469 -0.3802 -0.0959 -0.0288
 4058W        W20192   1.888  16.293   3.488 -0.2842 -0.1114 -0.1208
 4059W        W20193  14.717  11.041  11.792  0.3363 -0.3509  0.0844
 4060W        W20194   9.851   8.254  14.875 -0.1638 -0.2326  0.3584
 4061W        W20195   5.795   4.855   5.371  0.1828 -0.2260  0.0330
 4062W        W20196  18.535  13.840   3.271 -0.1509  0.0227 -0.2782
 4063W        W20197  18.014   8.680   1.398 -0.0642 -0.0163  0.1244
 4064W        W20198   8.114   6.004  11.882 -0.3348  0.0610  0.1887
 4065W        W20199   6.451   8.410   1.580  0.0755  0.0848  0.2559
 4066W        W20200  10.298  13.214  15.527  0.1563 -0.1251  0.1090
 4067W        W20201  18.259   3.373   4.505 -0.0662 -0.1194 -0.2298
 4068W        W20202  16.567   2.048  14.165  0.2021  0.1109  0.0733
 4069W        W20203   7.968   8.457   4.123 -0.0916 -0.1360 -0.0981
 4070W        W20204  15.650   2.397  13.938  0.0460 -0.0072  0.1028
 4071W        W20205  12.812  17.720  11.171  0.1767 -0.0875 -0.0187
 4072W        W20206  12.442  14.534   4.907  0.1770 -0.1539  0.2297
 4073W        W20207   2.045  16.081   5.566  0.0059 -0.1424  0.0008
 4074W        W20208   9.502  18.688   4.629 -0.2549 -0.3306  0.1267
 4075W        W20209  16.788  12.901   0.775 -0.3265  0.0602 -0.3411
 4076W        W20210   7.174   4.190  12.353  0.2091  0.0772 -0.0065
 4077W        W20211  15.221  18.476   0.311 -0.3335  0.1519  0.2001
 4078W        W20212   4.696   5.046   2.879 -0.1966  0.3360 -0.1501
 4079W        W20213   6.506  15.446  11.816 -0.1606 -0.2426  0.3060
 4080W        W20214  14.574  18.440  12.164  0.0721 -0.2574  0.0748
 4081W        W20215  17.076   0.826   1.426 -0.1812  0.0173 -0.2728
 4082W        W20216   4.902  10.876   4.358 -0.2434 -0.0360 -0.0604
 4083W        W20217  17.550  15.244   4.302 -0.1532  0.2779 -0.2659
 4084W        W20218   3.960   6.687  11.567  0.0795 -0.1116  0.0047
 4085W        W20219  11.451  13.996   3.985  0.0556 -0.1793 -0.2337
 4086W        W20220   2.867  10.654   0.181  0.0213  0.2183 -0.2623
 4087W        W20221   5.326   0.955  14.905 -0.2272 -0.2829 -0.1722
 4088W        W20222  10.176  12.671  13.605  0.1247  0.0050  0.1062
 4089W        W20223   5.460  11.813  10.879  0.0937 -0.0826 -0.1855
 4090W        W20224   1.571   5.833  14.236  0.1027  0.0888  0.0945
 4091W        W20225   4.817   0.055   1.551  0.0255 -0.2157 -0.1298
 4092W        W20226  15.294  17.081   2.295  0.1299  0.2993  0.2782
 4093W        W20227  11.691   3.903   5.829 -0.1669 -0.0054  0.1604
 4094W        W20228   4.241  10.487  14.387  0.4056 -0.0547  0.0987
 4095W        W20229   3.628  12.518  15.458 -0.1713 -0.0801 -0.3480
 4096W        W20230  12.087   8.699   0.529 -0.0812 -0.1897 -0.0624
 4097W        W20231  13.326  18.437   1.297  0.0793 -0.0682 -0.1202
 4098W        W20232   0.460   0.498  13.859  0.0134  0.4982  0.3317
 4099W        W20233   4.981  15.230  12.828 -0.3249 -0.5045  0.1098
 4100W        W20234  18.509  14.301   3.590  0.1378 -0.0490 -0.1975
 4101W        W20235   3.984  18.576  15.261 -0.0825 -0.1626  0.2525
 4102W        W20236   0.649  15.419  14.980  0.0978 -0.2801 -0.1497
 4103W        W20237  13.245   8.327   3.028  0.3303 -0.0654 -0.1269
 4104W        W20238  12.101  15.873  11.193  0.1067  0.3340  0.3960
 4105W        W20239   4.318   2.506  10.937 -0.0615  0.4594 -0.1225
 4106W        W20240  11.323  14.101   2.031  0.1198 -0.2549  0.1337
 4107W        W20241   2.677   4.649   1.437  0.1141  0.0872 -0.0275
 4108W        W20242   6.587   5.105   2.053 -0.0319 -0.3231  0.0349
 4109W        W20243  15.241   8.860  11.526  0.1015 -0.4255  0.0438
 4110W        W20244   5.568  11.021  12.820 -0.1169  0.0961 -0.1116
 4111W        W20245   1.230  17.471   0.701 -0.1756 -0.0744 -0.3499
 4112W        W20246  15.531  10.224  14.479  0.1572  0.0949 -0.2821
 4113W        W20247  17.911  11.741  14.325 -0.1383  0.3873 -0.0404
 4114W        W20248   9.365  17.530  12.269 -0.0149 -0.0363 -0.0325
 4115W        W20249  17.114   3.953  14.527  0.3615 -0.2501  0.0710
 4116W        W20250  18.654   3.269   5.351  0.0539  0.3671  0.0182
 4117W        W20251  16.067   2.686   0.704  0.1017  0.2474 -0.0603
 4118W        W20252   2.345  11.563   4.850  0.0843 -0.1092 -0.0617
 4119W        W20253   6.500   4.032  14.244  0.0077  0.0489 -0.3134
 4120W        W20254  17.844   2.862  11.300 -0.3952 -0.1874 -0.1031
 4121W        W20255  12.808  12.006  14.385  0.3631 -0.1420  0.1772
 4122W        W20256   7.053  13.578  11.188 -0.3699 -0.1667  0.1949
 4123W        W20257  11.855   5.348  11.804  0.1053 -0.1665  0.0025
 4124W        W20258   0.944   4.818  13.442  0.0984 -0.0013  0.1121
 4125W        W20259  14.808   7.038   5.036 -0.1999 -0.1188 -0.2751
 4126W        W20260   0.116  13.573   0.854  0.0829  0.0998 -0.1123
 4127W        W20261  14.187   0.748   3.181  0.0236 -0.2758  0.2391
 4128W        W20262  12.996  10.091   3.144  0.0544  0.1251  0.1850
 4129W        W20263  12.130   9.275   3.650 -0.1297 -0.0670  0.1635
 4130W        W20264  17.467   8.673   0.692  0.0103 -0.1058  0.1112
 4131W        W20265   0.695  15.242   1.509 -0.0749 -0.1474 -0.1032
 4132W        W20266   5.094   9.786   2.395 -0.0079  0.1131 -0.2355
 4133W        W20267   3.269  12.478   0.877  0.0383 -0.0564  0.2255
 4134W        W20268  16.354   2.121  13.739  0.0194 -0.0036  0.1451
 4135W        W20269  13.437   2.448   0.957  0.1769 -0.1401  0.0825
 4136W        W20270   4.243   6.483  13.851 -0.4929 -0.2552  0.0180
 4137W        W20271   9.720  16.362   3.614 -0.1638  0.1217  0.4402
 4138W        W20272   6.495   1.831   1.884  0.1507 -0.0761 -0.2659
 4139W        W20273   1.068  18.128   2.832 -0.3411  0.1414 -0.2563
 4140W        W20274   1.822   0.612  14.337 -0.1391  0.0821 -0.2889
 4141W        W20275   8.764  17.321   4.323 -0.2615 -0.3451  0.4040
 4142W        W20276   4.092   6.025   5.249  0.0709 -0.4575  0.1788
 4143W        W20277   7.296   3.185  13.781 -0.0263 -0.0491 -0.0808
 4144W        W20278   0.427  16.357   0.764 -0.0623  0.0784 -0.2091
 4145W        W20279   0.858   5.175  12.595 -0.0131 -0.3255  0.1488
 4146W        W20280   1.790   2.371   3.070  0.2488  0.2273  0.0859
 4147W        W20281   9.310  11.443  15.022  0.2013 -0.3258  0.0031
 4148W        W20282   8.273  17.924  11.291 -0.0808 -0.3204 -0.1285
 4149W        W20283   8.628   5.064   3.395  0.2692  0.0674 -0.0752
 4150W        W20284   4.468   2.127  11.903 -0.0051  0.0922 -0.2595
 4151W        W20285   7.161  12.659   4.161 -0.0824  0.0194 -0.0230
 4152W        W20286   6.105   5.514  14.157 -0.4071  0.1678 -0.1081
 4153W        W20287  10.233   3.328   4.800 -0.1105  0.2316 -0.3242
 4154W        W20288   8.868   6.154   1.209 -0.1964 -0.2094  0.0730
 4155W        W20289   9.797   7.339  13.827  0.1145 -0.0682 -0.2499
 4156W        W20290  13.543  13.285   0.659  0.2885 -0.4487  0.2454
 4157W        W20291  14.832   1.968   3.137 -0.0318  0.1547  0.0998
 4158W        W20292  10.287   0.187   1.181  0.0166  0.1889  0.0631
 4159W        W20293   4.002   5.630   1.727 -0.1526 -0.0326 -0.0069
 4160W        W20294   6.036   6.043   4.079 -0.1222 -0.0001 -0.0437
 4161W        W20295   6.959  18.466  13.912  0.0729 -0.2523  0.1471
 4162W        W20296  17.401  15.339   3.348 -0.0009 -0.1062  0.4655
 4163W        W20297  15.361   8.163   0.389 -0.1557  0.3197 -0.1855
 4164W        W20298   3.229   1.313  13.746 -0.1932 -0.0607  0.1298
 4165W        W20299   6.113   3.563   2.017  0.0421 -0.2485 -0.2721
 4166W        W20300   2.747   1.449   0.705 -0.3689 -0.0256 -0.0484
 4167W        W20301   3.892  12.885  10.503 -0.3805 -0.1090  0.3222
 4168W        W20302   6.547   1.486   4.550 -0.0439 -0.4174 -0.1557
 4169W        W20303   3.010  17.865   4.697 -0.4212  0.1169  0.1350
 4170W        W20304  16.261   1.881  11.474 -0.1405  0.0447 -0.1880
 4171W        W20305  13.106   5.583  10.861  0.0547  0.0394 -0.1542
 4172W        W20306  15.118  11.702   4.093  0.0483 -0.1687  0.0551
 4173W        W20307  14.852   6.947   0.212  0.1013  0.1511 -0.0458
 4174W        W20308  17.032  11.611  11.713  0.0660 -0.1330 -0.1897
 4175W        W20309  14.224  13.523  10.642 -0.0594 -0.0090 -0.0560
 4176W        W20310  16.761   9.902   3.096 -0.0151  0.0565 -0.2517
 4177W        W20311   3.522  11.355  14.724  0.0944 -0.3982 -0.1339
 4178W        W20312   2.359   4.613  13.037  0.2073 -0.1337 -0.4037
 4179W        W20313   1.344   2.036  11.026 -0.2493 -0.0115  0.0210
 4180W        W20314  17.738  12.529   3.364 -0.3603  0.1342  0.0247
 4181W        W20315   8.192  15.150   1.030 -0.1462  0.0613 -0.1331
 4182W        W20316  10.133   7.214   5.793  0.3241 -0.1440  0.0248
 4183W        W20317   4.635  12.036   4.189  0.0938  0.4380 -0.1231
 4184W        W20318  11.265   8.096  14.732  0.3084 -0.1558 -0.1056
 4185W        W20319   4.780   3.455  12.709 -0.0490 -0.0543 -0.2334
 4186W        W20320  12.203   4.308  11.784 -0.0178 -0.0784  0.0394
 4187W        W20321  18.531   3.260   4.062  0.2381 -0.3137 -0.2831
 4188W        W20322   3.811   2.337   4.526 -0.0722  0.1060 -0.0518
 4189W        W20323  12.806   4.800  11.267  0.2858  0.1433  0.1228
 4190W        W20324  16.881   5.416  10.481  0.0783 -0.1140 -0.0680
 4191W        W20325  15.691   8.578   0.390 -0.0696 -0.1697  0.0500
 4192W        W20326   0.079  13.118   5.118  0.0504 -0.3183 -0.1305
 4193W        W20327  14.914  10.670   0.933 -0.1693  0.1044 -0.2414
 4194W        W20328   8.908  14.706  13.297 -0.0876 -0.3275  0.0251
 4195W        W20329   3.484  18.557   0.710 -0.1047  0.2953 -0.0154
 4196W        W20330  12.578   2.548  12.858 -0.0457 -0.2114  0.1371
 4197W        W20331  10.645  12.484  13.676  0.1977 -0.0841  0.0626
 4198W        W20332  16.861   9.317   1.532  0.2348 -0.3094  0.2017
 4199W        W20333  12.811   4.582   3.479 -0.1413  0.1728 -0.2127
 4200W        W20334  13.126  18.343   5.307 -0.2991 -0.3350 -0.2074
 4201W        W20335  12.170  17.883   3.579  0.0232 -0.0347  0.3178
 4202W        W20336   7.388   3.384   4.477  0.0607  0.0998 -0.0495
 4203W        W20337  11.600   2.083   3.334 -0.0766 -0.2417  0.0520
 4204W        W20338  10.727  14.672  11.424  0.2547 -0.0255 -0.2780
 4205W        W20339   5.678  11.048   5.553  0.0416 -0.2253 -0.1589
 4206W        W20340  15.948  10.987  14.838 -0.0084 -0.0179  0.1378
 4207W        W20341   6.129   4.511   1.497 -0.0936  0.3914  0.1196
 4208W        W20342  11.565  18.241   0.545 -0.2695  0.2344  0.3066
 4209W        W20343   0.265  11.475  12.898  0.0121  0.1646  0.1144
 4210W        W20344  12.697   6.217  14.929  0.1622 -0.1183  0.1112
 4211W        W20345  10.542   8.407   4.178 -0.0629  0.1988  0.0460
 4212W        W20346  13.652   4.872   1.569  0.0076  0.2891  0.1284
 4213W        W20347  10.740   6.083   0.705 -0.3089 -0.1525  0.2046
 4214W        W20348   0.431   2.835  14.658  0.0757 -0.2678 -0.1642
 4215W        W20349   7.296   3.226   2.655 -0.0211 -0.1319 -0.0779
 4216W        W20350   1.004   8.520   2.167  0.0051  0.0498  0.0149
 4217W        W20351   5.921  18.457  13.371 -0.0769 -0.0712  0.1719
 4218W        W20352   0.824   8.628   1.113 -0.0034 -0.0495 -0.2372
 4219W        W20353  17.073  13.001   0.069  0.4633 -0.0527  0.2951
 4220W        W20354  13.395  12.308  14.738 -0.1934 -0.2343 -0.0712
 4221W        W20355  13.382  18.522   3.098  0.2480 -0.0908  0.0702
 4222W        W20356   7.179  13.367  12.854 -0.1813 -0.0892  0.0681
 4223W        W20357  18.646  10.609  11.606 -0.0977 -0.2307 -0.1150
 4224W        W20358  11.862  11.479  15.135 -0.0279 -0.1302  0.1034
 4225W        W20359   3.409   3.136   0.899  0.1295 -0.2881  0.2741
 4226W        W20360   4.457   6.569   0.926  0.0207  0.0352  0.0380
 4227W        W20361   8.258   3.321  13.174 -0.0396  0.0325  0.1468
 4228W        W20362   6.847   4.346  15.212 -0.1719 -0.4149  0.1842
 4229W        W20363  13.248  18.065  12.447 -0.2178  0.1476 -0.0891
 4230W        W20364  15.610  18.589   4.898 -0.2434 -0.0872 -0.0115
 4231W        W20365  14.913  18.057   3.349 -0.0743  0.1533 -0.0054
 4232W        W20366  12.619   7.019  10.933  0.0344 -0.2317 -0.1398
 4233W        W20367   8.615  18.204  14.449 -0.0782  0.3279  0.4739
 4234W        W20368   5.577   3.895  13.801 -0.0161 -0.0307 -0.2083
 4235W        W20369   8.608   5.447   2.995 -0.2693 -0.0199 -0.0534
 4236W        W20370   9.637   8.466  13.709  0.1741 -0.3449 -0.0231
 4237W        W20371   9.838   1.091   2.280  0.1560 -0.0068  0.0517
 4238W        W20372   4.515  15.385   0.573  0.0353  0.2945 -0.1334
 4239W        W20373   4.737  17.503   3.984  0.1582  0.0646  0.0464
 4240W        W20374   5.392   9.543   3.336 -0.1025  0.0636 -0.1209
 4241W        W20375  18.318   8.449  14.995 -0.2313  0.0021 -0.1819
 4242W        W20376  11.967  16.159  15.530 -0.1806  0.1513 -0.3493
 4243W        W20377  10.389   6.189   3.598 -0.0195  0.0944 -0.3281
 4244W        W20378   6.205   2.389   5.574  0.2009  0.3702  0.1604
 4245W        W20379   9.850  14.043   0.715 -0.3020 -0.0542 -0.0505
 4246W        W20380  10.180   5.442  11.158 -0.1053  0.0255 -0.3367
 4247W        W20381  13.166  14.184   2.046  0.1176 -0.0439  0.2267
 4248W        W20382  15.341  16.207   0.387  0.2777  0.0096 -0.1333
 4249W        W20383   3.447   5.270  12.654 -0.2954 -0.0542  0.0735
 4250W        W20384  10.947   5.233  10.673  0.0248  0.1127 -0.0715
 4251W        W20385   2.935   9.517   3.095  0.2435  0.0632  0.0281
 4252W        W20386   1.486  12.667  12.599 -0.2161  0.2235  0.0270
 4253W        W20387  17.250   7.227  14.087 -0.3358  0.0533  0.0118
 4254W        W20388   8.111   4.968   1.641  0.0675  0.2315  0.0171
 4255W        W20389   4.965  17.567  14.931  0.1984  0.0556 -0.2927
 4256W        W20390  11.724  14.452   2.020 -0.0236 -0.3593  0.1191
 4257W        W20391   8.778  16.097   4.978  0.0271  0.4122 -0.1366
 4258W        W20392  10.965   1.883  14.090 -0.0523 -0.0197 -0.1053
 4259W        W20393  10.156   9.433   5.156 -0.0380 -0.1393 -0.0347
 4260W        W20394  16.268   1.455  12.270 -0.0861  0.2623  0.3270
 4261W        W20395   8.209  14.036   3.016  0.0716 -0.0736 -0.1045
 4262W        W20396  12.994   5.813  15.141  0.0754  0.1399 -0.0583
 4263W        W20397   8.934   0.278   2.018 -0.1054 -0.0298 -0.1349
 4264W        W20398  12.267   6.770  15.482 -0.1650  0.2559 -0.1589
 4265W        W20399  16.708   5.327  11.188 -0.1236 -0.1866 -0.2140
 4266W        W20400  15.806  13.094   2.422  0.1255 -0.0412  0.0578
 4267W        W20401  15.871   7.522  13.604  0.0084  0.1956  0.0141
 4268W        W20402  11.728   0.059   5.017 -0.0742 -0.1385 -0.0083
 4269W        W20403   1.202  17.130  11.883  0.1126 -0.0558 -0.0262
 4270W        W20404  13.262   1.310   2.858  0.2204 -0.0413  0.1199
 4271W        W20405   7.781  16.455  10.693  0.0780  0.1345 -0.1584
 4272W        W20406   9.089  15.777  12.660  0.2497  0.0817  0.0738
 4273W        W20407  13.631  16.293  15.397  0.0871 -0.0479 -0.4804
 4274W        W20408  14.518  15.054  14.068 -0.0964  0.0618  0.0698
 4275W        W20409  16.487  10.851  12.705  0.1034 -0.0563  0.3689
 4276W        W20410  11.612  10.145  10.590  0.3891  0.4085  0.2971
 4277W        W20411  16.061   6.549   3.094  0.1564 -0.0068 -0.0458
 4278W        W20412  15.531  12.783   0.159  0.2493 -0.0785 -0.1766
 4279W        W20413   1.116   7.650   2.741  0.0521  0.0277 -0.2421
 4280W        W20414  13.900   4.078  12.475  0.2436 -0.2344 -0.4354
 4281W        W20415   2.091   5.326  10.960  0.1761 -0.1151 -0.3774
 4282W        W20416  12.360   4.772  14.481  0.0313  0.0262 -0.0517
 4283W        W20417   8.034  15.460  14.657  0.2100 -0.0426 -0.2750
 4284W        W20418  17.190  17.410   5.288  0.0518  0.0935  0.1179
 4285W        W20419  18.127  10.778  14.599 -0.1784 -0.2645  0.0478
 4286W        W20420   6.992   2.311   3.391 -0.0496 -0.1185 -0.0066
 4287W        W20421   7.944   3.885   0.844  0.0276  0.0626 -0.2960
 4288W        W20422  10.209   1.748  10.845 -0.1761  0.2131  0.0425
 4289W        W20423  14.164  15.246  11.756  0.0918 -0.1779 -0.2330
 4290W        W20424   9.251   2.301   4.510  0.1719  0.0247 -0.1991
 4291W        W20425  18.518  15.039  11.503  0.0003  0.0988 -0.0529
 4292W        W20426   1.208  13.261   1.339  0.0572  0.2653 -0.3376
 4293W        W20427   3.769  15.702   3.232  0.0612  0.0738  0.1088
 4294W        W20428   1.820  15.727  13.492 -0.1310  0.1413  0.1112
 4295W        W20429  17.202  17.838   2.139  0.1378  0.0914 -0.0657
 4296W        W20430  17.286  15.316   5.657 -0.0148 -0.0172 -0.3038
 4297W        W20431  15.313  12.640  14.163  0.0076 -0.0355 -0.0918
 4298W        W20432  10.279  10.544  14.016 -0.0795  0.0483 -0.0045
 4299W        W20433  18.433   8.262  12.242 -0.1256 -0.1196  0.1606
 4300W        W20434  13.904  17.414  15.218 -0.1638 -0.0362 -0.0938
 4301W        W20435   7.974   3.246   3.256 -0.0116 -0.0592  0.2519
 4302W        W20436   8.033  17.196   0.269 -0.2190 -0.0340  0.1683
 4303W        W20437  17.834  17.397   2.681  0.0038 -0.1649 -0.1292
 4304W        W20438  15.394   7.926  12.665 -0.1045  0.4482  0.4983
 4305W        W20439   9.463   5.370  12.752 -0.0427 -0.2497 -0.3117
 4306W        W20440  17.839  13.380   1.773  0.1880  0.0413 -0.2073
 4307W        W20441   5.605  17.351   4.532  0.2145  0.0019 -0.1357
 4308W        W20442   1.351  17.756   3.185 -0.2423 -0.0363 -0.3559
 4309W        W20443   8.865  17.317   0.054 -0.2203 -0.1021  0.0802
 4310W        W20444  18.432   0.368  11.432 -0.0598 -0.0420 -0.3428
 4311W        W20445  11.108   9.146  11.404  0.1663 -0.0352  0.2357
 4312W        W20446   6.440  15.119  13.664 -0.1973 -0.1687 -0.0035
 4313W        W20447   8.768  15.446  13.104  0.3681 -0.2746 -0.1189
 4314W        W20448  15.757  15.173  10.850  0.0049  0.1964  0.1252
 4315W        W20449   7.357   2.666   3.454  0.2623  0.0232  0.2877
 4316W        W20450   4.243  11.371   0.976  0.1130 -0.0143 -0.0998
 4317W        W20451  15.246  12.697  12.417  0.4401  0.0996 -0.0141
 4318W        W20452   8.427   5.879   1.120  0.2688 -0.0786 -0.2984
 4319W        W20453  17.423   6.644   3.231 -0.3550  0.1122  0.0977
 4320W        W20454  10.846  14.219   1.768  0.1219  0.3632 -0.0754
 4321W        W20455  13.717  18.664   3.528 -0.1892  0.1549  0.1125
 4322W        W20456  15.325   9.969   3.032  0.2800  0.1059 -0.0251
 4323W        W20457   8.740  18.291  11.932 -0.0821  0.1052 -0.2365
 4324W        W20458   0.248  11.567   1.371  0.3339 -0.0288 -0.0505
 4325W        W20459   8.253   8.694  14.149  0.1717  0.0987  0.0978
 4326W        W20460  16.554  17.348  11.387 -0.3150 -0.2594 -0.2250
 4327W        W20461   4.181  11.891  13.719 -0.2300  0.1219  0.1785
 4328W        W20462  16.672  18.593  12.315 -0.0214 -0.0119  0.0492
 4329W        W20463   2.197  15.257   2.693  0.0727 -0.0447  0.1168
 4330W        W20464   5.012   6.364   4.724 -0.0794 -0.3161  0.2614
 4331W        W20465   6.869  11.717  14.704 -0.3934 -0.1104 -0.0338
 4332W        W20466  17.059  12.851   2.389 -0.1371 -0.2478 -0.2042
 4333W        W20467   3.826   5.364  13.760  0.2626  0.0407  0.0150
 4334W        W20468   3.335  15.534   3.453  0.0120  0.0938 -0.2058
 4335W        W20469  18.732  12.638   4.294  0.0586 -0.1606  0.3337
 4336W        W20470  12.621  14.819  13.242 -0.1314 -0.2129  0.0538
 4337W        W20471   5.329  13.466   3.351  0.2890 -0.0441  0.1581
 4338W        W20472   9.034  18.632  10.604  0.2208  0.0726  0.4114
 4339W        W20473   0.210  13.671  12.467 -0.2655 -0.2811  0.0902
 4340W        W20474   9.833   5.788   0.264  0.1734  0.2220  0.0729
 4341W        W20475  18.060   2.793   0.002 -0.0783 -0.2481 -0.3887
 4342W        W20476   0.593   0.668  10.830  0.2262 -0.0074 -0.0933
 4343W        W20477   9.955  13.996   1.297  0.0344 -0.0239  0.0346
 4344W        W20478   5.755   4.457  12.319  0.4021 -0.1592  0.2055
 4345W        W20479  12.734  14.744  12.761 -0.1337  0.2151  0.0309
 4346W        W20480   4.722  17.856   4.299  0.1995 -0.1774  0.0321
 4347W        W20481   5.233   8.101  11.634  0.1624 -0.1733 -0.0071
 4348W        W20482   9.482  14.173   5.034  0.1317  0.0998  0.1075
 4349W        W20483  11.687   2.389  11.769 -0.0565 -0.1035 -0.1412
 4350W        W20484  12.323  10.842   0.590  0.2248  0.0225 -0.2699
 4351W        W20485   6.394   9.260  13.585  0.2335 -0.3445 -0.3575
 4352W        W20486  15.904   5.328   2.240 -0.3333  0.2502  0.1054
 4353W        W20487  12.163  13.680   3.068  0.2883 -0.0110  0.1470
 4354W        W20488   1.104   5.247  12.088 -0.2260 -0.3043 -0.1646
 4355W        W20489   3.660   9.368  12.349 -0.1855  0.1684 -0.0566
 4356W        W20490   3.587   0.460   2.910 -0.0471  0.1296  0.0467
 4357W        W20491  13.216  17.262  11.244 -0.0450  0.0530 -0.1994
 4358W        W20492   8.384  17.633   3.102 -0.0134 -0.0219  0.0565
 4359W        W20493   1.938   9.728   0.451  0.2510  0.1874  0.2560
 4360W        W20494  13.579  12.148   1.169  0.1802  0.0907  0.0732
 4361W        W20495   4.665   5.467  11.743  0.1173 -0.1464 -0.0830
 4362W        W20496  12.596   2.118  11.498 -0.5160  0.2304  0.1880
 4363W        W20497   4.268  10.028  10.564  0.2470  0.1752 -0.1344
 4364W        W20498   5.348  18.447   4.177  0.0431  0.2794  0.2305
 4365W        W20499   8.366   6.553   1.987  0.0448 -0.1291 -0.0708
 4366W        W20500  12.942   9.965  14.094  0.1176 -0.1688 -0.2926
 4367W        W20501  10.323   2.234   5.392  0.0530  0.1713  0.3122
 4368W        W20502   3.207  13.462   4.349  0.2352  0.0029  0.4855
 4369W        W20503  14.894   3.185   4.586 -0.1682 -0.5921  0.1196
 4370W        W20504   8.546  16.554   9.520  0.1484  0.2087  0.0654
 4371W        W20505  10.796   2.647   3.256  0.2505  0.1815 -0.2441
 4372W        W20506   6.671  12.363  13.560 -0.2291 -0.1406  0.3525
 4373W        W20507  16.124   8.713  14.343 -0.0383  0.0638  0.0911
 4374W        W20508   3.356   4.389  14.105 -0.2219 -0.0650  0.1205
 4375W        W20509   7.634  17.687  14.494  0.3440  0.0292 -0.0439
 4376W        W20510  15.407   5.020  14.069  0.0826  0.2693  0.2036
 4377W        W20511  18.322  18.728  15.529  0.1025 -0.1630  0.0461
 4378W        W20512   4.256   4.629  14.503 -0.0343  0.0102  0.1671
 4379W        W20513  15.510   5.778  11.375 -0.2063  0.4497 -0.1123
 4380W        W20514   2.646   0.392  12.459  0.2359  0.2780 -0.0721
 4381W        W20515   0.771  11.049  10.923 -0.3464 -0.0301  0.2143
 4382W        W20516   0.431   8.947  11.277 -0.3134 -0.1403  0.0002
 4383W        W20517   8.141  14.737  11.449 -0.0929 -0.1259 -0.0529
 4384W        W20518  11.247  18.268  13.637 -0.0764  0.2146 -0.1147
 4385W        W20519   2.853   2.964   3.518  0.3451  0.2642  0.0762
 4386W        W20520   1.357  17.896  13.095 -0.0862 -0.3082  0.1360
 4387W        W20521   3.995   2.775   0.035  0.0472 -0.2784 -0.0751
 4388W        W20522  12.748  16.737  12.453  0.1308  0.1302  0.0519
 4389W        W20523  15.918   1.793  11.886 -0.3330  0.1681 -0.0786
 4390W        W20524   2.213  10.852   2.143  0.1084 -0.0732 -0.1001
 4391W        W20525   6.784   5.568  13.472 -0.3396 -0.0958  0.0367
 4392W        W20526  15.012   8.102   1.978  0.0576 -0.1276  0.0842
 4393W        W20527   9.987  11.208  10.466 -0.0110  0.0300 -0.0052
 4394W        W20528   9.270  17.534   0.992  0.2663 -0.0159 -0.2768
 4395W        W20529   2.055  13.442   2.905  0.0150  0.3399 -0.1212
 4396W        W20530   1.860  13.161  11.431 -0.0164 -0.0417 -0.1320
 4397W        W20531  16.407   0.677   0.032  0.1459  0.2260 -0.3494
 4398W        W20532   7.570   1.162   1.519  0.0570  0.0329  0.0596
 4399W        W20533  13.087   0.266   3.298 -0.1087 -0.2251  0.1204
 4400W        W20534   2.515   4.040  10.468 -0.0666 -0.2267  0.0916
 4401W        W20535  14.752   5.211   4.792 -0.0160 -0.1344  0.0370
 4402W        W20536   0.496  12.993  11.793  0.1753 -0.0483  0.2523
 4403W        W20537  15.866  17.000   4.290 -0.0638 -0.1410  0.1414
 4404W        W20538  14.501  18.238  13.468 -0.1681 -0.3236  0.0366
 4405W        W20539   4.031  10.764  11.506  0.0093  0.2315 -0.1393
 4406W        W20540  13.175  12.304   5.487  0.1969  0.1587  0.3251
 4407W        W20541  10.897  12.483  12.719  0.1734 -0.1907 -0.1775
 4408W        W20542   1.437  15.502  11.903  0.3309 -0.1193  0.3968
 4409W        W20543   6.139   7.447   2.694 -0.0353  0.1884  0.0270
 4410W        W20544   3.992  10.722   3.921 -0.1606  0.0109  0.4227
 4411W        W20545  10.512  12.583   4.102  0.1736  0.0321 -0.0033
 4412W        W20546  17.565  16.100   1.794 -0.0600  0.1852  0.0311
 4413W        W20547   6.287   8.824  15.109 -0.1581 -0.1182  0.3629
 4414W        W20548   3.868  18.150   3.427  0.2647 -0.3326 -0.1110
 4415W        W20549  12.381  16.950   1.826 -0.1617 -0.0036 -0.0276
 4416W        W20550  13.104   6.327  14.061 -0.0784 -0.4082 -0.4607
 4417W        W20551  14.888   0.731   2.062  0.3352  0.2482 -0.0462
 4418W        W20552   6.677  15.541  13.052 -0.0596 -0.1794  0.1489
 4419W        W20553  10.355   2.749   0.559 -0.1166 -0.0307  0.0901
 4420W        W20554   9.252  16.585  13.892  0.1906 -0.0188 -0.0102
 4421W        W20555   6.718  13.222  11.309 -0.0086  0.2478  0.0282
 4422W        W20556   8.706   3.906  13.745 -0.0798  0.2216  0.1346
 4423W        W20557  12.272   3.664  12.469 -0.0883 -0.0991 -0.1775
 4424W        W20558   9.584  16.495   1.974  0.0038 -0.0589  0.0377
 4425W        W20559  16.364   4.795  12.144 -0.3111  0.1161  0.0461
 4426W        W20560  16.267   5.221   0.357 -0.0055  0.0377  0.2709
 4427W        W20561  13.262   3.186   5.323  0.1702  0.0406  0.2345
 4428W        W20562   0.695   4.733  15.235  0.1939 -0.1226  0.1033
 4429W        W20563  12.425  13.881  13.186 -0.2907 -0.2678  0.1741
 4430W        W20564  14.498  10.826  14.950 -0.1283  0.1140 -0.0012
 4431W        W20565   9.458  15.908  14.253  0.3891  0.0246 -0.2885
 4432W        W20566  11.881   7.909   1.172 -0.0035  0.1076 -0.2046
 4433W        W20567  13.621  14.294   1.637  0.0662  0.2036 -0.3375
 4434W        W20568   7.883  15.899  11.152  0.1195 -0.2234  0.4212
 4435W        W20569   2.804  12.527   1.604 -0.0859 -0.0229  0.1084
 4436W        W20570   5.755  11.894   0.019  0.0273 -0.0291  0.0035
 4437W        W20571  13.872   4.040   2.006  0.0224  0.0702  0.2296
 4438W        W20572  11.458   7.438  12.821  0.2223 -0.3052  0.0598
 4439W        W20573  16.874   2.567   3.977 -0.0472 -0.1535 -0.3779
 4440W        W20574  15.348   6.917   2.763 -0.3582 -0.1639  0.1832
 4441W        W20575   3.664  13.530  11.165  0.0768 -0.1859 -0.2302
 4442W        W20576   6.345   9.716  12.459 -0.1351  0.1072  0.0242
 4443W        W20577   7.557  11.437   3.278  0.2361 -0.2637  0.1309
 4444W        W20578  12.685  14.728   4.490  0.3342  0.0477 -0.1686
 4445W        W20579   3.529   0.906   4.305 -0.0872 -0.0781  0.2057
 4446W        W20580   5.185   0.746   3.812 -0.2092  0.0134  0.0320
 4447W        W20581  11.156   0.856   2.624 -0.0426 -0.1783 -0.1075
 4448W        W20582  12.425  16.272  14.878  0.1729 -0.1545 -0.1630
 4449W        W20583   7.581   2.861  12.614 -0.2682  0.0399 -0.0023
 4450W        W20584  17.832   0.140   0.064  0.2803  0.0981  0.0103
 4451W        W20585  10.124  12.869   0.748  0.1398 -0.0412 -0.1073
 4452W        W20586   5.961  11.120   0.962 -0.0435 -0.0906  0.1678
 4453W        W20587  14.690  13.776   0.877  0.2033 -0.2882  0.2632
 4454W        W20588  16.270   4.746   0.107 -0.2569  0.2421  0.1110
 4455W        W20589   2.629   4.074   0.428 -0.2850  0.2391  0.0875
 4456W        W20590   2.045  15.213   1.132  0.2952  0.1160 -0.0886
 4457W        W20591  18.603   8.940  13.362  0.2093 -0.1690  0.1140
 4458W        W20592  18.047   3.996   1.411 -0.1273  0.2326 -0.2121
 4459W        W20593  17.801  17.387  10.922  0.0319  0.0631 -0.2117
 4460W        W20594   5.290  10.988   0.483  0.0885  0.0850 -0.1519
 4461W        W20595  10.803   4.077   4.882  0.2038  0.0193 -0.0573
 4462W        W20596   4.276  13.038   3.499  0.1349  0.1247 -0.1610
 4463W        W20597  17.999  10.979  11.120 -0.0024  0.1205  0.0472
 4464W        W20598   3.855  17.597  15.067 -0.2619  0.1016  0.2127
 4465W        W20599   8.170  13.993  15.165 -0.2871  0.0550 -0.0121
 4466W        W20600  13.628   5.005   4.107  0.3503  0.1195  0.0020
 4467W        W20601   2.964   8.631   4.630 -0.2903  0.0665 -0.1954
 4468W        W20602  11.264   1.788   3.621 -0.0774 -0.2521 -0.1115
 4469W        W20603  15.939   6.316   3.739 -0.1772  0.0117  0.0825
 4470W        W20604   0.627   3.436   1.783 -0.3118  0.1135 -0.1247
 4471W        W20605   5.218  12.034  13.131  0.1598 -0.1678 -0.1597
 4472W        W20606  10.470  18.355  15.474 -0.0199 -0.0310 -0.0116
 4473W        W20607   4.778   4.873   2.363 -0.1918 -0.1499 -0.2200
 4474W        W20608  16.634  12.141   4.398 -0.2816 -0.0233  0.3171
 4475W        W20609   9.744  11.200  12.593  0.0702  0.0231 -0.0819
 4476W        W20610   1.749   0.071   0.035 -0.0474 -0.2300 -0.3351
 4477W        W20611   3.112  15.660  14.070 -0.1176 -0.0236 -0.1351
 4478W        W20612  13.955  15.844  15.409  0.2431  0.2170  0.1715
 4479W        W20613   9.543  16.155   2.753  0.1400 -0.1226  0.0644
 4480W        W20614   8.243  10.617  12.097 -0.0443 -0.2935 -0.3971
 4481W        W20615  17.721   6.966  13.778  0.0738  0.2765 -0.3303
 4482W        W20616  14.852  10.118  14.767 -0.4071  0.0658  0.2121
 4483W        W20617  13.983   0.393   2.090  0.0012 -0.0293  0.1794
 4484W        W20618   0.183  17.884   0.064  0.2487  0.0587  0.0516
 4485W        W20619  18.627  17.654   0.432 -0.0518 -0.1175 -0.3742
 4486W        W20620  13.405   1.575  15.225  0.0409  0.1370  0.1735
 4487W        W20621  13.245  11.028   9.544  0.4227 -0.0015  0.0938
 4488W        W20622   7.033  15.706  14.591 -0.0943 -0.1017 -0.0403
 4489W        W20623   4.242  14.613  15.140  0.0396  0.1339 -0.0302
 4490W        W20624   2.494  13.363  14.630  0.1444 -0.0073 -0.1024
 4491W        W20625  18.218   8.774  11.360  0.1815  0.0943  0.0030
 4492W        W20626  17.927   9.386  11.199  0.2041  0.0986  0.1231
 4493W        W20627  13.161  17.231  14.491 -0.0638  0.0115 -0.1189
 4494W        W20628  18.545   4.757  12.377 -0.1019 -0.1698 -0.0419
 4495W        W20629   7.660  11.487  14.055  0.4149  0.2779  0.0672
 4496W        W20630   7.509   1.844   1.734  0.2635  0.1190  0.0159
 4497W        W20631  16.190  16.246   2.032 -0.1000 -0.1538  0.3280
 4498W        W20632  12.171  13.100  15.159  0.1212 -0.2843 -0.2224
 4499W        W20633  16.819  13.419   4.642  0.0309  0.0385  0.2582
 4500W        W20634   2.216   6.756   1.640 -0.1191 -0.1927  0.2776
 4501W        W20635   7.140   0.238   3.241 -0.0346 -0.2031 -0.3171
 4502W        W20636  11.777  12.421  11.812  0.0615 -0.4129 -0.2614
 4503W        W20637  13.890   0.007   3.075 -0.1496 -0.0031 -0.1663
 4504W        W20638   5.229   9.046  12.911  0.0627 -0.2702 -0.1528
 4505W        W20639   9.279   2.252  13.176 -0.4231  0.0447 -0.0721
 4506W        W20640  10.742  15.759  13.029 -0.0117 -0.2058 -0.3267
 4507W        W20641   2.707   3.816  11.034  0.0737 -0.3696 -0.1620
 4508W        W20642   5.452   7.763   4.351  0.2203 -0.0274 -0.2121
 4509W        W20643  15.875  12.782  13.445 -0.3650  0.3677 -0.0843
 4510W        W20644   6.539  10.588  12.180 -0.0185  0.0904  0.4157
 4511W        W20645   6.394   3.740  12.878  0.0263 -0.1813 -0.2097
 4512W        W20646  17.485   3.827   3.680 -0.0992 -0.1929 -0.0823
 4513W        W20647   2.846   3.370   5.289  0.1964 -0.1966  0.1993
 4514W        W20648   9.325  16.829   2.290 -0.0201  0.1189  0.3462
 4515W        W20649  16.420  12.680  14.677 -0.0103 -0.0986  0.1249
 4516W        W20650  13.766   7.480   0.011 -0.1526 -0.0060 -0.0137
 4517W        W20651   3.806   6.475   2.126  0.2012 -0.1780 -0.1922
 4518W        W20652   7.482  14.688  12.156  0.2200  0.0246 -0.2991
 4519W        W20653   5.795  17.532  14.694 -0.2553 -0.3154  0.1086
 4520W        W20654   4.288  15.273  13.649  0.0792 -0.2093  0.1361
 4521W        W20655  16.048   2.954  11.436 -0.0382  0.2618  0.0646
 4522W        W20656   7.957   5.902   4.897  0.4293  0.1778 -0.0343
 4523W        W20657   3.576   2.329   3.585  0.1428  0.1751  0.0192
 4524W        W20658   3.155   0.934  14.441 -0.1528 -0.5423 -0.1621
 4525W        W20659  16.767   3.105   4.999  0.3059 -0.1937  0.0970
 4526W        W20660   1.679  17.283   4.708 -0.0821 -0.0497  0.1130
 4527W        W20661   4.283  16.528  11.429  0.0843 -0.0036  0.1476
 4528W        W20662   7.268   7.649  12.476  0.2032  0.2338  0.1492
 4529W        W20663   0.745   5.301   2.526  0.2180  0.3186  0.0066
 4530W        W20664   4.807  14.035   3.715  0.0080 -0.1834  0.1275
 4531W        W20665  14.751  14.643  14.329  0.0105  0.0965  0.1223
 4532W        W20666   3.305  17.601   1.250 -0.2062  0.0124  0.1563
 4533W        W20667  15.653  12.934   5.778  0.0772  0.0779 -0.0758
 4534W        W20668  18.598   5.074  12.805  0.0571 -0.0073  0.2009
 4535W        W20669  11.950  14.076  14.976  0.2145 -0.0054 -0.0942
 4536W        W20670   2.948  16.337  14.155  0.2443  0.0112 -0.2163
 4537W        W20671  18.219   5.455  11.998  0.1346  0.0679 -0.1275
 4538W        W20672   0.430   4.693   2.408 -0.0353 -0.2919  0.3633
 4539W        W20673  14.183   6.322   0.810  0.4360 -0.0252 -0.0528
 4540W        W20674  15.495   1.480  15.188 -0.2499  0.0594  0.1395
 4541W        W20675   2.390  14.124   2.187  0.2393 -0.1842 -0.0982
 4542W        W20676  13.919   2.238   2.440  0.1276  0.0827 -0.3195
 4543W        W20677  14.523   3.498  11.112  0.0975 -0.0735 -0.2680
 4544W        W20678  14.532  12.217   1.599  0.1658 -0.5655  0.2213
 4545W        W20679   3.125  15.950   1.162 -0.1082 -0.1314  0.1133
 4546W        W20680   5.669  17.161   2.375  0.1396  0.2527  0.1992
 4547W        W20681   1.360  13.971  14.804 -0.0975 -0.0131  0.1748
 4548W        W20682   5.662   4.832   2.489  0.1041  0.1215  0.0069
 4549W        W20683  16.549  14.424  11.815  0.0259  0.0199  0.0657
 4550W        W20684  12.877   0.083  12.641 -0.1428  0.0098 -0.0030
 4551W        W20685  16.997   5.188   1.555  0.0449  0.2681  0.0338
 4552W        W20686  13.788   2.233  14.746 -0.0911  0.0419 -0.3647
 4553W        W20687  14.519  10.009   3.406  0.3798  0.2797  0.0874
 4554W        W20688   3.513   6.826   2.401  0.0141  0.0015 -0.2803
 4555W        W20689  14.291   0.940  12.494  0.3158 -0.0190  0.1171
 4556W        W20690  16.136   9.241  12.864  0.3023 -0.4604 -0.2095
 4557W        W20691   6.174   6.501   2.137 -0.1914 -0.4093 -0.2079
 4558W        W20692   5.494  16.878  12.260  0.2225 -0.1399  0.0565
 4559W        W20693   7.220   3.636  14.086  0.0095 -0.3961 -0.2884
 4560W        W20694  10.211  11.439   3.484 -0.1033  0.1997 -0.1399
 4561W        W20695   2.391  13.757   2.569  0.0293 -0.1187  0.0300
 4562W        W20696  15.671  10.187  10.922 -0.3410 -0.3469  0.3580
 4563W        W20697   6.048  12.295  12.984 -0.2276  0.0553 -0.3927
 4564W        W20698   3.140   2.497   3.627 -0.2253  0.3336  0.0324
 4565W        W20699   9.577   8.173  13.281 -0.0656 -0.1639  0.0575
 4566W        W20700   6.114  14.379  14.696  0.0606  0.0338 -0.1984
 4567W        W20701   2.376   6.322  12.336 -0.0934 -0.2468  0.0426
 4568W        W20702  13.658  16.855  15.252  0.0876 -0.1799  0.0795
 4569W        W20703  10.024   7.440   3.956 -0.0010 -0.0700  0.3191
 4570W        W20704   7.938   1.249  14.826  0.0650 -0.0120 -0.0012
 4571W        W20705   8.753   2.269   4.650  0.2059  0.1293 -0.4031
 4572W        W20706   9.958  18.426  15.211 -0.2038  0.1657 -0.1600
 4573W        W20707  13.948   0.935  11.430  0.1193  0.1134  0.0351
 4574W        W20708  14.322   2.805   1.659  0.0990  0.0304  0.3506
 4575W        W20709  12.172   4.515   2.680  0.0004  0.0443 -0.0548
 4576W        W20710  16.217   3.993   1.816 -0.0651  0.0720 -0.2138
 4577W        W20711  18.499  13.364   0.137 -0.3140 -0.0466 -0.4671
 4578W        W20712   5.978  15.465  13.750  0.1716 -0.0754 -0.0501
 4579W        W20713  16.580   9.971  12.729  0.0605  0.3473  0.0144
 4580W        W20714   5.373   9.814   1.035  0.4497  0.1661  0.2700
 4581W        W20715   4.329  13.025  12.276  0.0657 -0.0425  0.1894
 4582W        W20716   6.362  10.804  11.723 -0.2082 -0.0553  0.1439
 4583W        W20717  15.992   8.458   3.974  0.1372 -0.0444 -0.1652
 4584W        W20718   0.184   5.846   5.646  0.0152 -0.0937 -0.2299
 4585W        W20719  13.652   4.095   1.449 -0.1557 -0.1658 -0.3624
 4586W        W20720   2.647  14.882  13.559  0.0549 -0.0966  0.0014
 4587W        W20721  16.142  13.185   0.233  0.2341 -0.1376  0.2932
 4588W        W20722   4.302  15.866  12.747  0.0154  0.0172  0.0839
 4589W        W20723  17.868  14.763  13.492 -0.0141  0.5009 -0.0372
 4590W        W20724  17.759   2.707   0.839  0.0512  0.0565 -0.0304
 4591W        W20725   8.976  11.690   3.131  0.0694 -0.2019 -0.0499
 4592W        W20726  18.413   0.864  14.239  0.1770  0.3376  0.3203
 4593W        W20727   0.228   2.970   5.059 -0.0175 -0.0633 -0.1890
 4594W        W20728  13.741   4.678   3.696  0.3377  0.0434 -0.1704
 4595W        W20729  16.672   3.863  13.033 -0.0740 -0.0453  0.3212
 4596W        W20730  18.293  18.119   0.630 -0.1497 -0.0634  0.0820
 4597W        W20731   6.416  18.534  13.439 -0.0995 -0.0153  0.1429
 4598W        W20732   2.145   3.329  12.021 -0.5497 -0.4767  0.0551
 4599W        W20733  13.572  15.406   2.385 -0.3191  0.3179  0.1710
 4600W        W20734   8.063   6.390  15.435 -0.0250  0.3058 -0.0581
 4601W        W20735  15.806   1.247  10.748  0.0729 -0.1543  0.1528
 4602W        W20736  17.305  10.784   1.457 -0.0259  0.0264  0.1164
 4603W        W20737   5.085   5.253   1.271  0.1184 -0.1227 -0.1077
 4604W        W20738   7.028  18.369   3.613  0.2249 -0.1683  0.0582
 4605W        W20739  11.521   0.022   2.102 -0.4491 -0.1627 -0.2110
 4606W        W20740   4.864   8.290   2.120 -0.2124  0.0762  0.0938
 4607W        W20741   6.652   2.233   4.270  0.1460 -0.1006 -0.0674
 4608W        W20742   4.580  11.403  10.957  0.4327 -0.2493 -0.1341
 4609W        W20743   8.464  14.990  11.813 -0.0968  0.1066  0.1781
 4610W        W20744   0.633   3.271  14.886  0.1733 -0.0583  0.2594
 4611W        W20745  17.694   8.804  12.545 -0.2580 -0.2950 -0.0118
 4612W        W20746   0.080   2.922  10.927 -0.0249 -0.1513  0.1516
 4613W        W20747  16.920   5.537   1.038 -0.0216  0.0815 -0.2827
 4614W        W20748   7.516  11.056   0.802  0.1450 -0.1162 -0.0257
 4615W        W20749   6.020  17.321  12.187  0.2758  0.1429 -0.2028
 4616W        W20750   1.385  12.177   5.328 -0.1651 -0.0960 -0.2626
 4617W        W20751   8.951   4.357   3.515 -0.3709 -0.2390  0.0084
 4618W        W20752  10.201   9.504   4.138  0.1722  0.0241  0.1551
 4619W        W20753  18.513  16.032   4.150 -0.3437  0.1030 -0.5047
 4620W        W20754   5.409   9.738  15.429 -0.2486 -0.2664  0.1057
 4621W        W20755   2.810   7.553  11.950  0.2965  0.3980 -0.0412
 4622W        W20756   2.863  11.618  11.814  0.2553  0.5153 -0.0176
 4623W        W20757   4.802  13.913  12.252 -0.1418  0.1201  0.0988
 4624W        W20758   0.312  12.795  14.896 -0.2284 -0.0991  0.0807
 4625W        W20759   5.329  12.771   1.466  0.2443 -0.4510 -0.0841
 4626W        W20760   9.320  15.013   4.666 -0.0845 -0.1320  0.1557
 4627W        W20761  11.070  18.429   0.207  0.0285  0.2101  0.3369
 4628W        W20762   6.395  10.930  13.982 -0.0845 -0.1064 -0.1606
 4629W        W20763  16.883   0.231  11.404  0.2148  0.3288 -0.0323
 4630W        W20764  11.586  12.572  12.792  0.3205 -0.0462  0.3089
 4631W        W20765  10.119   9.284  13.142 -0.0117 -0.3460  0.0080
 4632W        W20766   6.436   4.179   2.422  0.2301  0.0673  0.2670
 4633W        W20767   8.840  18.720  11.085  0.3606 -0.1059 -0.0066
 4634W        W20768  14.412   9.017  11.022 -0.1528 -0.2048  0.0533
 4635W        W20769  13.511   8.735   5.080 -0.1593 -0.2215 -0.2363
 4636W        W20770   6.614   2.095  15.150 -0.1094 -0.3531 -0.2865
 4637W        W20771  13.495   7.705  15.089 -0.2629  0.3954  0.2813
 4638W        W20772   4.551  17.299   5.453  0.0728  0.1389  0.3700
 4639W        W20773   5.189   7.023  11.741 -0.0513  0.1857  0.0895
 4640W        W20774   6.594   4.750   5.112  0.3575  0.2327  0.1100
 4641W        W20775   5.801  15.354   4.764 -0.1057 -0.1193  0.2822
 4642W        W20776  12.435   2.628   5.248  0.0715 -0.1548  0.3922
 4643W        W20777  12.925   8.065   2.399  0.0265  0.2245 -0.0321
 4644W        W20778   9.507   8.007  13.903  0.1029 -0.1952  0.2418
 4645W        W20779  14.968   2.445   3.313  0.0228 -0.2685  0.0239
 4646W        W20780   8.579  12.353  14.591 -0.0087 -0.2890  0.1056
 4647W        W20781  16.739   7.271   4.002  0.0441  0.2462  0.1194
 4648W        W20782   7.304   2.445   0.738 -0.1733  0.3582 -0.0879
 4649W        W20783  11.612   3.579   1.010 -0.1924 -0.2018 -0.1365
 4650W        W20784  12.803   4.294   1.064 -0.2958  0.1498  0.0242
 4651W        W20785   0.904   0.079   3.597  0.0040 -0.0714 -0.2106
 4652W        W20786  17.486  16.686  13.929  0.2731 -0.0309  0.0087
 4653W        W20787   0.455   1.212   0.936 -0.0577 -0.0304 -0.1323
 4654W        W20788  11.775   1.011  12.477 -0.2354  0.1565  0.0883
 4655W        W20789   9.179  11.623   1.854 -0.1196  0.3041  0.0101
 4656W        W20790  15.121   5.133  12.867  0.1094  0.0543 -0.0977
 4657W        W20791   4.617   8.887  13.997 -0.0513 -0.0502  0.2296
 4658W        W20792   6.526  12.026   1.879  0.0050  0.1044  0.0470
 4659W        W20793  16.645  15.796   6.108  0.1002  0.2992 -0.0311
 4660W        W20794  14.897  13.861  12.463  0.0839 -0.0630  0.0385
 4661W        W20795  11.981   8.190  15.092  0.1258 -0.0777  0.3432
 4662W        W20796   9.107   4.300  11.946 -0.1380 -0.0484  0.2467
 4663W        W20797   1.669  18.210  12.741 -0.0466 -0.0333  0.1204
 4664W        W20798  13.237  10.451  14.846  0.3403 -0.0438 -0.1657
 4665W        W20799   2.879   7.322  15.439  0.2292  0.0642  0.1314
 4666W        W20800   9.808  15.225  14.721 -0.0707 -0.1425  0.1444
 4667W        W20801  13.007  16.671   3.349  0.1697 -0.2947 -0.1371
 4668W        W20802  11.695  10.456   3.468 -0.2964  0.2301 -0.3663
 4669W        W20803   5.650  18.655   5.053  0.1916  0.0954 -0.3177
 4670W        W20804   9.139  10.546  11.041  0.1459  0.3300 -0.2634
 4671W        W20805   1.093  12.566   1.958  0.1456 -0.0639  0.2729
 4672W        W20806   5.708   5.035   4.875  0.0387  0.1381 -0.3278
 4673W        W20807  10.121   8.599  12.345  0.1804 -0.0396  0.1291
 4674W        W20808  11.861  16.357  12.319 -0.0372  0.0907 -0.1489
 4675W        W20809   0.903   4.125   5.610  0.3057  0.1973  0.3754
 4676W        W20810  10.706   2.561   2.120 -0.1741  0.3077  0.0484
 4677W        W20811  10.952   6.987   1.038 -0.0768 -0.2413  0.0385
 4678W        W20812   2.196  16.935   0.808 -0.1230  0.0624 -0.0240
 4679W        W20813   4.908   3.592  13.760 -0.1405  0.0062  0.5470
 4680W        W20814  13.581   7.365  10.993 -0.2480  0.0146  0.0616
 4681W        W20815  11.092   6.137  11.036  0.0107  0.1745 -0.0489
 4682W        W20816   7.351  11.799  12.475 -0.0429  0.1507  0.3824
 4683W        W20817   5.059   4.650  11.544  0.2546  0.1299 -0.0514
 4684W        W20818   2.968  11.772  15.392  0.0032  0.1141  0.2963
 4685W        W20819  10.824   8.975   3.423  0.0349 -0.1608  0.1672
 4686W        W20820   4.883  13.028   0.618  0.0828 -0.2504  0.1475
 4687W        W20821   0.884  18.313  11.739 -0.0242 -0.0092  0.0092
 4688W        W20822  12.590  12.014   4.633  0.0919  0.1215 -0.0709
 4689W        W20823  16.193   2.240  12.004 -0.5120 -0.3083  0.0670
 4690W        W20824  11.583   1.885   5.131 -0.3259  0.1020  0.0003
 4691W        W20825  15.133  15.405   1.690 -0.1466 -0.3198 -0.0043
 4692W        W20826   7.124  10.730   4.317  0.0498 -0.0914 -0.2297
 4693W        W20827  13.284  12.953   3.753 -0.0248 -0.0579 -0.0980
 4694W        W20828   8.790   9.846   5.428 -0.1738 -0.1268  0.0374
 4695W        W20829  17.944  12.583  13.097 -0.1206  0.1747  0.2046
 4696W        W20830   7.965  17.707   1.217 -0.0884  0.4222  0.1783
 4697W        W20831   9.648   8.524   1.107  0.0734 -0.0453  0.1497
 4698W        W20832  10.583   0.158  13.550 -0.0555 -0.1969 -0.1062
 4699W        W20833   2.845   3.823   3.786 -0.0405 -0.1440 -0.0662
 4700W        W20834   8.907  13.899  12.772 -0.1222  0.1450 -0.0377
 4701W        W20835  17.917  18.463   4.823  0.0458  0.0118 -0.1290
 4702W        W20836   4.295   8.490   1.902 -0.1983 -0.1302 -0.0099
 4703W        W20837  15.699  16.720   2.306  0.0489  0.0234  0.1120
 4704W        W20838  14.291  18.165  12.921 -0.0058  0.0232  0.2379
 4705W        W20839   8.276   1.154  10.586  0.1335  0.1806  0.0636
 4706W        W20840  10.623   1.554   4.531  0.0106  0.1456  0.0326
 4707W        W20841   0.636   8.010   3.561  0.2159  0.0395  0.2607
 4708W        W20842   5.999   6.033  11.423 -0.0376 -0.0273  0.2178
 4709W        W20843   0.829   0.582  14.176 -0.3687  0.1705 -0.0083
 4710W        W20844  13.420   4.910  13.065 -0.2807  0.0506  0.1858
 4711W        W20845  12.349  18.120   3.979 -0.0737  0.2414 -0.1161
 4712W        W20846  12.642  17.947   3.134 -0.1929  0.0255 -0.0343
 4713W        W20847  11.132  16.538   2.696 -0.3952 -0.0727  0.0528
 4714W        W20848  16.333   7.589  12.850  0.0009 -0.2349  0.3520
 4715W        W20849   3.231   6.764  14.431  0.3435  0.0002  0.1410
 4716W        W20850   3.222   7.818   0.786 -0.1383  0.2296 -0.3255
 4717W        W20851   7.240  12.858  15.226 -0.1253 -0.0979  0.2141
 4718W        W20852  13.305   6.647   2.803 -0.2340 -0.1001  0.1888
 4719W        W20853   1.281  18.161   3.478  0.0424 -0.1465 -0.0075
 4720W        W20854  13.433  16.318   3.413 -0.0052 -0.1438  0.1163
 4721W        W20855   6.977   2.518   0.215 -0.1524  0.3355  0.1774
 4722W        W20856  13.681  15.282   2.947  0.2134  0.0478 -0.0708
 4723W        W20857  16.877   2.568  13.013 -0.1813 -0.2729 -0.0022
 4724W        W20858  17.650  17.764   2.000  0.2636  0.0301  0.0331
 4725W        W20859  14.643  16.064   6.173  0.1115 -0.1001 -0.0711
 4726W        W20860   4.837   5.097   5.193 -0.1927 -0.0617 -0.1231
 4727W        W20861   1.855   7.633  14.471  0.0806  0.2405 -0.1258
 4728W        W20862  16.050  10.917   2.619  0.1269 -0.2348  0.0406
 4729W        W20863  18.092  17.493  14.574 -0.1553 -0.1638  0.0432
 4730W        W20864  15.559   6.680  14.935 -0.0592  0.1845  0.0646
 4731W        W20865   4.750   3.564   4.211 -0.4100  0.1475  0.1275
 4732W        W20866  13.902  12.791  13.915  0.0230 -0.2173 -0.0242
 4733W        W20867   2.291  13.055   5.699  0.1230 -0.1290 -0.0110
 4734W        W20868   4.378  18.448   3.016 -0.0005 -0.0460 -0.3069
 4735W        W20869   1.209  11.339  11.889 -0.0718  0.1605  0.0015
 4736W        W20870   6.603  10.782   0.098  0.0705 -0.3316 -0.3385
 4737W        W20871  17.625  11.363   2.373 -0.0719  0.2588 -0.0318
 4738W        W20872   7.424   3.161   1.283  0.1696 -0.0095 -0.1665
 4739W        W20873  15.809  11.587   2.029  0.0856 -0.0223 -0.0377
 4740W        W20874   6.963   0.401   4.100  0.0156  0.1385 -0.2755
 4741W        W20875  15.794   2.244  13.268  0.0605  0.2846 -0.3024
 4742W        W20876   0.287   3.542   1.148  0.0079 -0.3240  0.1365
 4743W        W20877  17.065  12.692   1.135 -0.2129 -0.1014 -0.2440
 4744W        W20878   2.524  12.650  12.635  0.0520  0.0673  0.2893
 4745W        W20879  18.692  15.771  12.940  0.0568  0.0640  0.0056
 4746W        W20880   0.542  15.922   4.631 -0.2444  0.2518  0.1133
 4747W        W20881  11.820   4.516   4.209  0.0830  0.0339  0.1227
 4748W        W20882   6.383  15.893  10.952  0.0515  0.3389 -0.2194
 4749W        W20883   0.585  11.938  10.472  0.0250  0.0015  0.1853
 4750W        W20884  15.545  15.446   2.861 -0.2418  0.0806  0.1071
 4751W        W20885  18.345   5.265  12.453  0.4491  0.0147 -0.1420
 4752W        W20886  11.055  10.702   0.503 -0.2103 -0.0065 -0.0839
 4753W        W20887  14.054  18.016  13.826 -0.5365 -0.4116 -0.1292
 4754W        W20888   5.253  17.508   2.229 -0.0052 -0.0652  0.1784
 4755W        W20889   5.287   7.729  15.226 -0.0248  0.0093  0.1061
 4756W        W20890  18.221   8.174   1.331 -0.0398 -0.1571 -0.0266
 4757W        W20891  13.827   3.378   1.063 -0.1339  0.0449  0.1042
 4758W        W20892  16.423   4.978   1.581 -0.4159 -0.1149 -0.1024
 4759W        W20893   5.294  16.489   1.125 -0.0375 -0.0352 -0.1090
 4760W        W20894  10.578  16.357   0.269 -0.1008 -0.1313 -0.0868
 4761W        W20895  15.759  17.936  14.972 -0.1517  0.0702 -0.1623
 4762W        W20896  12.145  12.438   1.781 -0.1195 -0.0048 -0.1010
 4763W        W20897   3.898  14.121  11.426 -0.0439  0.0273 -0.1654
 4764W        W20898   7.634  13.250   3.340  0.0650  0.3074 -0.0805
 4765W        W20899   9.528  16.664  14.308  0.0241  0.0010 -0.1156
 4766W        W20900  17.888   2.276   3.202  0.1364 -0.0143  0.1664
 4767W        W20901  10.828   0.517   5.406  0.2932 -0.0602 -0.2878
 4768W        W20902  12.875   7.294  12.426 -0.0894 -0.1303  0.4065
 4769W        W20903   2.588   8.012  11.780 -0.1122 -0.0076  0.0528
 4770W        W20904   5.895  18.591  12.741 -0.0824 -0.0183 -0.4095
 4771W        W20905   7.597  13.235  15.151  0.1481 -0.1632 -0.0533
 4772W        W20906   6.354  16.371  12.825  0.1894  0.3322 -0.0839
 4773W        W20907  13.992   4.332  14.150 -0.2403  0.1248 -0.1507
 4774W        W20908  12.553  13.112   2.059 -0.2190 -0.1043 -0.1096
 4775W        W20909  16.702  12.853  12.537 -0.2192  0.1598  0.2102
 4776W        W20910  17.558  14.387  13.696 -0.1858  0.0715  0.0306
 4777W        W20911   7.271  10.094  13.155  0.1086  0.2854  0.4436
 4778W        W20912   9.713  12.296  15.292 -0.3198 -0.1755 -0.1339
 4779W        W20913  10.100  10.956  14.348 -0.1181 -0.2857  0.0450
 4780W        W20914   1.453   7.098   5.030 -0.1078 -0.0229  0.1422
 4781W        W20915   0.536   4.335   3.335 -0.3368  0.1813  0.4157
 4782W        W20916   4.081   1.415  13.007  0.0530 -0.0779  0.0445
 4783W        W20917  11.136  11.571  11.735 -0.3419 -0.2467 -0.2823
 4784W        W20918  11.351  10.024   4.431  0.0752 -0.0794 -0.0917
 4785W        W20919  14.035  10.876   5.189 -0.0155 -0.1704 -0.2939
 4786W        W20920   8.011   2.216  11.265 -0.0553 -0.0876 -0.0572
 4787W        W20921   0.567   5.084  13.579  0.0966 -0.2826 -0.0649
 4788W        W20922   7.313  11.908   3.943  0.0404  0.3108 -0.3801
 4789W        W20923   3.296  14.283   0.004 -0.0974 -0.0766 -0.0010
 4790W        W20924  18.539   2.159   3.292 -0.3899 -0.1093 -0.1208
 4791W        W20925   3.525   7.296   3.643 -0.1190 -0.0756 -0.5105
 4792W        W20926   2.763  11.688   0.634  0.0340 -0.1290  0.0779
 4793W        W20927  16.810   9.005   4.481  0.0817  0.0695  0.2874
 4794W        W20928   1.242   0.343   2.021  0.1288  0.3961  0.0418
 4795W        W20929   6.901   7.716   5.455 -0.0562 -0.0708  0.0794
 4796W        W20930  18.338   6.091   3.535  0.3786 -0.1359 -0.4116
 4797W        W20931  16.864   7.997   4.289 -0.0665 -0.0871  0.2642
 4798W        W20932   8.579  14.448   1.255 -0.4116 -0.2100 -0.0249
 4799W        W20933   4.668   7.812  13.109  0.0859 -0.0002 -0.0352
 4800W        W20934   6.754  13.853  12.571  0.0365 -0.0263  0.2529
 4801W        W20935  16.225   7.666   4.343 -0.3912 -0.2290 -0.1986
 4802W        W20936   8.177   7.564  12.882  0.0398  0.2552  0.0176
 4803W        W20937   5.816  11.849  12.629  0.0033 -0.0778 -0.0866
 4804W        W20938   7.677  14.927  12.788  0.1019 -0.3485 -0.1828
 4805W        W20939   9.841  16.758  13.946 -0.0511 -0.0309  0.0894
 4806W        W20940   2.879  14.941  13.125 -0.0577 -0.0437 -0.0164
 4807W        W20941   5.275   5.214  15.211  0.0389  0.1614  0.0176
 4808W        W20942  17.074  14.488  11.157  0.0601 -0.0195  0.0870
 4809W        W20943  10.037   2.638   5.977  0.2266 -0.0041 -0.2073
 4810W        W20944  17.528  16.548  11.892 -0.1683  0.0894  0.0782
 4811W        W20945   3.289  16.727   5.116  0.2363  0.0471  0.0695
 4812W        W20946  12.407   4.484   4.150  0.1692 -0.0057 -0.1872
 4813W        W20947  15.849  17.139  12.623  0.0087 -0.0235 -0.0987
 4814W        W20948   6.315  18.315  10.762  0.0865 -0.0330  0.1535
 4815W        W20949   4.101  10.869   2.286  0.0434  0.1673 -0.4837
 4816W        W20950  10.671   9.668   1.822  0.0263 -0.0420  0.1197
 4817W        W20951  10.662  11.205   5.060 -0.0351  0.3911 -0.0987
 4818W        W20952  15.820  14.956   0.232  0.0449  0.0942  0.1902
 4819W        W20953  13.132  16.924  14.986 -0.3922 -0.0452 -0.2503
 4820W        W20954   9.439  13.241  15.298  0.0175 -0.0754  0.3820
 4821W        W20955   5.948   9.789   4.152 -0.0706  0.2463 -0.1953
 4822W        W20956   8.189   0.922  15.169  0.2005 -0.1972  0.0258
 4823W        W20957   7.158  12.297  11.744  0.1768 -0.5392  0.0403
 4824W        W20958   6.162  16.042   1.831 -0.1899  0.1373 -0.2241
 4825W        W20959   9.010  12.116   4.389  0.0821  0.0721 -0.3274
 4826W        W20960  18.007   2.361  11.015 -0.2641  0.1980  0.1305
 4827W        W20961  13.946   3.067   9.559 -0.3042 -0.1244 -0.0181
 4828W        W20962   3.577   9.273  11.016 -0.1901  0.0297  0.2411
 4829W        W20963  14.042   6.129   0.315  0.2805 -0.2512  0.2251
 4830W        W20964   0.489  14.449  14.403  0.3615  0.0433 -0.1284
 4831W        W20965  15.312   9.934  13.636 -0.0542  0.3450 -0.3507
 4832W        W20966  11.668   4.681  11.191 -0.1135 -0.1115  0.2172
 4833W        W20967   8.932  13.718  11.742  0.5123  0.1895 -0.0523
 4834W        W20968   9.968   5.631   2.323  0.1561 -0.1204  0.4016
 4835W        W20969   7.495  13.639   3.629 -0.1205 -0.0185 -0.1602
 4836W        W20970  10.137   9.351   0.101 -0.1798  0.0599  0.0183
 4837W        W20971  12.067   5.752  13.310 -0.0156  0.0255  0.0046
 4838W        W20972   2.543   0.315  13.795 -0.1199 -0.1453 -0.0879
 4839W        W20973  13.963   8.395  13.470  0.0086  0.0819 -0.2147
 4840W        W20974  12.984   2.014  11.839  0.3462  0.0187 -0.0882
 4841W        W20975  15.438  13.836   3.699 -0.1712 -0.0752  0.0086
 4842W        W20976   8.904  12.487   1.429 -0.1745 -0.3205  0.2651
 4843W        W20977   2.913   4.089   2.250 -0.0224  0.2275 -0.4180
 4844W        W20978  12.304  11.976   1.674 -0.2648  0.1948 -0.2411
 4845W        W20979  16.934  11.468  14.942 -0.4840  0.0453 -0.2309
 4846W        W20980  16.825  10.016  11.708 -0.0365  0.0775  0.0244
 4847W        W20981   8.154   5.563   3.906  0.1897  0.4130  0.1342
 4848W        W20982   5.006  11.960   0.903 -0.2108  0.1234 -0.1867
 4849W        W20983  12.375   9.319  12.046  0.1437 -0.0053 -0.0568
 4850W        W20984  15.775  12.302  13.491 -0.0667 -0.2750 -0.1505
 4851W        W20985  17.006   1.940   0.297  0.0428  0.0171  0.1545
 4852W        W20986   8.784   3.034  12.265 -0.3268  0.1893 -0.3729
 4853W        W20987   1.019  10.206   2.731 -0.0209 -0.0650  0.2307
 4854W        W20988  12.772   5.305   0.574 -0.2021  0.2256 -0.1161
 4855W        W20989   6.897  17.254  10.819  0.0267 -0.1336 -0.2289
 4856W        W20990   9.140   6.530  15.424 -0.0292  0.0216  0.1330
 4857W        W20991  17.154   1.211  14.107  0.1466  0.1650  0.0030
 4858W        W20992   6.295  12.385   4.174  0.1500  0.3224  0.1499
 4859W        W20993  16.561   6.031  15.552 -0.1613 -0.0971  0.0148
 4860W        W20994   3.158   5.864  11.699 -0.2565 -0.2398 -0.0919
 4861W        W20995   4.281   9.267   2.639  0.2713  0.0782 -0.2264
 4862W        W20996  17.038  13.456  14.104  0.0622  0.0506  0.2060
 4863W        W20997   2.071  10.128   0.801  0.1064  0.1993 -0.0086
 4864W        W20998  15.437  13.512   4.993  0.1755  0.0754  0.0761
 4865W        W20999  18.195  11.310  10.740 -0.0154 -0.2398  0.3298
 4866W        W21000   0.483  15.675   1.175 -0.1813  0.0573  0.1828
 4867W        W21001   6.113  18.403  14.557  0.0367 -0.3393 -0.0096
 4868W        W21002  12.593  12.677   1.776  0.0390 -0.3418 -0.2927
 4869W        W21003  15.893   8.040  10.164 -0.1130  0.1822 -0.3617
 4870W        W21004  16.663  10.479  11.572  0.0420 -0.1297  0.2902
 4871W        W21005   3.494   2.382  15.306  0.2745 -0.2522 -0.1887
 4872W        W21006   9.879  10.714  12.741 -0.2599 -0.5288  0.0778
 4873W        W21007  18.081  12.774  11.537  0.5676  0.0434 -0.0942
 4874W        W21008  13.814   0.015   4.921  0.0789 -0.0408  0.3135
 4875W        W21009  18.628   4.093   0.548 -0.0261 -0.1851  0.0070
 4876W        W21010  11.959   7.266   4.423  0.0714 -0.0620  0.1504
 4877W        W21011   7.899  16.949  14.300  0.2096 -0.0375  0.0970
 4878W        W21012  14.586   2.352   4.454  0.0688 -0.0460 -0.1099
 4879W        W21013   9.251   5.506  15.334 -0.0837  0.1626  0.4168
 4880W        W21014   2.267   2.182   3.277  0.2400  0.4071 -0.3019
 4881W        W21015  10.513  10.187  14.789 -0.2561  0.0427  0.0128
 4882W        W21016  14.738   4.170   9.895  0.3530  0.0713  0.2900
 4883W        W21017   3.448   2.928   4.766 -0.2113 -0.1123  0.1861
 4884W        W21018  16.190  15.461   2.869 -0.0779 -0.1229  0.0734
 4885W        W21019   2.015   7.853   1.999 -0.0020 -0.2083 -0.1427
 4886W        W21020   5.839  16.774  15.487 -0.2326  0.0314 -0.1095
 4887W        W21021  16.194   8.568   0.949  0.2442  0.2302 -0.0090
 4888W        W21022   4.071  10.616   2.730  0.3988  0.0845 -0.1894
 4889W        W21023  14.574   3.576  14.197  0.2438 -0.0132  0.0569
 4890W        W21024  17.524   8.362   2.300  0.0800  0.2860  0.3226
 4891W        W21025  12.315   5.624   3.322 -0.2720  0.0021 -0.0814
 4892W        W21026  16.926   5.077   4.321 -0.0255 -0.1288  0.2111
 4893W        W21027   4.327  12.554   3.746 -0.0522  0.2288 -0.0213
 4894W        W21028   9.882   4.069  13.119 -0.3391  0.0916 -0.1396
 4895W        W21029   6.353  16.676  13.760  0.0878 -0.1164 -0.0688
 4896W        W21030   4.836  15.161  12.013  0.2126  0.1389 -0.1345
 4897W        W21031   1.233   6.896  14.459 -0.1033  0.1354  0.0881
 4898W        W21032  18.391  16.780   3.939 -0.1112  0.2147  0.2125
 4899W        W21033  16.881  17.551  12.217  0.0657 -0.4467  0.1855
 4900W        W21034   4.678   5.695  13.803 -0.0181  0.0307  0.0491
 4901W        W21035  14.850   0.899   1.026  0.0748  0.1394  0.1544
 4902W        W21036  14.919   5.157   0.086  0.1659  0.2484 -0.0170
 4903W        W21037  11.576   1.031  13.499 -0.0029 -0.0135  0.0482
 4904W        W21038   2.518   1.824   4.300  0.1304 -0.1442  0.2654
 4905W        W21039   8.267   0.704   1.656 -0.2823  0.1693 -0.1428
 4906W        W21040   0.180  18.370  13.948 -0.0112 -0.0238  0.0214
 4907W        W21041  17.626  12.464   0.390 -0.1282 -0.3568 -0.0392
 4908W        W21042   1.214   0.407   3.445  0.1810 -0.0495  0.0736
 4909W        W21043   0.418  16.145  11.409  0.1214 -0.0195  0.3512
 4910W        W21044  13.610  13.697   1.578  0.1279 -0.2245 -0.0728
 4911W        W21045   3.033  16.878  12.850 -0.4556 -0.1657  0.3184
 4912W        W21046   9.561  16.842  11.849  0.2125 -0.1155  0.1805
 4913W        W21047  10.985   0.505  13.455  0.0737 -0.1916 -0.0140
 4914W        W21048   6.472   5.868  11.230 -0.0805 -0.1025 -0.0263
 4915W        W21049   5.619  15.794  12.661 -0.2174 -0.0385 -0.0749
 4916W        W21050  14.724   0.713  13.791  0.0687  0.0400 -0.2771
 4917W        W21051   6.836  13.916  15.150 -0.1695 -0.0046 -0.1861
 4918W        W21052  13.710  10.744  12.263 -0.1116  0.0692  0.1569
 4919W        W21053  17.960  16.689  12.202  0.3084 -0.3042  0.0766
 4920W        W21054   9.796   6.686  14.967 -0.0257 -0.1403  0.0163
 4921W        W21055   7.013   0.349   0.653 -0.0433 -0.0511 -0.4845
 4922W        W21056  14.470  13.327  13.187  0.2200  0.1844 -0.2674
 4923W        W21057  15.196  12.152  13.083  0.1920  0.4475 -0.0716
 4924W        W21058  15.802  13.795  14.430 -0.0116 -0.2051  0.0683
 4925W        W21059   0.248  10.393   3.224 -0.3453 -0.0786 -0.0433
 4926W        W21060  13.329   0.711   4.810 -0.1018 -0.1041  0.0406
 4927W        W21061  14.851   2.794   1.035  0.1307  0.1102 -0.4364
 4928W        W21062  10.757   5.782   4.374 -0.2470 -0.4343  0.2328
 4929W        W21063  12.922  14.825  12.300 -0.1029 -0.0462  0.0092
 4930W        W21064   4.075   7.054   1.533  0.1407  0.1097  0.0505
 4931W        W21065   3.682   0.691   4.776 -0.2076  0.3675 -0.0705
 4932W        W21066  10.222   3.036  11.177  0.1623 -0.1406  0.2384
 4933W        W21067  12.672   0.427   2.150 -0.0857 -0.1586  0.0703
 4934W        W21068  11.146   9.238   1.844 -0.3310  0.0033 -0.0027
 4935W        W21069  13.579   8.361  13.171 -0.0816 -0.0562 -0.1500
 4936W        W21070   3.082  11.960   3.131 -0.2496 -0.0148 -0.0455
 4937W        W21071  14.365  10.586   2.645  0.2543  0.0796 -0.0337
 4938W        W21072   5.077  10.676   0.859 -0.2136 -0.1324 -0.1864
 4939W        W21073  12.854   4.704  10.726  0.1335 -0.1868 -0.0494
 4940W        W21074   2.332   7.832  14.754  0.3099  0.2037 -0.1341
 4941W        W21075  12.272   7.833  11.789 -0.0823 -0.1005  0.2434
 4942W        W21076   0.662  15.661   4.166  0.1904  0.0120  0.0357
 4943W        W21077  14.790  11.398  14.466 -0.3799 -0.0321  0.2380
 4944W        W21078  15.388   0.173  12.401  0.1914  0.0717  0.1015
 4945W        W21079   4.461  10.302   2.628 -0.1643 -0.0020  0.0410
 4946W        W21080   5.723   0.557   3.834  0.1331  0.3607 -0.1130
 4947W        W21081   0.663  10.782   0.560 -0.1051 -0.2164  0.0443
 4948W        W21082  16.003   8.511  15.504  0.0520 -0.0185 -0.0747
 4949W        W21083  12.561  12.840   0.299  0.0118 -0.2593  0.3109
 4950W        W21084   1.089   1.006   5.402 -0.1747  0.0823  0.1614
 4951W        W21085   6.205   9.414   4.326  0.2775  0.1200 -0.2409
 4952W        W21086   0.242   0.762   0.311 -0.5029 -0.2319 -0.1923
 4953W        W21087   3.356  14.736   0.453 -0.1384  0.0977 -0.3458
 4954W        W21088  12.338  18.303   2.360  0.3415 -0.0992  0.2998
 4955W        W21089   1.941  11.332   0.320 -0.2704 -0.0201 -0.3783
 4956W        W21090   6.811   9.527  13.792 -0.0009  0.0552  0.0699
 4957W        W21091   3.346   8.568  12.651 -0.1303  0.1703  0.0812
 4958W        W21092  14.090  14.101  10.363  0.0198  0.3045  0.0717
 4959W        W21093   6.349   4.234  11.141  0.2376 -0.0782 -0.0809
 4960W        W21094   3.941   1.493  12.511 -0.0452  0.0675  0.1891
 4961W        W21095   6.197   7.663   0.071 -0.0001  0.1007  0.0754
 4962W        W21096   8.819   2.562   2.285  0.0017  0.0116  0.1514
 4963W        W21097  15.328   1.913   2.269 -0.2007  0.0952 -0.1751
 4964W        W21098   5.632  10.557  14.542  0.0964 -0.1417 -0.0223
 4965W        W21099  13.573   1.572  12.003 -0.1572 -0.1022 -0.1960
 4966W        W21100   4.199  14.473  11.597  0.1580 -0.0264 -0.2477
 4967W        W21101   0.696   6.829   1.475  0.0059  0.1823 -0.1738
 4968W        W21102   6.073  10.289  12.570  0.2792 -0.0411 -0.0064
 4969W        W21103   5.104  11.379  14.300  0.3659 -0.1369  0.0371
 4970W        W21104   0.916  18.127  13.504  0.3779 -0.0536 -0.1933
 4971W        W21105   8.685  10.356   3.901  0.0629 -0.1223 -0.1600
 4972W        W21106   2.143  14.234  10.947 -0.0277  0.2270 -0.1057
 4973W        W21107   5.800  10.548   1.482 -0.1594 -0.2406  0.1052
 4974W        W21108  17.078  10.319   3.465 -0.0255 -0.0596  0.4438
 4975W        W21109   6.044   3.884  11.841 -0.3459  0.1437 -0.3041
 4976W        W21110  13.693   8.409  13.933 -0.1756  0.1830  0.0576
 4977W        W21111   0.292   2.005   3.395  0.1043 -0.1369 -0.2211
 4978W        W21112   8.024  13.087   2.266  0.0525 -0.1009 -0.1561
 4979W        W21113   7.403   2.526   4.297 -0.1782 -0.2760  0.3570
 4980W        W21114  10.556   4.011   1.138  0.1071 -0.4228 -0.3502
 4981W        W21115  15.820   9.778   1.622 -0.0260  0.0233  0.0735
 4982W        W21116  18.388   3.809   4.164  0.1864  0.4379 -0.0563
 4983W        W21117   4.441  10.008   4.389 -0.0152  0.0065 -0.2158
 4984W        W21118   3.126  13.558  14.814  0.1515  0.3587  0.0070
 4985W        W21119  12.874  16.497  14.877  0.1442  0.1913  0.0930
 4986W        W21120  13.316   3.104   1.858  0.0620  0.1314  0.2087
 4987W        W21121  16.230   9.762  13.604 -0.3045  0.0990  0.2463
 4988W        W21122  16.333  10.835   3.950 -0.1708  0.2022 -0.2625
 4989W        W21123   8.428   6.373   1.334  0.2410 -0.0912  0.2090
 4990W        W21124   6.226  13.640  11.706  0.0825 -0.1325  0.1576
 4991W        W21125  16.095   4.398  13.488 -0.0555 -0.0724 -0.1284
 4992W        W21126   4.696   9.248  12.164  0.2180 -0.0983 -0.0926
 4993W        W21127   6.966   3.874  15.390 -0.0799 -0.1114 -0.0562
 4994W        W21128   2.722   6.280   0.016  0.0985  0.0275  0.3756
 4995W        W21129   9.707   1.565   2.277 -0.0939  0.0825  0.0315
 4996W        W21130   4.455  10.245   1.771  0.1534 -0.0512  0.1812
 4997W        W21131   1.253  13.763   1.150  0.1636  0.0476  0.1584
 4998W        W21132   2.157   7.074   2.466 -0.0937  0.1675 -0.2008
 4999W        W21133  13.979  17.257   1.562 -0.1695  0.3203 -0.0844
 5000W        W21134   8.180  15.402   2.970  0.0012 -0.3803 -0.4584
 5001W        W21135  16.718   7.083  12.241  0.0818  0.1413  0.2490
 5002W        W21136  14.036   3.095   0.529 -0.1367  0.2269 -0.5111
 5003W        W21137  10.554  18.527   3.810  0.0870  0.1965  0.1435
 5004W        W21138   8.918  17.652   5.217 -0.0839 -0.0033  0.3992
 5005W        W21139  12.670  16.266   2.141 -0.0440  0.1502 -0.2089
 5006W        W21140  10.202  17.631   1.682  0.2898  0.1646  0.1923
 5007W        W21141   2.699   2.833   3.009  0.1174  0.1516 -0.5022
 5008W        W21142  16.717   2.898  14.282 -0.1384 -0.1143 -0.0749
 5009W        W21143  10.576   6.926   4.133 -0.0712 -0.0673 -0.3043
 5010W        W21144   6.189   4.654   3.199  0.0198  0.1021 -0.0296
 5011W        W21145   3.001  10.396  14.239 -0.1331  0.1595 -0.0213
 5012W        W21146  15.881   1.889   4.610  0.1213  0.1149  0.2634
 5013W        W21147  17.267  17.063  15.564 -0.3856 -0.4709  0.1389
 5014W        W21148   1.877   0.589  11.731 -0.1633  0.3771 -0.1691
 5015W        W21149  13.777   0.440   3.244 -0.0549 -0.0485  0.0108
 5016W        W21150   4.716  11.303  11.408 -0.4327  0.0931  0.2700
 5017W        W21151   9.242   4.980   4.175 -0.1378 -0.1013  0.2104
 5018W        W21152   8.624  15.810   0.402  0.0807  0.0765 -0.1019
 5019W        W21153  10.075   7.316   3.347 -0.1422 -0.1914 -0.1717
 5020W        W21154  17.180   1.852   2.660 -0.3085  0.0993 -0.0523
 5021W        W21155   8.408   7.988   5.350  0.0151  0.1967 -0.1420
 5022W        W21156   6.433  12.243   4.644  0.0232 -0.1238 -0.0806
 5023W        W21157   7.704   4.300   4.741 -0.0380 -0.0131  0.0639
 5024W        W21158  10.729   5.284   1.035  0.2179 -0.0160 -0.0683
 5025W        W21159   6.537  18.407  11.452 -0.1751  0.0492 -0.1281
 5026W        W21160   5.699  14.790   2.960  0.2032  0.2478 -0.3102
 5027W        W21161   1.842   3.223  11.624  0.0038 -0.0570 -0.0986
 5028W        W21162  14.217  15.263  10.246  0.0620  0.1482 -0.2457
 5029W        W21163   7.251  13.320   5.430  0.0259 -0.4169  0.0496
 5030W        W21164   0.159  17.000  10.806  0.1231  0.0281 -0.0375
 5031W        W21165   0.910  18.661  13.496 -0.4289  0.1211 -0.0278
 5032W        W21166  12.309   6.692  12.025 -0.0664  0.0407 -0.0303
 5033W        W21167   5.357   4.175   3.651  0.2415  0.3531 -0.2414
 5034W        W21168  17.825   5.257  12.319 -0.1050 -0.1423  0.4772
 5035W        W21169   6.504  12.641  12.345  0.0195 -0.1470 -0.0635
 5036W        W21170  18.700   8.423  14.031 -0.2001 -0.2988 -0.2177
 5037W        W21171   9.604   5.366  10.940 -0.0152  0.2941  0.1998
 5038W        W21172  13.880  14.092  15.081 -0.1744 -0.0812  0.2068
 5039W        W21173   4.218  16.149   2.730  0.1881  0.5097  0.2553
 5040W        W21174   1.080   2.171   3.610 -0.0731  0.1888  0.1991
 5041W        W21175   9.064   4.031   0.658  0.2762 -0.1051  0.0694
 5042W        W21176   6.171   5.570  12.605 -0.1576  0.1555  0.1454
 5043W        W21177   4.942   2.100  12.081  0.1873 -0.2580 -0.0404
 5044W        W21178   8.659   6.314   4.714 -0.2002  0.2335  0.0131
 5045W        W21179   4.484  17.475   0.141  0.0343 -0.1420 -0.3400
 5046W        W21180  18.189   4.627  14.429 -0.2289  0.0390 -0.2087
 5047W        W21181   4.071   4.105   2.951  0.0476  0.3679 -0.0496
 5048W        W21182   1.646  16.034   1.519 -0.2591 -0.0325 -0.0276
 5049W        W21183   1.834   8.537   4.435 -0.0069 -0.1853  0.2034
 5050W        W21184   1.955   4.896  11.631 -0.2465  0.2907 -0.0043
 5051W        W21185  18.667  16.188  14.042  0.1506 -0.0343 -0.1109
 5052W        W21186  10.889  10.217   1.552 -0.2485 -0.4899  0.6148
 5053W        W21187  10.765   5.848   1.810  0.1297 -0.0849 -0.1045
 5054W        W21188   5.243   9.549  13.639  0.1981  0.0612 -0.1124
 5055W        W21189   2.335  15.710  13.731  0.1451  0.0873  0.3674
 5056W        W21190   6.076   7.349  13.780 -0.0350 -0.1493  0.1089
 5057W        W21191  13.885   1.477   3.427  0.2068 -0.2941 -0.0514
 5058W        W21192  17.424   1.204  11.831  0.0155  0.2654  0.0641
 5059W        W21193  15.876   6.185   0.539  0.0350  0.4085  0.0333
 5060W        W21194   4.550   4.680  12.495 -0.2493 -0.1363 -0.1715
 5061W        W21195   2.791  13.836   2.212 -0.1458 -0.0302  0.1542
 5062W        W21196  15.868   2.160  10.558 -0.0804 -0.0683  0.0422
 5063W        W21197  10.919   3.277  14.246 -0.1299  0.1777  0.1288
 5064W        W21198  17.972  13.339  11.364 -0.1346  0.2137  0.0978
 5065W        W21199   8.192  17.370   3.585 -0.2741  0.0124  0.0054
 5066W        W21200  11.295   6.438   3.471  0.0551 -0.1535 -0.3200
 5067W        W21201  12.542   4.783  15.363 -0.0249 -0.1777 -0.2599
 5068W        W21202   4.210  14.961  12.703 -0.1680 -0.3180  0.0970
 5069W        W21203   4.498  12.875  10.740 -0.2632  0.0205 -0.0501
 5070W        W21204   5.071   3.432   0.473  0.0654  0.0086 -0.4002
 5071W        W21205   4.289  10.359   3.518  0.2257  0.0188 -0.1395
 5072W        W21206  17.586  12.477   0.948  0.0417  0.2347  0.0705
 5073W        W21207   8.274  12.297  13.552  0.2066 -0.1505 -0.0140
 5074W        W21208   9.751  16.848  12.344 -0.0311  0.1191 -0.1249
 5075W        W21209   5.200  13.513  10.457 -0.0557 -0.1019 -0.1301
 5076W        W21210  10.904   8.325   5.095 -0.0139  0.4814 -0.0352
 5077W        W21211   8.951  10.288   1.289 -0.0294 -0.1323 -0.1180
 5078W        W21212   4.121   4.075  13.346  0.1565 -0.2293 -0.0432
 5079W        W21213  10.052   7.165  14.652  0.2820 -0.2171 -0.1170
 5080W        W21214   1.865  14.715   1.264 -0.1923 -0.1430  0.1279
 5081W        W21215  13.895   2.770  14.063 -0.0521  0.3513 -0.0968
 5082W        W21216   2.415  11.271   6.051 -0.1591 -0.0643 -0.2697
 5083W        W21217   7.554   0.756   1.947  0.2220 -0.1539 -0.1148
 5084W        W21218   8.377   8.801  12.326  0.1585 -0.0799  0.3458
 5085W        W21219   2.909   8.977   3.171 -0.1888  0.1005 -0.2141
 5086W        W21220  11.895  16.328  14.985  0.0991  0.2387  0.1808
 5087W        W21221   3.988  13.555   5.341 -0.0755 -0.0323  0.2547
 5088W        W21222  10.825   5.713   3.561  0.2155 -0.1511 -0.0550
 5089W        W21223  13.518  10.328   3.084 -0.2359 -0.3077  0.4935
 5090W        W21224   7.760   6.593   4.017 -0.0298  0.0002  0.1425
 5091W        W21225   0.162   8.053   2.526 -0.0567  0.0702  0.2022
 5092W        W21226  16.436  13.294   3.018 -0.0917  0.0194  0.0616
 5093W        W21227   9.012   3.630  15.341 -0.0562  0.1175 -0.0650
 5094W        W21228   7.943  15.976   0.526  0.1387  0.2433  0.2969
 5095W        W21229   0.621  14.249   5.562 -0.2583 -0.0186  0.0066
 5096W        W21230  13.651   4.104  11.575 -0.0241 -0.0921  0.0288
 5097W        W21231   1.721   3.300   2.655  0.0354 -0.0220  0.0321
 5098W        W21232  17.640   0.676   4.091 -0.1216  0.3067 -0.1158
 5099W        W21233   4.050  14.077   3.345  0.0422  0.0129 -0.1942
 5100W        W21234   4.446   7.072   1.979 -0.0929  0.0086 -0.0541
 5101W        W21235  12.875   8.812   0.670 -0.1012  0.1675  0.0220
 5102W        W21236   4.626   9.275   1.231  0.2282 -0.2867 -0.0983
 5103W        W21237  10.916   7.514  11.813 -0.2438 -0.2957 -0.1175
 5104W        W21238   1.547  10.023   3.019 -0.2469 -0.1308 -0.1243
 5105W        W21239  15.269  18.169   4.805 -0.0272 -0.1473 -0.0901
 5106W        W21240   0.167  11.701   2.418  0.6516  0.2540  0.0509
 5107W        W21241  10.471  14.400  15.483 -0.1155 -0.0118 -0.0011
 5108W        W21242  13.411  17.262  15.375  0.3962 -0.3620  0.1085
 5109W        W21243  14.613   3.322  12.526  0.3371  0.1176  0.1757
 5110W        W21244  14.524  16.114  12.766  0.1547 -0.0439  0.1146
 5111W        W21245  14.748   7.935  14.624  0.1342  0.1338  0.1973
 5112W        W21246   3.683  11.409   5.104  0.2092  0.3436 -0.2508
 5113W        W21247   8.969   6.430  12.671 -0.2351  0.1315 -0.1291
 5114W        W21248  11.566  13.898   1.231  0.0465  0.1982  0.0096
 5115W        W21249   0.985   4.350   2.891  0.0371  0.0081  0.1149
 5116W        W21250   4.072  14.449  11.111  0.0652 -0.3229  0.0884
 5117W        W21251   7.163  11.275   0.450 -0.0130 -0.1478 -0.1536
 5118W        W21252  14.611  11.449   1.222  0.0311 -0.2653 -0.0041
 5119W        W21253   4.438   9.322  15.249 -0.1927 -0.4630  0.1759
 5120W        W21254  10.368   5.045   4.885  0.0441 -0.0160 -0.0753
 5121W        W21255   3.204  11.005  13.064 -0.2567  0.1519  0.2408
 5122W        W21256   0.660  15.977  14.042 -0.1176  0.1130  0.0831
 5123W        W21257   3.066   7.716   4.676 -0.0035  0.0425  0.0570
 5124W        W21258   4.958   8.377   4.242  0.0363  0.0776  0.0865
 5125W        W21259   8.903  18.577   0.834  0.4947 -0.0521 -0.1828
 5126W        W21260  16.494   9.377  12.546  0.2383 -0.0468 -0.1801
 5127W        W21261  14.281   0.484  10.966  0.0239 -0.0509  0.2050
 5128W        W21262   5.452   3.870   4.714 -0.2353  0.0405 -0.2457
 5129W        W21263   2.503   5.655  11.036 -0.0807 -0.2771 -0.6187
 5130W        W21264  18.661   6.167   3.057 -0.0200  0.1099 -0.2476
 5131W        W21265  17.378  14.667  14.846 -0.0788 -0.5500  0.1745
 5132W        W21266  14.200  12.828   4.180  0.1218  0.0457  0.0416
 5133W        W21267   3.643   4.043   4.313  0.0598  0.0470  0.3220
 5134W        W21268  10.602  10.348   1.038 -0.0145  0.2690 -0.3440
 5135W        W21269  12.462  14.395   3.656 -0.0550 -0.2594  0.2899
 5136W        W21270   0.409  12.503  15.301 -0.0626  0.2852  0.0147
 5137W        W21271  11.708  13.059  12.961  0.2381 -0.2503 -0.3175
 5138W        W21272   8.467  12.613   0.432 -0.0964  0.2226  0.2590
 5139W        W21273   6.918   5.481  14.210 -0.2418 -0.2181  0.1231
 5140W        W21274  13.719  18.130   3.185 -0.4236  0.0200  0.1714
 5141W        W21275   9.011   5.132  11.010 -0.2609  0.0632 -0.4037
 5142W        W21276   2.158   6.562  14.484 -0.0844 -0.1815 -0.0420
 5143W        W21277  14.334   6.074  13.295  0.0918 -0.4708  0.1241
 5144W        W21278  10.754   8.814  12.786 -0.0506 -0.3022  0.0082
 5145W        W21279   5.569   3.470   5.008 -0.0848 -0.1797  0.1252
 5146W        W21280   0.870  15.644  13.168 -0.2656 -0.1775  0.1452
 5147W        W21281   0.882  10.357   0.776  0.1276 -0.4976 -0.0582
 5148W        W21282   4.656   0.858   4.516 -0.0012  0.1146  0.1883
 5149W        W21283   4.283  12.543   3.203 -0.1778 -0.1723  0.1430
 5150W        W21284   7.835  11.826   3.142 -0.1873  0.1564 -0.0768
 5151W        W21285  18.526   5.733  12.309  0.0836  0.1014 -0.1638
 5152W        W21286  16.466   1.707   0.905 -0.1341 -0.1337 -0.2104
 5153W        W21287   4.939   9.883  11.775  0.2454  0.1656  0.1297
 5154W        W21288   9.864  14.930   0.527 -0.1519  0.0871 -0.0689
 5155W        W21289   6.882  15.995  12.245 -0.1767 -0.2621 -0.0039
 5156W        W21290   1.032  15.744   4.696  0.1398 -0.4891 -0.0738
 5157W        W21291  14.862   0.503  14.336 -0.1720 -0.0034  0.1707
 5158W        W21292  15.759   3.583   2.025 -0.2592  0.1912  0.1771
 5159W        W21293   3.927  16.825  14.563  0.0431 -0.1968 -0.1413
 5160W        W21294   6.070   1.166   2.303 -0.1010 -0.1215  0.1686
 5161W        W21295   8.972  12.289  12.623  0.2302 -0.3675  0.1580
 5162W        W21296   4.065  12.425  13.397  0.3971 -0.0742 -0.1982
 5163W        W21297   8.812   3.519  12.419  0.0360  0.0217 -0.0438
 5164W        W21298   5.315   2.134  11.732 -0.4821  0.0172  0.0934
 5165W        W21299  10.734  12.769  14.541  0.2132  0.3173 -0.2368
 5166W        W21300   7.086  12.794   4.680  0.0654 -0.1609 -0.0609
 5167W        W21301   0.297  13.844   4.838  0.0088  0.0586  0.1509
 5168W        W21302   2.818  13.825  14.459 -0.0063 -0.1577  0.1261
 5169W        W21303   4.717  15.829  15.044  0.0676  0.0731  0.1540
 5170W        W21304  12.451  12.885  14.243 -0.3181  0.0994 -0.1530
 5171W        W21305   9.726   9.660  10.897  0.1680  0.1489  0.1087
 5172W        W21306   5.635   0.305   1.214 -0.0053 -0.1189 -0.0989
 5173W        W21307   5.994  17.590  13.501  0.2816  0.1805  0.1703
 5174W        W21308  17.610  13.172   3.483  0.2649  0.0161 -0.0373
 5175W        W21309  18.621  18.542  14.283  0.0445 -0.1282 -0.1471
 5176W        W21310  13.533   2.214   1.408  0.0947  0.1050  0.0387
 5177W        W21311  14.028   5.667  12.207 -0.1355 -0.1930 -0.2026
 5178W        W21312  11.680  13.392  12.619 -0.0702 -0.3632  0.1358
 5179W        W21313   6.854   0.647   1.135  0.0917 -0.0835  0.1940
 5180W        W21314  15.744   8.944   5.905 -0.0960  0.1730 -0.2174
 5181W        W21315  17.220  16.923   9.745  0.0330  0.0195  0.0694
 5182W        W21316   8.087  14.861  13.732 -0.1178 -0.0006 -0.0895
 5183W        W21317  13.922   2.730   3.979  0.1679  0.0789  0.4051
 5184W        W21318  16.543   8.256   5.348 -0.0040  0.0676  0.2170
 5185W        W21319   6.084  14.958   2.735 -0.1679  0.0434 -0.1136
 5186W        W21320   0.146   2.032  13.068 -0.0075  0.0088  0.1283
 5187W        W21321   4.969   3.895   0.267 -0.0474 -0.0845  0.0564
 5188W        W21322  13.277  14.831   1.196 -0.3630  0.0848  0.1103
 5189W        W21323   7.340   5.479   3.255 -0.1922  0.0840  0.2660
 5190W        W21324  11.298  14.413   9.444  0.0877  0.2757  0.0759
 5191W        W21325   7.624   6.116  14.061  0.0460  0.0184  0.1011
 5192W        W21326  11.652   1.133   4.656 -0.0065  0.0878 -0.3948
 5193W        W21327  18.609   4.995  15.092  0.0216 -0.0883  0.0755
 5194W        W21328  14.438   8.620   9.850 -0.4346 -0.0344  0.5338
 5195W        W21329   6.005  10.806   2.916  0.0259 -0.0637  0.0745
 5196W        W21330   3.258  13.509  12.087  0.2004 -0.4594  0.1261
 5197W        W21331  10.486   5.888   3.179  0.0042 -0.0996  0.0502
 5198W        W21332   6.485  12.211   1.425  0.2388 -0.1430  0.0965
 5199W        W21333   9.602   9.018   1.762  0.1394  0.0740 -0.1151
 5200W        W21334  12.525   9.213  10.566  0.1796  0.2681 -0.1715
 5201W        W21335  12.081  17.995   0.891 -0.1124 -0.0202 -0.0352
 5202W        W21336   6.204   8.925  11.991 -0.1761  0.1792 -0.0408
 5203W        W21337   0.024   7.261   0.909  0.1496 -0.0429 -0.1339
 5204W        W21338   5.262   0.996  11.140  0.1199 -0.2215  0.4658
 5205W        W21339   8.407   5.708   1.949 -0.0431  0.0935  0.0860
 5206W        W21340   6.553  11.166   3.040 -0.1450  0.0897  0.1284
 5207W        W21341  11.623  13.183   0.595 -0.0049 -0.0512  0.0354
 5208W        W21342  10.106   3.624   2.608  0.3549 -0.0157  0.3582
 5209W        W21343   5.936   4.826  10.561 -0.0190  0.1180 -0.1909
 5210W        W21344  17.387   5.607  15.312  0.0328 -0.2123 -0.1375
 5211W        W21345  17.036  17.263  10.886  0.2532  0.1258  0.0652
 5212W        W21346  18.018  15.245   4.384 -0.0639  0.1875  0.2394
 5213W        W21347  11.158   5.698   4.063 -0.1530 -0.0511  0.3143
 5214W        W21348   8.127   7.868   3.203  0.0460  0.2167 -0.0514
 5215W        W21349   7.754   7.687   1.894 -0.1007 -0.1383  0.3330
 5216W        W21350  13.928   9.938   1.134  0.0827  0.1007  0.0310
 5217W        W21351   5.510  11.227   4.355 -0.0014 -0.0445 -0.3636
 5218W        W21352  13.971  15.433  10.600  0.1499 -0.2072  0.0502
 5219W        W21353   5.216   7.516   0.812 -0.2258 -0.3278 -0.1761
 5220W        W21354   0.187   9.007   1.665 -0.0697 -0.0277 -0.1264
 5221W        W21355   7.445  15.365  12.666  0.0701  0.1498  0.0824
 5222W        W21356  17.967   0.350  11.051  0.1714  0.1528  0.0382
 5223W        W21357  14.887   3.594   0.563  0.1750 -0.1830  0.4238
 5224W        W21358  12.437  17.338  12.394  0.0891 -0.1739 -0.0565
 5225W        W21359   5.131  12.789   2.614  0.0394  0.2250 -0.0825
 5226W        W21360  13.790  14.748   3.708  0.2339  0.1623  0.0657
 5227W        W21361  12.422   6.708   1.279 -0.0677 -0.0688  0.0037
 5228W        W21362   3.741   6.842  12.487 -0.3620 -0.2126 -0.2517
 5229W        W21363  10.000   8.266  13.973  0.1590  0.2077 -0.1745
 5230W        W21364   9.567  15.034   1.829  0.1101 -0.3914  0.0893
 5231W        W21365   8.346  12.619   3.252  0.0706  0.0619 -0.1642
 5232W        W21366  14.520  11.719   3.265 -0.0934 -0.2843  0.1795
 5233W        W21367   4.642  12.859   1.972  0.4035  0.0316 -0.0229
 5234W        W21368  11.540  18.417   4.682  0.1739 -0.1289 -0.0535
 5235W        W21369   2.769   2.204  11.263 -0.1069  0.0957  0.0984
 5236W        W21370  15.107  16.540   1.383  0.1915 -0.0077  0.3393
 5237W        W21371  13.623   6.528  10.488 -0.0771  0.2106 -0.0671
 5238W        W21372   5.063  15.489  10.831 -0.0822  0.0565 -0.1319
 5239W        W21373  13.344  13.748  11.046 -0.1814 -0.0888  0.0543
 5240W        W21374  10.970   7.937  14.282 -0.0395 -0.2147  0.0333
 5241W        W21375   8.918  11.656  14.231  0.0362  0.1831 -0.0753
 5242W        W21376  10.279   2.833   1.942 -0.1173  0.1968 -0.1239
 5243W        W21377  17.312   4.251   1.535  0.0978  0.0352 -0.1803
 5244W        W21378   6.934   9.491  14.827 -0.1746 -0.0377 -0.1527
 5245W        W21379  15.189  17.904   1.775  0.0566 -0.2333  0.0483
 5246W        W21380   6.834   6.723   0.837 -0.3727 -0.2698 -0.1221
 5247W        W21381   3.454   0.558  11.440  0.1566  0.3832  0.1165
 5248W        W21382  12.062   5.362   5.632 -0.0357 -0.1263  0.0339
 5249W        W21383   2.212   0.022   0.649 -0.0369  0.0229  0.1513
 5250W        W21384  13.563  10.905   3.930 -0.0402  0.1126 -0.1203
 5251W        W21385   5.209   0.459   3.422 -0.0598  0.1124 -0.0612
 5252W        W21386   8.517  17.627  11.020 -0.0551 -0.0748  0.3578
 5253W        W21387  16.325   4.483   1.947  0.3805  0.0540  0.0645
 5254W        W21388  18.340  11.885  12.857  0.1236  0.4320 -0.2451
 5255W        W21389  10.573  15.735  13.583  0.0527 -0.2236 -0.2791
 5256W        W21390  16.835   4.079   2.929  0.0409 -0.0080  0.1195
 5257W        W21391   4.385  12.762   4.640  0.0628 -0.1504 -0.0351
 5258W        W21392   6.642   4.731  14.991  0.0744 -0.0044  0.0356
 5259W        W21393  10.539  11.269   2.654  0.0360 -0.0319 -0.0330
 5260W        W21394  10.689   4.887   4.474  0.1927 -0.0491 -0.2210
 5261W        W21395  11.618  10.204  13.138 -0.1002  0.1597  0.1318
 5262W        W21396   1.867  15.039   4.074 -0.3350  0.1394 -0.2288
 5263W        W21397  15.206   4.949   0.867 -0.1495 -0.4594  0.1322
 5264W        W21398  12.090   4.075   0.327  0.0051 -0.2427 -0.2548
 5265W        W21399   6.106  11.447   4.948  0.1180  0.0790 -0.4683
 5266W        W21400   2.691   6.818   4.869 -0.1217 -0.0818 -0.0519
 5267W        W21401   5.280   3.704  11.902 -0.2515 -0.0427 -0.3834
 5268W        W21402  14.100  17.614  12.226  0.0566 -0.2435  0.0076
 5269W        W21403   2.042  13.650  11.360  0.0739 -0.0101  0.0082
 5270W        W21404  17.728  14.860  11.870  0.1219  0.0785 -0.0101
 5271W        W21405   6.470   3.632  12.105 -0.0356  0.0611 -0.1745
 5272W        W21406  14.264  14.495   3.885  0.1173  0.0707  0.0130
 5273W        W21407   0.444   6.245  14.779  0.0638 -0.3561 -0.5897
 5274W        W21408   7.539   9.332  11.936 -0.1578  0.3068 -0.0629
 5275W        W21409   2.802   2.430  10.364  0.1424 -0.0554  0.2855
 5276W        W21410   3.216   0.262  15.015  0.0592 -0.1878  0.0774
 5277W        W21411  12.047  13.236   3.147  0.1743  0.0134  0.1534
 5278W        W21412  17.264  17.877  11.950 -0.2905  0.1033 -0.2001
 5279W        W21413   7.525   4.035   1.143 -0.0263  0.0649 -0.2464
 5280W        W21414   4.550  15.662   5.236  0.3802  0.0001 -0.0937
 5281W        W21415  10.663  13.522   0.214  0.1134 -0.0522  0.0992
 5282W        W21416  16.196   5.746   5.588 -0.0554  0.3094 -0.1078
 5283W        W21417   4.167   9.883  12.933  0.0698  0.0386  0.0604
 5284W        W21418   2.889  17.135   2.168 -0.2915  0.0771  0.0191
 5285W        W21419   9.046  11.704   4.044  0.2301  0.3821  0.0564
 5286W        W21420  16.744  16.906   3.192  0.0802 -0.2582  0.1325
 5287W        W21421  14.064  11.055  12.292 -0.2153 -0.1039  0.0685
 5288W        W21422  15.949  12.934  15.320  0.3132  0.1605 -0.1290
 5289W        W21423  16.220   1.340  13.352 -0.3608 -0.1523 -0.0148
 5290W        W21424   4.418  12.754  14.687  0.0051 -0.0170  0.0898
 5291W        W21425   2.442   8.910  10.822  0.2622  0.1215 -0.1343
 5292W        W21426   2.327  17.702   2.719  0.0595  0.4213 -0.1915
 5293W        W21427  13.870  14.791   0.239  0.2473  0.1177 -0.0320
 5294W        W21428  14.057   6.719  14.630  0.2558 -0.0704  0.1986
 5295W        W21429   0.431   9.796  14.020  0.0450 -0.1771 -0.1446
 5296W        W21430  16.481  12.155   3.251  0.1540  0.0713  0.0463
 5297W        W21431   0.770   8.703  14.375 -0.0317 -0.0037  0.2519
 5298W        W21432  17.970  12.309  11.931 -0.3214  0.0295 -0.1031
 5299W        W21433  17.133  15.477   2.912  0.1270  0.1553  0.0999
 5300W        W21434  16.326  13.998  11.605  0.1310  0.0808  0.0259
 5301W        W21435  11.309   5.883   5.894 -0.0150 -0.1769 -0.0153
 5302W        W21436  17.988   5.472   3.585 -0.1112 -0.1168 -0.2038
 5303W        W21437   6.282  15.183   4.748  0.4221  0.0269 -0.3111
 5304W        W21438   6.341  14.724  15.188  0.2010 -0.0376 -0.0741
 5305W        W21439  12.758  14.480   2.827  0.2096 -0.1298 -0.0576
 5306W        W21440  13.549   6.869  14.678 -0.2257 -0.1514  0.3091
 5307W        W21441   4.563   5.379  10.660 -0.1076  0.2975 -0.0758
 5308W        W21442   5.020   6.515  11.833 -0.5185 -0.1694  0.1459
 5309W        W21443   4.371   0.489  11.357 -0.0046  0.0522 -0.2262
 5310W        W21444  14.450   5.252   0.152  0.0683 -0.0007 -0.0090
 5311W        W21445   0.598   4.491   5.752 -0.1891  0.1861  0.4993
 5312W        W21446  18.450  13.914   0.772 -0.1329 -0.1000  0.0527
 5313W        W21447   4.479  12.096  14.169 -0.2003 -0.0509  0.1843
 5314W        W21448   3.997   5.679  12.288 -0.4114 -0.1947 -0.0741
 5315W        W21449  16.544  13.639   2.361 -0.2602  0.0559 -0.2193
 5316W        W21450   3.537   3.808  12.945 -0.3395 -0.3466  0.1685
 5317W        W21451   1.122  10.026  14.708 -0.1668  0.3463 -0.2994
 5318W        W21452   5.574   4.175  15.414  0.1384 -0.3088  0.0460
 5319W        W21453  18.506  11.124  12.064 -0.2169 -0.2508  0.0064
 5320W        W21454  18.262   2.069  14.847  0.0256  0.1761 -0.2430
 5321W        W21455  11.994   7.017   4.900  0.0423  0.1287 -0.1733
 5322W        W21456   1.949  14.355  14.753 -0.0784 -0.1685 -0.3092
 5323W        W21457  13.058  12.791  10.067  0.0526 -0.1391  0.1354
 5324W        W21458  13.300  15.933   5.712 -0.1265  0.0759  0.0711
 5325W        W21459  16.112  14.521  15.212 -0.0864  0.0856  0.0966
 5326W        W21460  10.831   1.866   2.666  0.0793  0.0539  0.1879
 5327W        W21461   0.368  18.666   2.084 -0.2175 -0.0100  0.2567
 5328W        W21462   1.992  13.987   1.870  0.0989 -0.0736  0.0912
 5329W        W21463  14.190   2.876   3.282 -0.0674  0.1040 -0.0731
 5330W        W21464   2.625  16.231   4.183 -0.1952 -0.2131  0.4303
 5331W        W21465   4.477   3.000   2.532 -0.2921 -0.2716 -0.0109
 5332W        W21466   4.876   6.460  14.321 -0.1198  0.0104  0.0879
 5333W        W21467  18.174   6.702   4.929  0.1236 -0.2786  0.0949
 5334W        W21468  17.636  17.187  12.968 -0.0429  0.1665 -0.1362
 5335W        W21469  15.234   1.703  11.198  0.0164  0.1502  0.3877
 5336W        W21470  18.350  13.356  15.221  0.0841  0.1327  0.0872
 5337W        W21471  11.460   8.222  13.034  0.1518 -0.2350  0.3812
 5338W        W21472  11.034   5.052  15.492  0.0981 -0.2703 -0.1594
 5339W        W21473   1.667   4.746  12.082 -0.3590  0.1375 -0.4307
 5340W        W21474  18.303  12.416   4.026  0.0710  0.1781 -0.2481
 5341W        W21475   3.825  11.800  10.853 -0.0975  0.0674 -0.3132
 5342W        W21476   0.510   8.458  12.778  0.0060  0.1318  0.0116
 5343W        W21477   6.864  12.122   0.181 -0.0314 -0.0807 -0.1285
 5344W        W21478  16.955   8.354   1.083 -0.1276 -0.0125 -0.0853
 5345W        W21479   6.514   5.392   2.457 -0.0001 -0.0708  0.1395
 5346W        W21480   0.422   2.793  13.150  0.1810 -0.0530 -0.0157
 5347W        W21481   0.375  12.147  11.319 -0.2088  0.1916  0.1202
 5348W        W21482   7.412  17.644  11.443 -0.1447 -0.2126 -0.4159
 5349W        W21483  10.769   3.651   5.520 -0.0750  0.0637 -0.3121
 5350W        W21484  16.965  10.640   2.617  0.1199 -0.1266  0.0324
 5351W        W21485  16.932   7.364   2.598 -0.1859 -0.0606  0.0500
 5352W        W21486  12.064  17.128  11.180  0.3044 -0.1703  0.0217
 5353W        W21487  12.748   6.871   4.257 -0.1734  0.2163 -0.0724
 5354W        W21488  17.064   8.268  12.337 -0.1690  0.0043  0.0505
 5355W        W21489   4.436   8.356   2.354  0.1581 -0.0606  0.1104
 5356W        W21490  17.444  12.189  15.308 -0.3956  0.0149 -0.5212
 5357W        W21491  11.607   6.427   4.356  0.2913 -0.0396 -0.1758
 5358W        W21492  12.588   6.699   9.748  0.1157 -0.0712  0.1268
 5359W        W21493  13.015   7.970  11.653 -0.0664 -0.2823 -0.0531
 5360W        W21494   6.347   9.884  15.021  0.1570 -0.2682 -0.4892
 5361W        W21495  11.240  15.345   0.139  0.1610 -0.0849 -0.0215
 5362W        W21496   5.090   0.078   2.453  0.3782  0.0836 -0.1159
 5363W        W21497  11.088   3.617   2.859  0.1056  0.0892 -0.1049
 5364W        W21498   0.627   2.585   5.540 -0.1190  0.3373  0.1516
 5365W        W21499   2.761   7.028  12.149  0.1174  0.0373  0.2258
 5366W        W21500   8.023   6.683  12.642  0.1329 -0.1204 -0.0709
 5367W        W21501   4.559   7.823   4.600 -0.0601  0.0034  0.1877
 5368W        W21502  18.043   1.035  12.556  0.1619  0.0911 -0.0529
 5369W        W21503   5.243  17.795  10.685  0.0864 -0.0512 -0.2779
 5370W        W21504  17.623  12.892  11.303  0.1933 -0.0250 -0.1710
 5371W        W21505   0.512  13.218   4.353 -0.0032 -0.1032 -0.0523
 5372W        W21506   1.937  13.976   2.474  0.0468  0.1104  0.1635
 5373W        W21507   6.738  11.953   2.321 -0.0856 -0.0311  0.1090
 5374W        W21508   6.717  12.837  13.642  0.2231  0.1179  0.0225
 5375W        W21509   2.421   1.103   5.070 -0.1587 -0.1102  0.1340
 5376W        W21510   8.358   2.819  12.132 -0.0494  0.2384 -0.0127
 5377W        W21511  10.011   8.392   2.347 -0.4458  0.1614 -0.0566
 5378W        W21512   1.585   6.023   1.156 -0.2683  0.0559 -0.0399
 5379W        W21513  10.453  12.265  12.571 -0.2040 -0.2993  0.1244
 5380W        W21514   0.592  12.875   1.939  0.0358 -0.1367 -0.0875
 5381W        W21515   3.870   1.034  12.695  0.1495  0.2449  0.2657
 5382W        W21516   7.532  15.331  12.079 -0.0253  0.0662  0.1934
 5383W        W21517  15.821   2.478  14.774  0.1434  0.1736  0.5051
 5384W        W21518   0.884  10.027   5.009  0.0626 -0.0248  0.0552
 5385W        W21519   1.357  10.990   5.972 -0.0684  0.1104 -0.3642
 5386W        W21520   0.332   6.653  13.248 -0.0854  0.1484 -0.1709
 5387W        W21521   4.357   8.495  11.177 -0.0882  0.2476 -0.0416
 5388W        W21522   2.223   5.146   4.431  0.1826 -0.0609  0.3838
 5389W        W21523   7.716   8.810   5.893  0.0335  0.2585 -0.2175
 5390W        W21524  17.119   0.441   2.443  0.1574 -0.1497  0.0251
 5391W        W21525   5.751   7.315   0.765  0.1575  0.1666  0.1168
 5392W        W21526  10.032  11.747  14.690  0.1798 -0.0554  0.1992
 5393W        W21527  12.965  13.358   2.057 -0.1819  0.1007  0.0736
 5394W        W21528  15.693  12.477   2.501 -0.0527  0.0736  0.3566
 5395W        W21529   8.352  17.054   1.868 -0.0299  0.1276 -0.3176
 5396W        W21530  14.405   1.512  13.963 -0.2702 -0.0406  0.3805
 5397W        W21531  10.937   5.813   2.342  0.0111  0.0817  0.1030
 5398W        W21532   6.010  11.129  13.738 -0.0265 -0.3450  0.2608
 5399W        W21533  14.549  17.544  12.402  0.0091  0.0163 -0.0120
 5400W        W21534   8.459   2.814   0.948 -0.0615  0.0531 -0.1982
 5401W        W21535   7.616  12.523   2.596  0.0992 -0.2586  0.1603
 5402W        W21536  13.026   0.377  14.965 -0.0548 -0.0288 -0.3217
 5403W        W21537   6.645  10.800  12.680 -0.1279 -0.1699 -0.0179
 5404W        W21538  14.471   5.772  12.447  0.1257  0.0527  0.0354
 5405W        W21539  12.477   8.863  11.487  0.1572 -0.1280 -0.0814
 5406W        W21540  18.089  14.007  14.016  0.0151  0.4818  0.0762
 5407W        W21541   3.120  11.511  13.182 -0.2424 -0.0749 -0.0091
 5408W        W21542   7.997   0.638  12.623  0.2490 -0.2973  0.0059
 5409W        W21543   2.178  18.671   2.549 -0.1031 -0.0924  0.0652
 5410W        W21544  17.790  16.663   0.552  0.0678 -0.1885  0.0620
 5411W        W21545  14.161  13.942   1.722  0.2491 -0.1136 -0.3596
 5412W        W21546  13.451   9.168  11.163 -0.1560  0.2418 -0.2412
 5413W        W21547   8.535   4.191  11.348 -0.0071 -0.3885 -0.2935
 5414W        W21548   1.550  13.660  13.067  0.4402 -0.0379 -0.0389
 5415W        W21549   0.018   3.011   4.433  0.3998 -0.3186 -0.0443
 5416W        W21550   5.486  14.802  13.686 -0.0802  0.0383 -0.0782
 5417W        W21551  11.887  18.059   1.654 -0.4615  0.5101  0.1623
 5418W        W21552  10.532   5.698  15.188  0.0842 -0.1993 -0.2098
 5419W        W21553   4.499   6.064  15.026 -0.2006  0.2021  0.1614
 5420W        W21554  14.616  12.004   1.118 -0.0109 -0.2922 -0.1255
 5421W        W21555   1.204  10.905   1.458  0.4521 -0.3151  0.2398
 5422W        W21556   0.969  12.719  13.368 -0.1647  0.3895 -0.2096
 5423W        W21557   5.048  12.506   3.154 -0.0075  0.2810  0.1996
 5424W        W21558  15.344   5.921  12.248  0.1156  0.2499  0.3104
 5425W        W21559  17.809  11.072  14.876 -0.1323 -0.0180  0.0241
 5426W        W21560  11.901  17.688   1.303  0.1394  0.1920  0.1529
 5427W        W21561  10.439  10.155   2.892  0.1242 -0.3259 -0.3011
 5428W        W21562  12.556   6.586  10.649 -0.3698 -0.4026 -0.1516
 5429W        W21563  11.526   1.498   4.266 -0.1148  0.2077  0.0543
 5430W        W21564   0.050  16.571   3.303 -0.0849 -0.1853 -0.1132
 5431W        W21565   5.661   0.236   3.378 -0.0684  0.1151  0.0430
 5432W        W21566   7.933   1.253  13.868 -0.2132  0.1950 -0.1350
 5433W        W21567   5.467  10.949   2.772  0.0104  0.3069  0.0892
 5434W        W21568   7.875   9.549  13.639  0.1326  0.1376  0.0959
 5435W        W21569  16.231   4.236  15.560  0.0055  0.0735 -0.0678
 5436W        W21570   9.596  10.834   3.108  0.0528 -0.1781  0.2030
 5437W        W21571   5.688  16.392  14.553  0.0106 -0.0005  0.2028
 5438W        W21572   4.381  13.678  13.733 -0.2795  0.0054  0.0465
 5439W        W21573   9.133   5.459   3.815  0.0568 -0.5488  0.2180
 5440W        W21574   1.617  10.319   4.960  0.2103  0.2083 -0.2876
 5441W        W21575  18.386  13.932   1.268  0.1868 -0.2544  0.1217
 5442W        W21576   7.034   9.939   1.978 -0.1626 -0.0436  0.0215
 5443W        W21577  10.610  13.338  12.315  0.1192  0.0821 -0.2144
 5444W        W21578   7.394  10.860  11.754 -0.1829 -0.1149 -0.0598
 5445W        W21579   5.670  12.373   2.177  0.2185 -0.2244  0.1133
 5446W        W21580  17.501   5.580   2.124 -0.0562  0.1506  0.1313
 5447W        W21581   3.606  17.226   3.875  0.0358 -0.4102 -0.1359
 5448W        W21582   0.847  15.379   0.375 -0.1478  0.3815 -0.5387
 5449W        W21583  15.011   7.746   2.400 -0.3086  0.0785  0.0500
 5450W        W21584   9.280  17.844   4.907  0.3336  0.0966 -0.4114
 5451W        W21585  10.346   9.097   3.582 -0.0534 -0.0869  0.1063
 5452W        W21586  11.039   2.823  11.382 -0.2624  0.0599  0.2596
 5453W        W21587   4.843   7.517  13.589  0.1042  0.2135  0.0816
 5454W        W21588  14.993  12.854  10.611 -0.1836 -0.1682  0.0651
 5455W        W21589  18.436   7.398   4.262 -0.0578  0.2086  0.0423
 5456W        W21590   1.264  13.926  13.808  0.0568 -0.3190 -0.4143
 5457W        W21591  11.501  15.349   2.220  0.4962  0.0060  0.4561
 5458W        W21592  18.087  11.868   4.865 -0.1692  0.1753  0.0781
 5459W        W21593   5.094   8.014  12.977 -0.0791  0.0633 -0.2831
 5460W        W21594   8.361   4.252   4.151 -0.1065 -0.1371  0.2090
 5461W        W21595   3.349   2.502   4.067 -0.2993  0.1400  0.1768
 5462W        W21596  16.212  14.557   2.207  0.0775 -0.4246 -0.1183
 5463W        W21597   1.371  16.208  12.935  0.0166  0.3179 -0.1673
 5464W        W21598  18.164  11.072   0.253 -0.1413  0.3095 -0.2717
 5465W        W21599  13.447  10.738  14.474 -0.1797  0.0141 -0.0314
 5466W        W21600  15.970  10.245   3.587 -0.0423 -0.2026 -0.0203
 5467W        W21601  16.372   6.666   4.602  0.2346 -0.0090  0.0937
 5468W        W21602   8.794   4.674  15.519  0.4216 -0.0115 -0.3098
 5469W        W21603   7.198   6.039  14.954 -0.1509  0.0857 -0.1352
 5470W        W21604   3.551   2.134  12.508  0.0884  0.0939  0.1133
 5471W        W21605   0.061   4.872  11.418  0.0295  0.0488  0.0623
 5472W        W21606  12.870   3.641  13.715  0.0886 -0.0750 -0.0743
 5473W        W21607   5.669   4.413   5.560 -0.0073 -0.3836  0.1912
 5474W        W21608  15.705   1.527  14.188 -0.0428 -0.0263  0.2932
 5475W        W21609   3.140   4.758  12.616 -0.2434  0.3306  0.0366
 5476W        W21610   2.461   6.856   4.384  0.0410  0.1166  0.1507
 5477W        W21611  15.422   6.482   5.775  0.0197 -0.0757  0.0628
 5478W        W21612  16.243   0.064   1.549 -0.0140 -0.2527 -0.0204
 5479W        W21613  16.378   0.314   3.463 -0.0048  0.0587 -0.0494
 5480W        W21614   6.250  11.067  10.944 -0.1369 -0.2292  0.0835
 5481W        W21615   1.326   8.403   5.240  0.4675  0.0183 -0.2073
 5482W        W21616  12.808  18.561   2.051  0.0691 -0.3282  0.0107
 5483W        W21617  10.389  10.086   1.824 -0.0053  0.2469  0.0925
 5484W        W21618  17.948  11.610   1.696  0.0587  0.0498 -0.1348
 5485W        W21619   3.299   5.586   4.649  0.0094  0.1150  0.0393
 5486W        W21620   9.302   1.391   1.027  0.0413 -0.0959  0.1613
 5487W        W21621   6.592   0.983   3.547  0.1390  0.4621 -0.0051
 5488W        W21622   5.745  16.956  10.466  0.2357  0.0185 -0.0058
 5489W        W21623   7.006   3.745   0.811 -0.1654  0.0804 -0.2239
 5490W        W21624   7.188   5.834  11.681  0.0806 -0.0278  0.0069
 5491W        W21625   5.619   1.961  14.139 -0.0056  0.2192 -0.1076
 5492W        W21626   8.148   1.646  10.937  0.2082  0.0263 -0.1057
 5493W        W21627  16.113  14.381  10.738 -0.0578 -0.2668 -0.1035
 5494W        W21628   4.738  10.336   0.587 -0.3749 -0.2844  0.0579
 5495W        W21629   1.414  14.727  12.319 -0.2717 -0.0674 -0.0512
 5496W        W21630  11.346   5.066   1.919 -0.5301 -0.2170 -0.1988
 5497W        W21631  17.738   3.868   0.463 -0.1284  0.0042  0.1339
 5498W        W21632  16.869  11.454   1.924  0.4301 -0.2665 -0.1591
 5499W        W21633  13.132  14.439   2.510  0.0556 -0.1285 -0.2217
 5500W        W21634  14.439   1.854  12.213 -0.0619 -0.0752 -0.2659
 5501W        W21635  18.580   8.628   0.457  0.3825 -0.0128 -0.0467
 5502W        W21636   0.963   1.078   4.890  0.0312  0.1063 -0.0484
 5503W        W21637  16.780   1.925   4.690  0.1149 -0.0201  0.3230
 5504W        W21638  10.724   6.200  12.175  0.2755 -0.0660 -0.1915
 5505W        W21639  15.806  13.647   4.746  0.1009 -0.1339 -0.0220
 5506W        W21640   8.544   7.597   3.272  0.0336 -0.1830 -0.2303
 5507W        W21641  10.104  18.591   1.564 -0.2327  0.3345  0.1849
 5508W        W21642   5.251  15.495   2.935  0.3040  0.0802  0.1187
 5509W        W21643   3.205  14.159  10.579 -0.1237 -0.0876  0.0560
 5510W        W21644   2.484   9.821   4.351 -0.1308  0.0574 -0.0402
 5511W        W21645   1.871   7.179   4.766  0.0384 -0.2551  0.0812
 5512W        W21646   4.806   3.356   5.220 -0.0437 -0.1894  0.3134
 5513W        W21647   4.172   3.274   4.914 -0.0528  0.0430  0.0204
 5514W        W21648   5.053   2.479  12.862  0.0709  0.2832 -0.1386
 5515W        W21649  17.539   3.305  11.172  0.1342  0.0034 -0.1342
 5516W        W21650  18.397  12.965   4.050  0.0179  0.0203  0.2660
 5517W        W21651  10.928   8.762   1.900 -0.0353  0.1971  0.2798
 5518W        W21652  15.328  16.200  12.411  0.0516  0.0233  0.0407
 5519W        W21653   6.980  13.094   3.230  0.0243  0.1171  0.2056
 5520W        W21654   3.894   1.646  14.448 -0.0202 -0.0794 -0.1778
 5521W        W21655   6.546   9.721   4.500  0.2339 -0.2475  0.1154
 5522W        W21656  16.074   5.774   2.004  0.1170  0.3848 -0.0688
 5523W        W21657   8.718  13.413  12.757  0.2007 -0.1792 -0.1196
 5524W        W21658   9.828   9.651  14.389  0.1093 -0.4063  0.1023
 5525W        W21659  15.748   1.165   0.568 -0.0717 -0.1495  0.0699
 5526W        W21660   1.267   4.464   5.074 -0.0962 -0.2334 -0.0326
 5527W        W21661  15.507  12.538  13.099 -0.1224  0.2034  0.0323
 5528W        W21662   0.273   1.337   0.097  0.1310  0.2812 -0.1582
 5529W        W21663  13.624  13.092   3.231  0.2300 -0.1310  0.1033
 5530W        W21664   3.703   6.207  13.841 -0.0673 -0.0087  0.1224
 5531W        W21665  16.061   6.937   3.516 -0.0557  0.1797 -0.0371
 5532W        W21666   2.013  12.160   3.940  0.0855 -0.1936  0.3343
 5533W        W21667   5.550   6.504   5.585  0.1213 -0.1262 -0.1888
 5534W        W21668   9.866  14.556   4.928 -0.3334  0.0518  0.0153
 5535W        W21669   1.081  15.602   2.012 -0.4727  0.0664  0.1281
 5536W        W21670  14.106  15.490   3.249  0.2919  0.2164 -0.2257
 5537W        W21671  10.921  16.787   3.147  0.1163 -0.1799 -0.2881
 5538W        W21672  16.304  15.085  12.710 -0.3216 -0.4709  0.1479
 5539W        W21673   8.696  12.425   1.898  0.1082  0.1715  0.1434
 5540W        W21674   3.890   5.894   3.024 -0.1196 -0.1382 -0.3452
 5541W        W21675  18.185  14.724   3.692 -0.0176  0.0992  0.0542
 5542W        W21676   7.072  11.294   3.236  0.1423 -0.0910 -0.3427
 5543W        W21677  11.171  15.910  11.735  0.1908 -0.1051  0.1980
 5544W        W21678  14.473  17.232   1.166 -0.1534  0.0286 -0.3076
 5545W        W21679   2.919  15.249  13.861 -0.1425 -0.2091 -0.2926
 5546W        W21680  13.829   3.015  11.849 -0.3171  0.1626 -0.0890
 5547W        W21681   0.969  12.905  10.830 -0.0045 -0.1079  0.0850
 5548W        W21682  15.679  12.389  11.773  0.1930 -0.0941 -0.0259
 5549W        W21683  16.351   3.383  12.094 -0.3567 -0.1409 -0.3456
 5550W        W21684   4.121   4.910  12.344 -0.0358  0.2364  0.0774
 5551W        W21685   3.086   5.216   3.828  0.1774  0.0480  0.3155
 5552W        W21686  11.051   6.553  12.394 -0.3646 -0.1409  0.0150
 5553W        W21687   4.154  16.556  14.099 -0.3251  0.0427 -0.1203
 5554W        W21688  13.696  14.174   5.149 -0.1167 -0.0555  0.0406
 5555W        W21689   6.906   6.044  10.050 -0.0501  0.1611 -0.2120
 5556W        W21690   2.809  16.423  15.140  0.4091  0.0654 -0.0677
 5557W        W21691   9.178   1.777  14.969  0.1834  0.1847  0.0652
 5558W        W21692   4.098  13.733   4.328  0.0419 -0.1388  0.0457
 5559W        W21693   6.527  11.059  11.340 -0.0441 -0.0021 -0.0068
 5560W        W21694   0.690   0.087  12.269 -0.1907  0.0668  0.3885
 5561W        W21695  14.609  11.897  12.308 -0.3947  0.0118 -0.0721
 5562W        W21696   9.923  15.892  12.402 -0.1264  0.1052 -0.1669
 5563W        W21697  13.064  11.980   1.421 -0.1259 -0.1223  0.0417
 5564W        W21698  14.582   3.694   2.726 -0.0713 -0.2490 -0.0223
 5565W        W21699  13.147   9.614  12.739 -0.0706 -0.0598 -0.0643
 5566W        W21700  11.524   8.610  14.810 -0.0213  0.0865  0.1297
 5567W        W21701   5.493  16.992   1.203  0.1297 -0.0565  0.3103
 5568W        W21702  12.087  16.004  13.720 -0.5732  0.0253 -0.1026
 5569W        W21703   6.826  13.030   5.787 -0.1106  0.1701  0.0474
 5570W        W21704   4.248  12.352  15.051 -0.0841 -0.0074 -0.0945
 5571W        W21705   6.295   1.787   5.601 -0.2997  0.2164 -0.0537
 5572W        W21706   2.557   2.250   1.933 -0.0496  0.2927 -0.1822
 5573W        W21707  11.481  10.384   5.684 -0.1780  0.1828  0.0728
 5574W        W21708  16.894  15.002   4.942 -0.1340 -0.0370 -0.0835
 5575W        W21709   5.546   8.262   1.532  0.3146  0.2497  0.2549
 5576W        W21710  16.603  12.436   3.649 -0.2504 -0.1335  0.0913
 5577W        W21711   8.951  13.291   1.429 -0.4019 -0.3644 -0.4410
 5578W        W21712   2.126   1.377   0.538 -0.2029 -0.0876 -0.2396
 5579W        W21713   6.455   8.663   0.067 -0.0788  0.1182  0.0424
 5580W        W21714   0.723  17.286   0.766  0.1528  0.0018 -0.0035
 5581W        W21715   6.611   3.755  13.420  0.1482  0.1996  0.0240
 5582W        W21716  17.609  11.276   2.938 -0.1952  0.2131 -0.1877
 5583W        W21717   0.800   6.115   3.957 -0.2235  0.0866 -0.0930
 5584W        W21718  13.246   4.255  11.999  0.0485  0.1193  0.2432
 5585W        W21719   7.036  14.888   1.780 -0.1695 -0.0723 -0.1616
 5586W        W21720   9.783   8.346   2.784 -0.2075  0.0838  0.1553
 5587W        W21721  11.787  17.461   2.091  0.2362 -0.1382 -0.0100
 5588W        W21722  18.311  13.175   5.242 -0.0147 -0.1297  0.1492
 5589W        W21723  11.990  16.026   1.790 -0.0180 -0.1232  0.0578
 5590W        W21724  11.839  14.956   0.580 -0.1457 -0.0515 -0.0590
 5591W        W21725   4.284  11.748  10.535  0.0993  0.0516  0.0977
 5592W        W21726  18.279  15.382   1.062  0.4626  0.3439 -0.0722
 5593W        W21727   8.812   7.534  15.512  0.1734  0.2697 -0.1382
 5594W        W21728  17.395   9.450   0.080 -0.2978 -0.0362 -0.3046
 5595W        W21729  12.663   0.395   2.862  0.0891 -0.0427 -0.1459
 5596W        W21730   2.786   1.274   2.101 -0.0550 -0.0753 -0.1720
 5597W        W21731   0.228   8.729  13.111  0.1663  0.2532 -0.0693
 5598W        W21732   2.479   8.850   4.882 -0.0131  0.1119  0.1345
 5599W        W21733   9.145   8.404  13.370 -0.0936  0.0766 -0.3476
 5600W        W21734  16.217  10.525  13.334 -0.5035  0.1970  0.0638
 5601W        W21735   1.549  17.438   2.902  0.0792  0.0439  0.2739
 5602W        W21736   6.632   1.176   2.876  0.0559 -0.0509 -0.2755
 5603W        W21737  10.641  14.435  13.465 -0.1745  0.1347 -0.1117
 5604W        W21738   8.119  12.056  11.417  0.0263 -0.2673  0.2908
 5605W        W21739   3.391  17.729  12.759 -0.1042 -0.1040 -0.2088
 5606W        W21740   2.756   5.869  14.421 -0.6420  0.0041  0.2833
 5607W        W21741   6.224  13.286  14.727  0.0974 -0.3133  0.0820
 5608W        W21742   4.273   9.862   2.934  0.2655  0.0058 -0.0920
 5609W        W21743   2.789  14.631   4.497 -0.2801  0.1682  0.2486
 5610W        W21744   5.132   7.225  14.845  0.1453  0.2234 -0.0515
 5611W        W21745   3.197   8.003   3.388 -0.1807  0.2469  0.1354
 5612W        W21746   8.959  15.274   3.372 -0.4210  0.1067 -0.1294
 5613W        W21747   1.986   9.090   0.341 -0.0695  0.1053  0.1472
 5614W        W21748   4.037   2.896   4.680 -0.0629 -0.0909  0.0512
 5615W        W21749  10.966   8.450  15.116 -0.0811  0.0885 -0.2107
 5616W        W21750  13.189   2.554   3.205  0.2101  0.1057 -0.0263
 5617W        W21751  11.332  15.247  13.850  0.2037 -0.0998  0.0143
 5618W        W21752  15.217   4.037   2.356  0.0266  0.3173 -0.1010
 5619W        W21753  10.671   2.832  11.068 -0.2286 -0.3782  0.2680
 5620W        W21754   5.606   5.802  11.827 -0.1395 -0.1978 -0.0688
 5621W        W21755   4.082  14.588   3.462  0.0055 -0.1784 -0.0766
 5622W        W21756  16.626  10.668   0.006  0.0945  0.0714 -0.0551
 5623W        W21757   8.108   0.224   1.409  0.0438  0.0164  0.1301
 5624W        W21758  12.086  14.565   2.791  0.3350 -0.1689  0.3886
 5625W        W21759   6.549  14.815   3.188 -0.2423  0.0735 -0.4111
 5626W        W21760   0.971  13.344   4.186 -0.1701 -0.1134 -0.0708
 5627W        W21761   0.290  15.563   1.652 -0.2443  0.1893 -0.0661
 5628W        W21762   5.819   1.977   3.815 -0.0718  0.1464 -0.2108
 5629W        W21763   6.049   8.124  12.950  0.1298  0.2476  0.0286
 5630W        W21764  15.077  17.243   0.211  0.1284  0.0792  0.3473
 5631W        W21765   1.081   6.512  12.472 -0.0548  0.1070 -0.0218
 5632W        W21766  11.221   7.643   2.760  0.2953 -0.0781  0.0142
 5633W        W21767   3.737  16.034   2.820 -0.2067  0.0195  0.0942
 5634W        W21768   1.497   9.815   2.455  0.1417  0.0928  0.0824
 5635W        W21769   8.289  10.316   2.564 -0.2368 -0.0709  0.2249
 5636W        W21770   3.798   1.027  13.798  0.0937  0.4474 -0.0374
 5637W        W21771  15.804  15.745   0.447 -0.0968 -0.2614 -0.2857
 5638W        W21772  15.808  14.789  11.614  0.0254 -0.0834 -0.1962
 5639W        W21773  15.161   2.586   4.269  0.0374  0.0452  0.2116
 5640W        W21774  17.048   1.995  14.729 -0.3014 -0.0388 -0.0425
 5641W        W21775   7.707   4.974  12.116  0.1532  0.1160  0.0415
 5642W        W21776   1.265  15.867  14.435 -0.3229 -0.0943  0.0482
 5643W        W21777   5.431   0.527   4.229  0.0519  0.1750 -0.2274
 5644W        W21778   3.408   9.735   3.254 -0.0354 -0.4046 -0.0039
 5645W        W21779  15.490   3.839  14.655  0.1269  0.1003 -0.0875
 5646W        W21780  10.887  12.331   2.267  0.0195 -0.1033  0.2863
 5647W        W21781   8.379  18.235  13.944 -0.0751 -0.1009  0.1034
 5648W        W21782  12.626   1.585  14.518 -0.2095 -0.1716  0.2760
 5649W        W21783  16.504  15.422  11.716  0.1160 -0.1779  0.0034
 5650W        W21784   5.984  10.933  11.385  0.0982 -0.1543 -0.1122
 5651W        W21785   3.591   1.215   0.970  0.3030 -0.0282 -0.1180
 5652W        W21786  11.044  14.533  11.814  0.2277  0.1870 -0.1248
 5653W        W21787   1.923  12.497  14.885  0.0742 -0.1502  0.1221
 5654W        W21788   3.246  10.726   4.964 -0.0315  0.1830  0.1330
 5655W        W21789  15.467   9.890   0.748  0.2029 -0.3614 -0.1729
 5656W        W21790  18.057  10.427   1.275  0.0067 -0.2727  0.1808
 5657W        W21791  12.647  12.086  12.203  0.3496 -0.0339 -0.0006
 5658W        W21792  11.184  13.596  14.589 -0.0542 -0.1854 -0.0997
 5659W        W21793   4.860  16.599   1.348  0.2356  0.1049  0.3461
 5660W        W21794   1.805   7.956  12.652  0.0663  0.1521 -0.0856
 5661W        W21795   2.467  18.194   3.900 -0.0466  0.4600  0.2170
 5662W        W21796   2.455  18.406  11.905  0.0127  0.0617 -0.0993
 5663W        W21797  17.794  17.132  12.500  0.0565 -0.3975 -0.1838
 5664W        W21798  13.782   7.539   2.658  0.0095  0.2560 -0.0469
 5665W        W21799   5.493  12.216  12.380  0.0487 -0.0232  0.1593
 5666W        W21800   9.119  12.423  14.732  0.1071 -0.1291 -0.0102
 5667W        W21801  16.432   7.020  11.098  0.2411 -0.4210 -0.0214
 5668W        W21802   4.458   2.027  10.767 -0.0858  0.0448  0.1345
 5669W        W21803   3.066   0.559   2.171 -0.0569 -0.0805 -0.2481
 5670W        W21804   5.052   3.940   4.449  0.0367  0.3524  0.0296
 5671W        W21805  12.253  11.665  15.421  0.3140 -0.3563  0.2296
 5672W        W21806  11.959   4.958  14.290  0.1154 -0.1034 -0.3436
 5673W        W21807  15.478  14.031  14.806 -0.1318 -0.2542  0.2266
 5674W        W21808  13.484  13.924   2.968  0.0610  0.1936 -0.1534
 5675W        W21809   0.564  17.776  10.897  0.1375  0.0776  0.0123
 5676W        W21810  12.944   4.716  13.235 -0.2383  0.1552 -0.0266
 5677W        W21811  14.912   9.330   5.390  0.0298 -0.3868  0.0173
 5678W        W21812   9.873   2.159  10.846  0.2098 -0.0392 -0.0132
 5679W        W21813   8.612   6.878  15.497 -0.2988  0.0423 -0.3510
 5680W        W21814  15.256  16.237   9.506  0.2478  0.0283  0.5800
 5681W        W21815   5.404  16.791  13.436  0.1644  0.0449 -0.2243
 5682W        W21816  15.108   3.064   4.152  0.1859 -0.0172  0.0144
 5683W        W21817   5.508  18.699   4.588 -0.5179  0.5329 -0.1513
 5684W        W21818   1.513  12.805   3.807  0.0601 -0.0522 -0.1374
 5685W        W21819  12.967   8.783  11.202 -0.0999  0.0840  0.0164
 5686W        W21820  10.788  10.296  12.139  0.1405  0.1331 -0.0608
 5687W        W21821  17.979   7.008  12.364 -0.1095 -0.0696 -0.1107
 5688W        W21822  15.975   8.251   2.326  0.2208  0.2293 -0.1579
 5689W        W21823  12.004  16.611   0.991 -0.1628  0.2096  0.1672
 5690W        W21824   0.085  12.302   3.223  0.1491 -0.1563 -0.1561
 5691W        W21825   2.410   0.278   3.449  0.0746  0.2186  0.0995
 5692W        W21826  11.630   7.526  10.517  0.0615 -0.0027  0.1118
 5693W        W21827   7.701  16.815   3.042 -0.1094  0.3773 -0.1169
 5694W        W21828  15.626  17.151  11.203 -0.0777 -0.4799 -0.2676
 5695W        W21829  10.788  16.018   0.575  0.1073 -0.1999 -0.2503
 5696W        W21830   7.543   0.188   2.746  0.3207 -0.0346 -0.2387
 5697W        W21831  16.099   3.509  14.708  0.0603 -0.0023  0.0171
 5698W        W21832   4.379  10.219  13.934 -0.0179  0.1256 -0.1695
 5699W        W21833  16.905   7.036   0.952  0.0036 -0.0303 -0.4089
 5700W        W21834   2.871   0.701   1.038 -0.0327 -0.0832  0.1991
 5701W        W21835  15.671   9.703   3.359 -0.1246  0.0879 -0.0559
 5702W        W21836   1.023   6.094   0.277  0.0758  0.2184  0.1196
 5703W        W21837  14.675  16.136   3.939 -0.0623  0.0737 -0.2803
 5704W        W21838   2.324  17.941  12.091 -0.0592  0.2218 -0.1304
 5705W        W21839  13.955  10.565   1.000  0.0948 -0.0129 -0.1613
 5706W        W21840  16.981   6.199  14.773 -0.3462  0.1658  0.2269
 5707W        W21841  14.048  11.185   0.796  0.0494  0.2456  0.1619
 5708W        W21842  17.877   6.053  12.958  0.2646  0.2765 -0.0089
 5709W        W21843   0.112   7.456  13.726  0.0845  0.2659  0.0467
 5710W        W21844   3.274   9.502   2.299 -0.2495 -0.0208  0.1693
 5711W        W21845   5.139   5.929  11.037  0.0053  0.1970 -0.0832
 5712W        W21846   3.540  18.295  15.151  0.3568  0.1513 -0.2826
 5713W        W21847  10.995   1.419  12.982 -0.2432 -0.0528  0.0595
 5714W        W21848   2.163   3.726  15.129  0.0370 -0.0455 -0.2809
 5715W        W21849  14.087   3.205  12.510 -0.1640  0.1360  0.1127
 5716W        W21850  12.950  18.676  13.673 -0.1743  0.2036  0.0932
 5717W        W21851  10.763  10.019  12.594 -0.0454 -0.1269 -0.3166
 5718W        W21852  11.723  12.189   4.187 -0.2470 -0.1187 -0.0523
 5719W        W21853   6.052   1.815   3.400 -0.1372 -0.1676  0.1163
 5720W        W21854   9.825   3.475  13.495 -0.2038 -0.0754 -0.0376
 5721W        W21855  17.636   5.207  10.911  0.1317  0.1816 -0.0150
 5722W        W21856  13.901  14.949  11.437 -0.1604  0.3466  0.0579
 5723W        W21857  10.278   8.680   4.640  0.1046 -0.0871 -0.1625
 5724W        W21858  11.959   9.092   1.774  0.0274 -0.0404 -0.0376
 5725W        W21859   9.093  16.318  12.590 -0.1525 -0.2503  0.1056
 5726W        W21860   9.300   7.914  10.800  0.0248  0.1121 -0.1057
 5727W        W21861   7.362   7.518   2.216 -0.1183  0.0075  0.0689
 5728W        W21862  11.731  18.422   2.401  0.2604  0.1613  0.3039
 5729W        W21863  17.018   9.171  11.782  0.0329 -0.0941  0.0204
 5730W        W21864   1.927  11.211   4.689 -0.1169 -0.0124 -0.2811
 5731W        W21865  11.537   4.221  14.396 -0.0190  0.0601  0.0733
 5732W        W21866   4.210   8.780  14.793 -0.1120  0.1513  0.0145
 5733W        W21867  15.571   1.358  11.750  0.1679  0.0707  0.1868
 5734W        W21868  14.682   7.434  11.429  0.3326 -0.1027  0.3993
 5735W        W21869  18.458   4.870  11.037  0.0781  0.2207  0.0739
 5736W        W21870   1.404   2.431  11.388 -0.1445  0.3103 -0.1800
 5737W        W21871   1.887   0.998   0.855  0.1684 -0.1139 -0.0498
 5738W        W21872  15.231   9.749  13.140 -0.3025 -0.2218  0.3467
 5739W        W21873   7.955   0.678  11.260  0.2500 -0.1519 -0.1770
 5740W        W21874   7.735   5.178   5.320  0.1328 -0.2421 -0.1419
 5741W        W21875   2.204   9.552   1.735  0.1964 -0.2745  0.3211
 5742W        W21876   7.069  18.061   1.132  0.0066  0.3529 -0.0501
 5743W        W21877   9.419  16.677   3.289  0.0428  0.4326  0.2542
 5744W        W21878   5.497   3.796   1.170  0.2663  0.2268 -0.0002
 5745W        W21879   6.321   8.206  13.706 -0.1425 -0.1902 -0.1151
 5746W        W21880   4.688  17.761   2.354  0.0048  0.2671  0.0566
 5747W        W21881   0.405  15.789   3.215 -0.1659  0.0154  0.0825
 5748W        W21882  16.984   4.215  13.546 -0.2889  0.0621  0.0448
 5749W        W21883   7.190  13.142  12.415  0.0845  0.0524 -0.4503
 5750W        W21884   3.686   9.388  13.305  0.0743  0.2277  0.0209
 5751W        W21885  16.367  13.482   5.455 -0.1029 -0.1644  0.0882
 5752W        W21886   1.814  10.708  14.306 -0.0268 -0.1474 -0.0835
 5753W        W21887  13.871  15.602  14.966  0.0083 -0.3165 -0.0480
 5754W        W21888   8.411   7.776  15.466 -0.5421  0.2655  0.4468
 5755W        W21889   0.378   7.525   3.441 -0.2053  0.1416 -0.2044
 5756W        W21890  15.983  18.099   4.028 -0.0922 -0.2966  0.2327
 5757W        W21891  10.247   1.358   2.046 -0.1316 -0.0624 -0.1198
 5758W        W21892  15.830   4.739   2.924 -0.0641 -0.0588  0.1363
 5759W        W21893  14.276  10.109   2.827 -0.1355 -0.1086 -0.0645
 5760W        W21894   8.646  10.343  14.965  0.1165 -0.2252  0.1631
 5761W        W21895  11.601  11.033   3.732 -0.2401  0.1063 -0.4632
 5762W        W21896   7.626  16.545  12.849  0.0005  0.0693 -0.1462
 5763W        W21897   9.433  16.201  10.899  0.0792 -0.1146  0.0884
 5764W        W21898   1.240   8.773  12.378 -0.0581  0.0022 -0.2448
 5765W        W21899   5.016  12.195   5.680  0.1106  0.2532  0.0766
 5766W        W21900   7.210  14.872   2.550  0.2792 -0.2659 -0.0138
 5767W        W21901  10.052  18.213  11.476  0.0132 -0.1464  0.1568
 5768W        W21902  16.928  17.925   0.493  0.2717 -0.0956 -0.0942
 5769W        W21903  11.678   2.094   3.793 -0.2749 -0.0673 -0.1332
 5770W        W21904   1.464   0.720   0.905 -0.2399  0.0439  0.0750
 5771W        W21905  17.211  11.118   4.137  0.2688  0.0038 -0.1515
 5772W        W21906  15.351   2.914  11.828 -0.0593  0.2981  0.1191
 5773W        W21907   3.909   2.515  12.619  0.1621 -0.0224 -0.1155
 5774W        W21908  10.946   2.376  13.808  0.2101 -0.1104 -0.2253
 5775W        W21909  17.441   4.924   2.616 -0.0414  0.2001  0.4440
 5776W        W21910   6.669   8.930   1.884  0.0816  0.1867 -0.2195
 5777W        W21911   7.930  12.954  11.250 -0.1280 -0.0310  0.2325
 5778W        W21912   1.569   0.431  11.314  0.2378 -0.3199 -0.5132
 5779W        W21913   2.295  15.236  12.109  0.2745  0.2150 -0.4956
 5780W        W21914   6.495   2.189  14.489 -0.0316 -0.0423  0.0370
 5781W        W21915  14.774   3.752  10.711  0.0646  0.2032 -0.0935
 5782W        W21916  16.647   7.842  11.212  0.4704  0.2319 -0.0806
 5783W        W21917   1.602  12.698   1.851 -0.0187 -0.2244  0.0313
 5784W        W21918   3.944  16.497   0.290  0.1298 -0.0081  0.0472
 5785W        W21919  11.354  16.134  10.298 -0.2314  0.1839  0.0710
 5786W        W21920  12.484  12.549  11.777  0.1438 -0.0434 -0.0940
 5787W        W21921   6.402  13.018  15.129 -0.0315 -0.3105 -0.1148
 5788W        W21922   1.563   7.454  11.202 -0.3260 -0.0238 -0.3601
 5789W        W21923  12.702  11.488   0.576  0.1302  0.2266 -0.1042
 5790W        W21924  14.081  18.671  12.949  0.1045  0.1023 -0.2018
 5791W        W21925  18.468   5.436   0.912 -0.3498  0.1943  0.3616
 5792W        W21926   4.704   5.179  12.309 -0.0321  0.0075 -0.2404
 5793W        W21927  15.190  11.458  10.376 -0.0954 -0.1296  0.3514
 5794W        W21928   8.847   6.763  13.738 -0.0475  0.1421 -0.0746
 5795W        W21929  17.461  18.677   0.859  0.1047 -0.0133  0.0490
 5796W        W21930   3.249  13.835  10.963 -0.1961  0.1238 -0.0040
 5797W        W21931  13.195   3.039  10.238  0.1193  0.2509  0.1518
 5798W        W21932  10.305  13.605   5.002 -0.0585 -0.1500 -0.2844
 5799W        W21933   2.847  18.149   1.046  0.0633  0.3757 -0.4321
 5800W        W21934   7.986  18.208   3.491  0.1539 -0.1318  0.1128
 5801W        W21935  11.627   8.937   0.121 -0.4452 -0.2139  0.2273
 5802W        W21936   6.238   8.862   0.455 -0.1273  0.1720 -0.1366
 5803W        W21937  14.381   8.172  14.909  0.2739  0.0869  0.1565
 5804W        W21938   6.640  10.012   5.413  0.1056 -0.2359 -0.2638
 5805W        W21939   3.786   0.830   3.338  0.0316 -0.0627 -0.2208
 5806W        W21940  13.627   9.406   1.929 -0.2116 -0.5186 -0.0627
 5807W        W21941  18.682  17.409  13.779  0.0655 -0.0197 -0.0890
 5808W        W21942  12.275  17.264  11.655 -0.1322  0.2481  0.2156
 5809W        W21943  18.150   3.335  11.445  0.3012 -0.0299  0.1034
 5810W        W21944  15.883  10.746   3.128  0.4605  0.0357  0.1105
 5811W        W21945   3.008  14.333   3.294 -0.1535  0.0396  0.0965
 5812W        W21946   3.719   4.549  13.768  0.2912  0.0471 -0.1847
 5813W        W21947  15.543   8.364   4.283  0.1090  0.0064 -0.1685
 5814W        W21948   6.099   8.192  15.417 -0.2428  0.0385  0.1810
 5815W        W21949  16.462   2.693  15.405  0.2905  0.0712 -0.1359
 5816W        W21950   4.261   2.839  10.555  0.1308  0.2031  0.2402
 5817W        W21951   4.057   8.477   0.631  0.1342 -0.0885 -0.2323
 5818W        W21952  16.788  16.620   1.195  0.1938 -0.0788 -0.1974
 5819W        W21953   8.683   3.643   5.272 -0.1927  0.1093 -0.0370
 5820W        W21954  15.142  16.853  14.525 -0.0974  0.4516  0.1495
 5821W        W21955   1.129  13.077  12.456 -0.1444 -0.2077 -0.1175
 5822W        W21956   1.228   4.445  11.987 -0.2328  0.1140  0.1386
 5823W        W21957   8.814   5.494  11.303 -0.0854  0.1287  0.1948
 5824W        W21958   4.247  11.940   0.065 -0.1501 -0.0427 -0.1796
 5825W        W21959   5.508   2.072   0.736  0.0299 -0.0866 -0.2849
 5826W        W21960   2.041  15.802   3.798  0.2063 -0.1220  0.0238
 5827W        W21961   6.168   0.215   5.126  0.0884 -0.4105 -0.0890
 5828W        W21962  15.909   6.556   4.478  0.0185 -0.1109  0.1720
 5829W        W21963  13.271  15.240  12.202 -0.2557 -0.3219  0.0825
 5830W        W21964  15.433   1.749  12.128 -0.3580 -0.0527 -0.0388
 5831W        W21965   0.658  14.031   4.566 -0.2091 -0.1269 -0.3605
 5832W        W21966   0.774  11.201   0.306  0.0418  0.2843 -0.2857
 5833W        W21967  12.277   3.103  11.753  0.0373  0.0166 -0.1956
 5834W        W21968   6.280   3.600   5.760 -0.3017  0.1100 -0.1405
 5835W        W21969  17.898  12.428  13.577  0.1334 -0.1238  0.0294
 5836W        W21970  17.060  17.636  10.364  0.0100 -0.1482  0.0571
 5837W        W21971   1.777   9.971  12.862 -0.1031  0.1219 -0.0360
 5838W        W21972  16.539  18.191   0.732 -0.2994 -0.2389  0.3376
 5839W        W21973  13.040   9.716   3.500  0.0844 -0.1662  0.0849
 5840W        W21974   1.022   1.025  14.317 -0.2028  0.1099 -0.1273
 5841W        W21975   0.876   4.809   2.693 -0.2039  0.2596  0.1777
 5842W        W21976  13.016  17.441   3.583  0.0093  0.0280  0.1412
 5843W        W21977   6.884   9.640   9.853 -0.0232  0.3642 -0.0825
 5844W        W21978   8.309   0.264  15.046  0.1164  0.1486  0.0103
 5845W        W21979   5.901  12.354  14.733  0.0120 -0.1329 -0.3588
 5846W        W21980  15.742  13.744  13.085 -0.2281  0.0321 -0.0703
 5847W        W21981  16.564  14.693   0.359 -0.1395  0.1539 -0.0339
 5848W        W21982   4.247   1.688   2.458  0.0936 -0.2255  0.2412
 5849W        W21983   6.231  17.332   2.193  0.1818 -0.0962 -0.2374
 5850W        W21984  16.554  12.856  13.263 -0.0219 -0.1201 -0.0157
 5851W        W21985   8.454   3.345  15.463  0.0270  0.2224  0.0498
 5852W        W21986  16.870  10.752   4.343 -0.0989 -0.0124 -0.1398
 5853W        W21987  15.845  10.543   4.509  0.3893  0.3354  0.1429
 5854W        W21988   2.109   0.405   0.286 -0.2452 -0.1512 -0.2803
 5855W        W21989   3.793  14.876  13.512 -0.0366  0.1219  0.1340
 5856W        W21990   4.382   4.480   4.374  0.1381 -0.1083  0.1370
 5857W        W21991   8.300   1.672  13.903  0.1958  0.1657 -0.1512
 5858W        W21992   9.048   6.108  11.876  0.0786 -0.0733  0.1328
 5859W        W21993  18.165   3.251   5.111 -0.0956 -0.0042 -0.0582
 5860W        W21994   3.867   3.630   4.130  0.2071  0.1678  0.0511
 5861W        W21995  14.342   7.018  14.273  0.0523 -0.0065 -0.0252
 5862W        W21996   7.501  18.613   3.500  0.3397 -0.1684  0.1560
 5863W        W21997   4.876  11.660  15.169 -0.0871  0.0323  0.1018
 5864W        W21998  13.168   5.286   1.463 -0.3117  0.2277 -0.0732
 5865W        W21999  15.092  14.828  13.840  0.1544 -0.2364  0.4364
 5866W        W22000  12.580   3.227  14.268  0.0512  0.0277 -0.1653
 5867W        W22001   8.137   8.381   3.663 -0.0507  0.3734 -0.0358
 5868W        W22002   6.726   9.565  15.302  0.2942 -0.1440  0.1332
 5869W        W22003   1.178   3.762   1.407  0.3116 -0.0559  0.0817
 5870W        W22004  13.589   4.359  14.853  0.1903  0.0147 -0.0291
 5871W        W22005   1.191   1.507  11.828 -0.0893 -0.0199  0.0867
 5872W        W22006  14.750   9.934   2.925 -0.1310  0.1303  0.0871
 5873W        W22007  12.461   8.994   4.679  0.2153  0.0493 -0.0897
 5874W        W22008  18.642   9.666   2.264 -0.2669  0.1952 -0.0420
 5875W        W22009  13.673   4.669  10.832 -0.1143 -0.0989 -0.4908
 5876W        W22010   0.560   1.670  12.864  0.3281  0.4558 -0.2409
 5877W        W22011  15.429   3.091  10.754 -0.0847  0.0838 -0.0915
 5878W        W22012  18.141  15.224  13.412 -0.3007 -0.0392 -0.0160
 5879W        W22013  12.046  13.526   1.912  0.3693  0.0497 -0.1925
 5880W        W22014  13.825   6.661  13.421 -0.0206  0.1295  0.1337
 5881W        W22015   9.127   3.355   4.536  0.0345  0.2835 -0.1235
 5882W        W22016   9.856   3.174  11.492  0.1849 -0.2346 -0.2333
 5883W        W22017   5.133   8.269  12.451  0.1939  0.1740 -0.0358
 5884W        W22018   1.004   1.755  10.669 -0.0389 -0.1119 -0.0776
 5885W        W22019   9.518   3.679  15.369 -0.0843 -0.1215 -0.0067
 5886W        W22020   7.211   1.598   2.360  0.3024 -0.0270 -0.1184
 5887W        W22021   2.914   8.839  11.944 -0.1316  0.1219  0.1555
 5888W        W22022  17.497  18.170   1.505  0.0691  0.0493  0.0301
 5889W        W22023   0.436  10.278   3.646  0.0941  0.1700 -0.0533
 5890W        W22024   9.118  15.193   0.958 -0.1223  0.0233 -0.2160
 5891W        W22025  11.520   7.783   9.686  0.1231  0.2409 -0.0754
 5892W        W22026   6.472   8.027  13.245 -0.2600 -0.1738  0.1971
 5893W        W22027  16.637   1.981   2.532  0.0159 -0.0190 -0.1725
 5894W        W22028  17.172  15.804   0.061  0.0801 -0.0534 -0.2125
 5895W        W22029  11.124   5.811   0.245  0.2685  0.2471  0.1838
 5896W        W22030  16.903   9.853   3.580 -0.0888 -0.1107  0.3063
 5897W        W22031  13.361  11.606   4.812  0.1813  0.2310  0.1110
 5898W        W22032   2.385   0.607   1.182 -0.0198  0.3049  0.0911
 5899W        W22033   5.896  13.258  11.811 -0.1189  0.0903 -0.1113
 5900W        W22034   2.737   0.666   2.955  0.2172  0.0333  0.2273
 5901W        W22035  10.533  17.816   2.820  0.0320  0.1548 -0.0200
 5902W        W22036   1.247  10.396   5.780  0.0031 -0.1890  0.2993
 5903W        W22037   0.783  17.515   4.652  0.0459 -0.2445  0.0019
 5904W        W22038  12.399   0.044   1.754  0.2149 -0.1356  0.1020
 5905W        W22039  17.953   3.883  12.662  0.3698  0.2654  0.2073
 5906W        W22040  18.579   1.897   1.470  0.0128 -0.1955  0.0139
 5907W        W22041  12.293  17.182  13.945  0.3778  0.0385  0.0678
 5908W        W22042   5.625  12.390   4.988  0.2614  0.2729  0.1823
 5909W        W22043   5.664   3.597   5.530 -0.0482 -0.4846  0.2725
 5910W        W22044   8.319   9.978  11.888  0.0833  0.1897 -0.2143
 5911W        W22045   9.795   4.260   3.987 -0.1115 -0.2675 -0.0590
 5912W        W22046  14.903  11.692   0.887  0.0105 -0.2278 -0.0949
 5913W        W22047   9.525  13.624  10.870 -0.0981  0.1418 -0.2929
 5914W        W22048   6.471   8.400   0.514  0.0929 -0.0067  0.1186
 5915W        W22049  10.169   1.814  11.713 -0.4458  0.2090  0.0368
 5916W        W22050   2.750  15.895  10.732  0.2469 -0.0318  0.1969
 5917W        W22051   5.712   9.257  11.778  0.1702 -0.1144  0.1360
 5918W        W22052   7.761   0.599  11.973  0.2118  0.2146 -0.1703
 5919W        W22053  16.649   3.669   3.862 -0.0547  0.0708 -0.2855
 5920W        W22054  16.928   8.621  14.884  0.1178  0.0468  0.1658
 5921W        W22055  16.785   8.967   4.957 -0.0124  0.0532  0.0136
 5922W        W22056   4.562   2.113  12.434  0.1935 -0.1291  0.0025
 5923W        W22057   1.304   1.240   0.959 -0.3927  0.0894 -0.4809
 5924W        W22058   6.780   4.083   4.373 -0.1577 -0.1406  0.1436
 5925W        W22059   2.765   9.562  12.945  0.1671 -0.2964  0.1000
 5926W        W22060   4.712   4.035   2.117 -0.0873 -0.1450 -0.1268
 5927W        W22061   2.238   6.116  14.718 -0.1088  0.0456  0.2670
 5928W        W22062   2.748   4.836   3.691 -0.0698  0.0344 -0.3511
 5929W        W22063  15.743   7.040   0.825 -0.0667 -0.0516 -0.0335
 5930W        W22064   6.022   9.984  13.442  0.1325 -0.1092 -0.1623
 5931W        W22065   5.562   1.019   5.393 -0.0758  0.0198  0.4159
 5932W        W22066   6.111   5.052   1.593 -0.2297 -0.2330  0.3095
 5933W        W22067  13.610  15.950  13.555 -0.1555 -0.3703 -0.2307
 5934W        W22068  17.363   6.882  11.725  0.2458 -0.2516 -0.0518
 5935W        W22069   8.904  16.800   1.204  0.2273 -0.1263  0.1391
 5936W        W22070   6.684  13.087  12.832 -0.2146  0.0621 -0.0864
 5937W        W22071  14.374   0.980  14.048  0.2557  0.0263  0.0830
 5938W        W22072  10.241  12.770  14.548  0.1115 -0.0302 -0.0817
 5939W        W22073   6.411  12.795  11.190  0.2616  0.1243 -0.0907
 5940W        W22074   7.291  10.772   0.489  0.0216  0.1505 -0.1621
 5941W        W22075   6.815   2.580  10.659 -0.1955 -0.2181 -0.2075
 5942W        W22076  14.678   3.004  11.110 -0.0246 -0.1749  0.3324
 5943W        W22077   0.484  12.934  12.958 -0.0427 -0.0237  0.0659
 5944W        W22078  15.301   1.144   3.221  0.0206  0.1828  0.0319
 5945W        W22079  14.594  12.949  13.467 -0.2774 -0.1973  0.0489
 5946W        W22080   8.845   0.124   3.257 -0.2381  0.3274  0.3473
 5947W        W22081  15.526   6.424   1.321  0.1751 -0.1383 -0.1374
 5948W        W22082   4.904   5.809   0.351  0.0547  0.0198  0.3096
 5949W        W22083  11.554   7.686   3.127 -0.4098  0.0978 -0.0147
 5950W        W22084  10.361   8.289   2.786 -0.0210 -0.1377  0.0467
 5951W        W22085   7.584   2.656  13.588 -0.0112 -0.2516  0.0628
 5952W        W22086   7.309   3.777   3.498 -0.0720 -0.2622  0.2516
 5953W        W22087  11.551   7.978   2.564  0.2633 -0.3731  0.1195
 5954W        W22088  16.182   3.943   3.850 -0.2018  0.1738  0.0324
 5955W        W22089   5.506  14.472  12.156  0.0298 -0.0979 -0.0104
 5956W        W22090   6.787  18.652   3.247  0.2155  0.0709  0.6372
 5957W        W22091  15.351   1.966  13.948 -0.0774  0.0552  0.3248
 5958W        W22092   8.272   7.739  12.418 -0.0576 -0.4334 -0.2800
 5959W        W22093   2.707  14.807  11.759  0.0710 -0.0673  0.2331
 5960W        W22094   5.612  14.858   0.135  0.0412 -0.0416 -0.0342
 5961W        W22095   3.448   2.422   2.527 -0.2741 -0.1003 -0.1563
 5962W        W22096   0.299   9.470  14.749  0.3343  0.1136  0.2685
 5963W        W22097   9.497  15.309   4.256 -0.3974 -0.0152 -0.2722
 5964W        W22098   8.690   4.694  14.035 -0.0729 -0.0536  0.1666
 5965W        W22099   5.472   2.491  13.130  0.2322  0.1191  0.1118
 5966W        W22100  13.055  15.088  15.040 -0.1935  0.0349  0.1191
 5967W        W22101   4.568  12.865  15.547  0.1720 -0.1784  0.1248
 5968W        W22102   7.331   7.173  11.470  0.1350 -0.0430  0.0692
 5969W        W22103  15.415  17.063  13.922  0.4255 -0.3538  0.0059
 5970W        W22104   5.230   4.885   2.134  0.0673 -0.0340  0.0395
 5971W        W22105  11.370  12.816  15.238 -0.1903 -0.0231  0.1207
 5972W        W22106   7.440   4.970  13.592 -0.0684 -0.1601 -0.1018
 5973W        W22107  18.153   4.374  11.492 -0.1290 -0.2054 -0.0092
 5974W        W22108   9.745  10.823   1.503 -0.0320 -0.0933 -0.2218
 5975W        W22109  17.552   4.444   2.443 -0.2200 -0.0034  0.1341
 5976W        W22110  16.027  10.235   1.713  0.2076 -0.0660  0.0603
 5977W        W22111   3.540   8.506   2.637  0.0545 -0.1625  0.0194
 5978W        W22112   4.126   0.722   9.815  0.2014  0.3921  0.2047
 5979W        W22113  15.152   7.023  12.920  0.3426  0.1662 -0.1203
 5980W        W22114   4.854   4.566   2.935  0.2020  0.0133  0.0287
 5981W        W22115  12.137  12.108   0.786  0.3633  0.0091 -0.0747
 5982W        W22116   1.959  13.469  15.524  0.3278  0.3129 -0.1232
 5983W        W22117   2.537   4.200  14.317 -0.1716 -0.2360 -0.0070
 5984W        W22118  15.883   8.969  15.199 -0.2197 -0.2114 -0.0284
 5985W        W22119  15.206  16.503   5.179  0.0788  0.0027 -0.1371
 5986W        W22120  10.764  17.962   0.632  0.3515 -0.0468 -0.1251
 5987W        W22121  17.283   0.312  11.076  0.0443 -0.2592  0.0311
 5988W        W22122  17.784  10.545   2.192  0.1412 -0.3515  0.1590
 5989W        W22123   0.364   9.349   4.898 -0.2273 -0.0260  0.1491
 5990W        W22124  11.005   7.818   3.145 -0.0181  0.1863 -0.3111
 5991W        W22125   7.808   9.009   4.943  0.0679 -0.1172  0.0663
 5992W        W22126  18.497   1.497   2.598 -0.2938 -0.2122  0.1225
 5993W        W22127  10.498  15.052   4.366  0.2402 -0.1995  0.2912
 5994W        W22128  17.739   3.219   4.353  0.0054 -0.1930 -0.4934
 5995W        W22129  12.039   2.832   0.851  0.0496  0.0794 -0.1883
 5996W        W22130  15.675  15.424   1.559 -0.1142 -0.0613 -0.0764
 5997W        W22131   4.302   7.705   0.349  0.0985 -0.0854  0.0807
 5998W        W22132   9.047   7.129  11.456 -0.2610  0.1130 -0.1381
 5999W        W22133   5.577  10.779  15.181  0.0005  0.0889 -0.2301
 6000W        W22134   4.147  15.241   1.238 -0.1171 -0.1571 -0.3224
 6001W        W22135   2.966   5.248  12.645 -0.3565  0.0868 -0.0825
 6002W        W22136   3.188   6.949   1.837 -0.3637 -0.0205  0.0583
 6003W        W22137  13.503  12.227  12.188  0.1360 -0.1563 -0.4150
 6004W        W22138  18.338   2.501   2.982 -0.1790  0.4856 -0.0600
 6005W        W22139  14.715   3.884   3.203 -0.1102 -0.1704  0.1068
 6006W        W22140   9.439  18.321   2.130  0.2012  0.1873 -0.0524
 6007W        W22141   8.862  15.053  15.017 -0.3784  0.2046  0.1086
 6008W        W22142  16.160   7.857  13.979  0.0452 -0.0430  0.0612
 6009W        W22143   9.026   8.889   3.424  0.0996  0.0851  0.2462
 6010W        W22144   4.598  11.482   2.393  0.1037 -0.1280  0.0121
 6011W        W22145   9.474  11.044  11.693  0.1373 -0.0403  0.0643
 6012W        W22146   7.632  14.119   2.734  0.3022  0.2034 -0.1214
 6013W        W22147   6.004  12.364   3.444  0.0806 -0.2818 -0.0205
 6014W        W22148  10.368  16.073  15.473 -0.0214  0.2951 -0.0029
 6015W        W22149   0.385   3.608  11.266  0.1163 -0.1729  0.1304
 6016W        W22150   9.201   9.092   4.855 -0.0793  0.2131 -0.3430
 6017W        W22151  16.594  15.890  13.076 -0.1186  0.3011 -0.1488
 6018W        W22152  10.377   8.499   0.302  0.0405  0.1452 -0.2677
 6019W        W22153  18.095  17.431   4.895 -0.0315 -0.1874 -0.0942
 6020W        W22154  17.465   4.639   5.121 -0.3373  0.0650 -0.0068
 6021W        W22155   3.486   8.216   0.653 -0.3806  0.0996 -0.0473
 6022W        W22156   4.051  17.776   9.936 -0.1212  0.1122  0.0258
 6023W        W22157  13.507   9.501  15.171  0.0683 -0.4892  0.1071
 6024W        W22158  17.951  13.726  14.997 -0.1127  0.3164  0.2574
 6025W        W22159  14.500  17.174   1.666 -0.0526  0.0830 -0.0349
 6026W        W22160  15.343   0.641   4.309  0.1168 -0.1527  0.1745
 6027W        W22161   4.251   9.971   3.889  0.0571 -0.2254 -0.1362
 6028W        W22162  12.867  12.319   4.147  0.2251 -0.3119  0.0350
 6029W        W22163  16.304   1.999   0.289  0.2009  0.0622 -0.2918
 6030W        W22164   9.095   2.576   4.967 -0.0246  0.0259 -0.0191
 6031W        W22165   2.357  11.344   3.963  0.0369  0.0763 -0.0124
 6032W        W22166   7.738   1.469  14.331 -0.0356  0.1632  0.0765
 6033W        W22167  15.835   3.464  12.215  0.1041  0.1043  0.1712
 6034W        W22168  16.813   7.201   9.759  0.2111  0.1606 -0.0232
 6035W        W22169  16.297  13.266  12.481  0.2287 -0.1006  0.0814
 6036W        W22170   7.598   7.851  11.748 -0.1350  0.0939 -0.1020
 6037W        W22171  17.560   2.064  12.143  0.1530 -0.3497 -0.3375
 6038W        W22172  13.509  12.335   0.592  0.2483  0.1713  0.0414
 6039W        W22173  11.600   1.387  15.274  0.1881 -0.0728 -0.1619
 6040W        W22174  11.009   0.642   4.931  0.2581 -0.0224  0.0430
 6041W        W22175  12.249  15.058   1.708  0.0905 -0.0275 -0.3439
 6042W        W22176   0.991  10.711  10.516 -0.2791 -0.0380 -0.1690
 6043W        W22177  17.140   6.055   1.217 -0.0505  0.0784  0.1769
 6044W        W22178   4.375  18.553   1.405 -0.0497  0.0928  0.1863
 6045W        W22179   1.277  12.056   3.339  0.3723  0.0049  0.0510
 6046W        W22180   4.019   6.138   4.022 -0.0225  0.0710 -0.2064
 6047W        W22181  15.090   6.126   1.568  0.3660  0.2075 -0.0749
 6048W        W22182  16.918   8.940   3.955  0.3120  0.0022 -0.2084
 6049W        W22183   8.506  15.451  13.858  0.1170 -0.0903  0.0334
 6050W        W22184   8.755   1.028  13.060  0.1063  0.1121  0.2839
 6051W        W22185  13.162   8.405  10.278  0.1688 -0.0042  0.3919
 6052W        W22186   6.966  15.167   4.425  0.3097  0.1746 -0.1095
 6053W        W22187   4.424   1.043  13.193 -0.2564 -0.1830 -0.4853
 6054W        W22188  12.797  11.590   1.564  0.0985  0.0351  0.0576
 6055W        W22189  18.063   5.271  15.085  0.2744 -0.4490  0.1440
 6056W        W22190   2.011  10.042   2.710 -0.1008  0.0493  0.1636
 6057W        W22191   7.821  13.049   0.929 -0.2510 -0.0798 -0.0344
 6058W        W22192   0.228   5.440  14.302  0.1319 -0.0122  0.0247
 6059W        W22193  14.451  18.189   4.011  0.0310 -0.0267  0.1601
 6060W        W22194   7.807   2.284   4.508 -0.0879 -0.2235  0.1405
 6061W        W22195  12.654  10.689   3.409 -0.1927 -0.1475  0.2097
 6062W        W22196  11.815   7.942   5.112 -0.1282  0.3366  0.0837
 6063W        W22197  12.494  13.796  13.748 -0.0510  0.0454  0.1228
 6064W        W22198   4.582   7.331  14.864  0.0377  0.2339 -0.0032
 6065W        W22199  16.652  16.751  13.054  0.0326 -0.2387 -0.0873
 6066W        W22200   1.692   2.213   1.994 -0.0879 -0.1863 -0.0070
 6067W        W22201  16.736   3.055  11.123  0.0329  0.1355  0.0438
 6068W        W22202  13.087  17.088   1.421 -0.0277 -0.4321  0.1957
 6069W        W22203   3.412   5.991  13.267 -0.3004 -0.0046 -0.3353
 6070W        W22204  12.130  10.267  13.221  0.0479 -0.1524 -0.2312
 6071W        W22205   5.922   7.807  12.470  0.1063  0.2358 -0.3203
 6072W        W22206  10.348  12.180   1.478 -0.0353 -0.1686  0.1780
 6073W        W22207   3.441   6.272  11.617 -0.0224 -0.0221  0.1598
 6074W        W22208  13.950   0.009   2.432 -0.1892 -0.0199 -0.0496
 6075W        W22209  15.241  11.149  15.536 -0.1702  0.2646  0.0437
 6076W        W22210   2.636   4.394   1.008  0.0187  0.1597  0.0938
 6077W        W22211   4.288  17.754   1.275  0.0182  0.1133 -0.2094
 6078W        W22212   0.138  15.049   4.101 -0.2395  0.0229 -0.1162
 6079W        W22213  14.069  18.325  15.049 -0.1211  0.0431 -0.2747
 6080W        W22214   1.638   6.586  14.430  0.0998 -0.0363 -0.0444
 6081W        W22215   6.722  15.398   2.398  0.2046  0.3671  0.3548
 6082W        W22216  18.698  18.139  13.088  0.3600  0.1282  0.1648
 6083W        W22217  14.267   9.619  14.666  0.1057 -0.1529  0.0240
 6084W        W22218  12.949   6.439   4.523 -0.0111 -0.0176  0.0185
 6085W        W22219   9.300  11.451   5.320  0.0425 -0.0131 -0.3155
 6086W        W22220  17.146   0.291   1.614 -0.0045 -0.1245  0.0882
 6087W        W22221  12.711   5.444  13.880  0.0909  0.1485  0.1649
 6088W        W22222   1.109  11.740   1.986  0.0442 -0.3702  0.2808
 6089W        W22223   7.178   1.204   3.831  0.0472 -0.5654  0.1531
 6090W        W22224   7.331  14.288  10.853 -0.3047  0.4569 -0.0554
 6091W        W22225  14.973   6.296   2.259 -0.3871 -0.1989  0.0815
 6092W        W22226   9.820   2.528  10.269  0.0286  0.2546  0.0399
 6093W        W22227  12.098  12.519  10.898 -0.4157 -0.3015  0.0838
 6094W        W22228  16.743   1.090  13.790  0.2323 -0.2442  0.2167
 6095W        W22229   4.017   1.235   1.138 -0.1795  0.3167  0.3963
 6096W        W22230  17.069   2.076   1.681  0.0426 -0.1757  0.3485
 6097W        W22231   0.376   6.135   0.976 -0.3223 -0.3363  0.1797
 6098W        W22232   7.722   3.466  14.844  0.1662 -0.2487  0.0188
 6099W        W22233  15.273   6.493  14.473 -0.1198 -0.0267  0.0632
 6100W        W22234   1.290  11.628   3.045 -0.0180  0.0901 -0.0828
 6101W        W22235  13.165   8.950   4.042 -0.3001  0.1312 -0.3241
 6102W        W22236   9.431   3.595  14.827  0.0847 -0.0493 -0.0357
 6103W        W22237   5.401   4.878  13.635  0.3385 -0.0636 -0.0334
 6104W        W22238  13.291  15.701  13.864  0.0029  0.0969 -0.0001
 6105W        W22239  17.590   9.977  14.891  0.0496  0.0431 -0.2447
 6106W        W22240   8.437   0.042   3.023 -0.3701 -0.2086  0.2733
 6107W        W22241  17.458  15.539  15.296 -0.0748 -0.1978  0.3072
 6108W        W22242  11.783  10.215  11.107 -0.0616  0.3563  0.1496
 6109W        W22243  14.437  16.091   2.641 -0.0075 -0.4051 -0.1926
 6110W        W22244   9.451  18.602  11.808  0.0287 -0.0537  0.0698
 6111W        W22245   6.472  11.118   0.906  0.0791  0.1374 -0.1777
 6112W        W22246   2.139  16.539   4.955 -0.3829 -0.2464 -0.0108
 6113W        W22247   0.547  16.557  15.528 -0.0509  0.0413  0.0039
 6114W        W22248   5.066  18.235  11.127 -0.0560  0.0227  0.0724
 6115W        W22249   0.703  12.300  14.234 -0.1660  0.3031 -0.1195
 6116W        W22250  14.872   5.164   0.590 -0.0608  0.0706  0.3910
 6117W        W22251   9.763   6.445  14.075 -0.3589 -0.1329  0.1055
 6118W        W22252   1.751  15.294   1.970 -0.1647 -0.2160  0.0751
 6119W        W22253  13.894   6.258  14.541  0.0326  0.2937 -0.0150
 6120W        W22254  10.350   4.802  15.074  0.0448  0.1961 -0.1915
 6121W        W22255   4.048   3.134   4.166 -0.1888 -0.1213  0.4799
 6122W        W22256   6.566  16.274   3.357  0.0357 -0.0754 -0.1711
 6123W        W22257   5.063   5.164   4.177 -0.0654  0.2855  0.1119
 6124W        W22258   4.558   1.892  15.556 -0.0343  0.1609  0.0915
 6125W        W22259  18.711   5.130  11.937 -0.1783  0.0503 -0.1693
 6126W        W22260  18.176  14.478  13.169 -0.1036 -0.0864 -0.0815
 6127W        W22261  13.556   2.667  12.129  0.0226  0.3837  0.2458
 6128W        W22262  10.196  10.458   0.748 -0.0837 -0.0053 -0.2615
 6129W        W22263   8.012   5.931  10.093 -0.1396 -0.0985 -0.2404
 6130W        W22264   1.473   7.831   3.052 -0.0870  0.1569 -0.3278
 6131W        W22265   2.174  11.761   5.271 -0.5075  0.2816  0.1217
 6132W        W22266  12.046  11.610  10.689  0.1779  0.0381 -0.1980
 6133W        W22267   4.517   3.226  14.853 -0.0770  0.1732 -0.0177
 6134W        W22268   5.925   6.792  15.085 -0.1609  0.1422  0.0533
 6135W        W22269   8.021   5.214  10.751  0.1656 -0.1565  0.0065
 6136W        W22270  10.721   5.165  11.093 -0.1203 -0.1261 -0.0084
 6137W        W22271  12.638   3.370   1.268 -0.0139 -0.2659 -0.1098
 6138W        W22272   9.918   1.031   5.406  0.1967  0.1143 -0.0266
 6139W        W22273   6.401  12.772   2.165 -0.1062  0.0948  0.0637
 6140W        W22274   9.489  17.520  11.181  0.0390 -0.0012 -0.0313
 6141W        W22275  12.469  12.833  11.255  0.1352  0.2965 -0.0077
 6142W        W22276   8.208  12.938   3.608  0.0936 -0.2156 -0.3022
 6143W        W22277   7.299   7.577   4.959 -0.0310 -0.2143  0.1099
 6144W        W22278  16.315  13.277   0.688 -0.0310  0.3497 -0.2289
 6145W        W22279   0.217  12.272   2.209 -0.3312  0.0249  0.1434
 6146W        W22280   0.237   0.665  12.723  0.0401 -0.2519  0.0358
 6147W        W22281  15.265   8.916  12.020 -0.1129  0.0664  0.2566
 6148W        W22282   7.700  10.272   4.138 -0.1313 -0.2631  0.1718
 6149W        W22283   0.102  10.182  13.719 -0.2547 -0.1757  0.0344
 6150W        W22284  14.745   8.010  11.803  0.0773 -0.0356  0.3755
 6151W        W22285   8.518   8.387  11.839 -0.3256  0.3481 -0.1840
 6152W        W22286  18.030  18.484   9.484  0.2845 -0.2620 -0.0121
 6153W        W22287   6.981   1.553  10.639  0.0983  0.1536  0.1020
 6154W        W22288   8.553   5.545   5.974 -0.0266  0.1666  0.0139
 6155W        W22289   0.227   6.109  11.111  0.2686  0.0732 -0.0293
 6156W        W22290   4.118   0.456   3.085 -0.2363  0.0853  0.0031
 6157W        W22291  16.108  12.938   3.252 -0.0344  0.0001  0.3242
 6158W        W22292   5.125  16.521  14.353  0.2316  0.1073  0.0219
 6159W        W22293  15.330   4.965  12.353  0.0538  0.1039 -0.3765
 6160W        W22294   8.988  12.104   2.607 -0.2438 -0.1496  0.0105
 6161W        W22295   3.379  13.191   2.665  0.0823 -0.0435 -0.0198
 6162W        W22296  15.694   2.691   0.312  0.0354  0.2149  0.2065
 6163W        W22297  17.976  11.237  14.440 -0.2590 -0.3043  0.3997
 6164W        W22298   1.721   6.611  13.852 -0.1405  0.1759 -0.2399
 6165W        W22299   0.142   6.678   3.129  0.1479 -0.0498  0.0101
 6166W        W22300  12.099  17.623  14.182 -0.2389 -0.2061  0.2027
 6167W        W22301   5.961  11.572  13.488  0.3011 -0.0347 -0.0202
 6168W        W22302   0.905   0.802   0.261 -0.2426 -0.0797 -0.2090
 6169W        W22303  15.621  16.449   4.920 -0.3829 -0.0545 -0.1832
 6170W        W22304  14.265  13.580   1.163  0.3530 -0.1646  0.1033
 6171W        W22305  11.302   5.286  15.121  0.2937  0.0441 -0.1809
 6172W        W22306   8.319   9.264   2.160  0.0273  0.0992 -0.1491
 6173W        W22307   4.219  11.060   2.791  0.2952  0.1566  0.0905
 6174W        W22308   4.308   2.308  13.468  0.4761  0.0735  0.0602
 6175W        W22309  14.977   1.871   1.387 -0.0409 -0.0292  0.2274
 6176W        W22310  10.611  13.465  10.863  0.1173 -0.1425  0.2830
 6177W        W22311   1.198   9.455  13.327 -0.0207 -0.1812  0.3156
 6178W        W22312  17.902  18.610   3.594 -0.2421  0.1599 -0.0209
 6179W        W22313  13.127  15.447   2.042  0.0836 -0.0132  0.1442
 6180W        W22314   3.372   2.296  13.930 -0.0186  0.2362 -0.0113
 6181W        W22315  12.494   3.850   0.963 -0.1976 -0.1802 -0.2896
 6182W        W22316   3.330  10.803  13.501  0.2720 -0.1028 -0.2904
 6183W        W22317   2.762  18.530   2.871 -0.1380  0.2106 -0.3002
 6184W        W22318   3.483  10.069   1.253  0.2285  0.1333  0.0494
 6185W        W22319  15.205  12.912   5.559 -0.0385  0.1147  0.0440
 6186W        W22320   7.335   9.486   4.503  0.2335  0.1786  0.0342
 6187W        W22321   6.865   2.720   4.106 -0.0834 -0.0948 -0.0029
 6188W        W22322  16.820   9.972   4.875  0.2786  0.0389 -0.1004
 6189W        W22323   9.127  16.432   4.213  0.0993  0.2988  0.2966
 6190W        W22324   8.808  10.151   4.990  0.0742  0.0339  0.0265
 6191W        W22325  11.567   1.893  10.168  0.0406 -0.0469  0.0201
 6192W        W22326  10.515   2.563  13.312 -0.2455  0.3589 -0.0242
 6193W        W22327  14.175  10.212   4.865 -0.4388 -0.0568 -0.1087
 6194W        W22328   9.473  18.236   3.959 -0.1410 -0.2002 -0.1142
 6195W        W22329  17.612  12.952   0.010  0.0845  0.1277  0.2222
 6196W        W22330  14.462   2.398   3.413 -0.1959  0.1544  0.2643
 6197W        W22331  15.866   2.143   0.546 -0.0972 -0.0426 -0.1763
 6198W        W22332  18.433   8.370   1.853 -0.0666  0.0108  0.0287
 6199W        W22333  18.230   6.685   3.654  0.0175 -0.2481 -0.3419
 6200W        W22334   4.243   1.009   5.279  0.0942  0.2570  0.1432
 6201W        W22335   1.546   5.586  15.249 -0.1102 -0.2741  0.0419
 6202W        W22336  18.111   4.600   2.594 -0.0757  0.0628  0.0230
 6203W        W22337  11.046   1.772   4.198  0.2220 -0.1580  0.2293
 6204W        W22338   0.718   6.954  14.439 -0.0209  0.4221 -0.3397
 6205W        W22339  14.416   1.957   1.534  0.0811  0.2367 -0.0095
 6206W        W22340   2.228   0.678   3.161  0.1685  0.2606  0.0580
 6207W        W22341  15.586  14.215   1.028  0.1725 -0.1480 -0.0861
 6208W        W22342   5.002   7.556  12.123 -0.0644  0.1406 -0.0069
 6209W        W22343   3.043  10.563  12.200  0.1047 -0.1503  0.2730
 6210W        W22344  11.266   7.509  13.534 -0.3063  0.1148  0.2927
 6211W        W22345   1.010  14.459   3.299 -0.2051  0.3925  0.5074
 6212W        W22346   6.618   6.789  11.609  0.2287 -0.3504  0.0576
 6213W        W22347  14.420   4.487  14.484 -0.0864 -0.1832 -0.0506
 6214W        W22348   1.578  10.323  13.466 -0.2479 -0.0873 -0.1094
 6215W        W22349   2.043  10.702  14.907 -0.2277 -0.1408  0.0229
 6216W        W22350  15.247  15.749  13.828 -0.1743  0.4876 -0.2272
 6217W        W22351  13.877  14.161   4.260 -0.0744  0.1059 -0.3019
 6218W        W22352  11.178   3.535   5.178 -0.1289 -0.0789 -0.0196
 6219W        W22353  16.079  11.627  12.913 -0.0495  0.1456 -0.3988
 6220W        W22354   5.679  13.485   0.104 -0.2300 -0.1070  0.1007
 6221W        W22355   8.205  17.235  12.518  0.0774 -0.0314 -0.1600
 6222W        W22356  12.371   2.083  12.151  0.0167  0.1041  0.0775
 6223W        W22357  12.516  17.625  13.939 -0.0203  0.2498  0.1552
 6224W        W22358  16.219  17.929  12.831 -0.0622 -0.3686  0.0621
 6225W        W22359  13.180   1.194  10.152  0.1541 -0.1359  0.1507
 6226W        W22360  13.086   8.762   3.610 -0.1046  0.1408  0.2615
 6227W        W22361   3.378   1.536   2.940  0.0212  0.1645  0.0720
 6228W        W22362   5.759   3.942   5.174 -0.0921  0.1798  0.0787
 6229W        W22363   9.948   4.760   1.981 -0.1414  0.3645 -0.2961
 6230W        W22364  17.013  11.866  11.250 -0.1705  0.0660 -0.0131
 6231W        W22365   0.269  15.846   5.141 -0.0485 -0.0439 -0.1250
 6232W        W22366   8.836  10.611   5.189  0.0793 -0.0719 -0.3396
 6233W        W22367  14.635  11.735  11.712 -0.0433 -0.1069 -0.0722
 6234W        W22368   2.417  16.674  14.857 -0.2076  0.0275 -0.2705
 6235W        W22369  12.980  13.707  13.920 -0.5236 -0.1592  0.1710
 6236W        W22370  10.467  10.468   1.502  0.2242  0.0086 -0.3557
 6237W        W22371   4.425  11.807   5.277 -0.1330  0.0008 -0.0025
 6238W        W22372  10.447  18.620  11.675 -0.2851 -0.0955  0.0416
 6239W        W22373   5.180  10.137   0.599  0.1026 -0.3273 -0.1086
 6240W        W22374  14.941  16.087  13.180  0.1773  0.1415  0.0955
 6241W        W22375  15.427  17.875  10.661  0.0214 -0.0079 -0.3856
 6242W        W22376   2.220  11.295  15.437  0.1314  0.1278  0.1384
 6243W        W22377   2.080   3.380   1.798  0.1789  0.2051  0.1325
 6244W        W22378   5.132  13.607   1.915 -0.1501 -0.0735 -0.1838
 6245W        W22379  16.177   9.667   3.654  0.1051  0.1764 -0.1341
 6246W        W22380  12.060  17.668   2.499  0.2035  0.1912 -0.2006
 6247W        W22381  11.644   6.500   3.837  0.0902 -0.1659  0.2461
 6248W        W22382  10.961  12.552   2.795 -0.2751 -0.0859 -0.1277
 6249W        W22383  13.830  16.014   3.476  0.0514  0.0487 -0.2582
 6250W        W22384  17.453  18.069  14.017 -0.0727  0.0887  0.0974
 6251W        W22385   1.913  10.973  13.538  0.2100  0.3674  0.1035
 6252W        W22386   8.835   4.148   4.303  0.0275 -0.2122 -0.2371
 6253W        W22387   4.800   0.715   0.258  0.2548  0.0302  0.3152
 6254W        W22388   6.266   4.305  12.091 -0.1765 -0.1045 -0.0397
 6255W        W22389   6.271   2.246  13.395  0.0491  0.0099  0.1609
 6256W        W22390   6.061  16.130  14.789  0.3403 -0.1043 -0.0539
 6257W        W22391   2.951  11.875  10.883 -0.0430  0.2590 -0.0974
 6258W        W22392   5.077  14.355  13.051  0.0936 -0.6113 -0.0598
 6259W        W22393  15.687   9.006  11.748 -0.0939  0.0425  0.1388
 6260W        W22394   9.552  16.167   0.028 -0.2765 -0.1712 -0.0184
 6261W        W22395  13.162   0.959  10.591  0.1275  0.0515 -0.3395
 6262W        W22396   3.724  12.276  14.500 -0.1188  0.1555 -0.0189
 6263W        W22397  17.461  16.071   1.309  0.1059  0.1190 -0.0935
 6264W        W22398   9.761  12.737  12.401  0.1412 -0.0305  0.5753
 6265W        W22399   4.914   9.534   1.980  0.1499 -0.0848  0.0159
 6266W        W22400  10.067  16.889  15.031 -0.0459  0.4642  0.0779
 6267W        W22401   0.078   9.435   4.467  0.0366 -0.2106 -0.1266
 6268W        W22402  11.454   4.470  11.929  0.1928  0.1372 -0.1223
 6269W        W22403  10.448  10.606  15.350  0.0818 -0.0321  0.1104
 6270W        W22404   0.540  14.034  14.605  0.0710  0.1253  0.0818
 6271W        W22405  10.369   6.679   3.709  0.0480 -0.1100 -0.3206
 6272W        W22406  15.317  15.995   3.715  0.3177 -0.2217  0.0588
 6273W        W22407   4.076  16.039  14.299 -0.1484  0.3157 -0.1792
 6274W        W22408   3.598  17.196   5.189  0.1558  0.0768 -0.0262
 6275W        W22409   7.979   6.078   3.949 -0.1179 -0.0289  0.0675
 6276W        W22410  13.982  13.038  12.948  0.0048  0.0597  0.1752
 6277W        W22411   7.296   5.283   2.675 -0.0471 -0.1771 -0.0797
 6278W        W22412   9.232  13.765   0.487  0.0799 -0.1557  0.3110
 6279W        W22413   8.482   4.985   0.216 -0.1085 -0.1954 -0.0628
 6280W        W22414  14.553   2.206  11.828 -0.0104 -0.1371  0.0356
 6281W        W22415   3.209   7.951  11.077  0.3863  0.1836 -0.5005
 6282W        W22416  17.762   7.660   3.095 -0.2222 -0.0240  0.0330
 6283W        W22417   4.218   1.290  13.548 -0.2130  0.0779 -0.2272
 6284W        W22418  12.299  12.269   4.286 -0.0347 -0.2628 -0.1519
 6285W        W22419  16.801   9.909   1.897 -0.4268 -0.0573 -0.4245
 6286W        W22420  12.681   1.935  14.887  0.0152  0.0652  0.0804
 6287W        W22421  12.880   8.954  12.411 -0.1566  0.2065  0.2981
 6288W        W22422  18.200   8.981   3.530  0.2054 -0.1537  0.0506
 6289W        W22423  17.555  15.919  12.887 -0.2414 -0.1523  0.0952
 6290W        W22424  11.506  15.233   5.816 -0.0825  0.1508  0.2900
 6291W        W22425   4.193  15.913   3.590 -0.2448 -0.0435  0.1004
 6292W        W22426  14.339   1.306  11.539  0.2909 -0.1736  0.1868
 6293W        W22427  13.267  11.402   2.998 -0.0578 -0.1740  0.1955
 6294W        W22428  16.379   0.719   2.230 -0.0848 -0.0084  0.2007
 6295W        W22429   3.730  10.313   3.595  0.3449  0.1255  0.0990
 6296W        W22430  13.142   9.032   5.248  0.3778 -0.1395  0.2692
 6297W        W22431   9.786   5.635  11.459 -0.0345  0.2532  0.0691
 6298W        W22432   7.125  11.435  11.931  0.3136  0.0913  0.0817
 6299W        W22433  11.195  12.585  10.913 -0.0135  0.2866  0.4248
 6300W        W22434  17.490  17.392   1.128  0.0750 -0.0428  0.0448
 6301W        W22435  10.545   3.318   2.745 -0.1859 -0.1263 -0.1852
 6302W        W22436   9.419   6.075   4.703 -0.3045 -0.2042  0.2609
 6303W        W22437   5.696   7.749   2.706  0.1597  0.1012 -0.1571
 6304W        W22438   4.393   7.973   5.052  0.1456 -0.0275 -0.0725
 6305W        W22439   6.044  14.462   1.417  0.3509  0.1668 -0.2065
 6306W        W22440   9.693   3.840   0.769 -0.0384  0.0249  0.1944
 6307W        W22441  12.927   3.618  13.190  0.0923  0.0401 -0.2209
 6308W        W22442   1.820   4.040  11.546  0.2776 -0.1881 -0.4195
 6309W        W22443   7.102   2.944   4.476 -0.0956 -0.1354  0.1935
 6310W        W22444  16.031   3.322   3.822  0.0705 -0.0986  0.0363
 6311W        W22445   9.851   6.084   0.945 -0.0353  0.1685 -0.1048
 6312W        W22446  15.858   7.177  14.658 -0.0551  0.1723  0.0502
 6313W        W22447   7.314  11.736   2.953 -0.3290 -0.0751  0.1442
 6314W        W22448   4.919   6.964   1.143 -0.1563  0.4354  0.2048
 6315W        W22449  12.228   8.286   5.204  0.1327 -0.0264  0.1446
 6316W        W22450   9.654   5.815  14.312  0.0619 -0.0855 -0.2493
 6317W        W22451   3.983   3.662  12.972  0.0050  0.0953  0.3626
 6318W        W22452   1.810  11.619   4.947  0.0776 -0.1063  0.1913
 6319W        W22453   3.476  14.824  15.524  0.3483 -0.0078 -0.0819
 6320W        W22454   5.206  10.231  14.522 -0.2666 -0.1055 -0.2681
 6321W        W22455  14.347  12.268   0.725 -0.2193 -0.1676 -0.1897
 6322W        W22456  18.050  11.097   2.305  0.0984  0.1999 -0.0871
 6323W        W22457   4.744   0.158  15.006 -0.0468  0.4300 -0.2292
 6324W        W22458   7.353  12.138   2.509 -0.0024  0.2087 -0.3032
 6325W        W22459   8.941   8.684  14.171  0.1158  0.0909  0.0863
 6326W        W22460  15.686  14.557   3.429 -0.0874  0.0235  0.0504
 6327W        W22461   9.294  16.567   2.829 -0.1447  0.1261 -0.5844
 6328W        W22462   9.072   0.920   4.555  0.0203 -0.1937 -0.2206
 6329W        W22463   8.376   2.079  11.579 -0.0137 -0.0024 -0.2680
 6330W        W22464  10.659   6.319   2.835 -0.0184  0.2302  0.2199
 6331W        W22465   9.336   0.446  13.421 -0.0673 -0.0570  0.0871
 6332W        W22466  14.379  14.022  12.498  0.0804 -0.3381 -0.0108
 6333W        W22467   3.412  10.264  14.435 -0.0837  0.3758 -0.2839
 6334W        W22468   0.911  16.770  15.239 -0.1183  0.0116  0.0501
 6335W        W22469  11.400  10.497  12.763 -0.0034  0.1652  0.3705
 6336W        W22470  11.555  15.146  11.207 -0.1902  0.3374 -0.1572
 6337W        W22471   8.468   4.109  10.300  0.0925 -0.1258  0.2870
 6338W        W22472   7.056   3.252  10.116 -0.0591  0.1032  0.1883
 6339W        W22473   4.168   3.909   4.593  0.0500 -0.1027  0.1127
 6340W        W22474  15.270  14.653   2.005  0.0791 -0.0192  0.1048
 6341W        W22475  13.844   4.847  12.135  0.1561  0.3059 -0.2588
 6342W        W22476   3.047   2.658  15.148 -0.0056  0.0606 -0.2877
 6343W        W22477  16.546   8.470  12.234  0.2841  0.1743  0.0699
 6344W        W22478   8.786  15.852  13.976 -0.1431  0.0275 -0.0553
 6345W        W22479   7.306  16.768   1.339  0.1830  0.1566 -0.0414
 6346W        W22480  15.779   9.908  11.564  0.2135  0.0563  0.0059
 6347W        W22481   5.921   7.967   3.686  0.1935 -0.3561  0.0115
 6348W        W22482  18.197   7.043   1.862 -0.0179  0.0207 -0.0063
 6349W        W22483  11.837   0.668   4.397  0.0621 -0.0497 -0.1206
 6350W        W22484  17.051   8.919   0.918  0.0595  0.1635 -0.0372
 6351W        W22485   7.726  17.028  12.509  0.3355  0.1666  0.0909
 6352W        W22486  12.673   6.879   0.328  0.3929  0.0169 -0.0679
 6353W        W22487  17.596   4.250   4.758 -0.1896 -0.2264  0.1586
 6354W        W22488  14.592  12.642   2.902 -0.1712  0.0582 -0.2072
 6355W        W22489  17.643   3.150  11.666  0.2081  0.1126  0.0133
 6356W        W22490  14.686   8.765  10.320  0.1233  0.1449  0.1618
 6357W        W22491  18.115   2.769   1.545 -0.4785  0.1748  0.1663
 6358W        W22492   7.526   5.717   0.606 -0.0149  0.3127  0.2223
 6359W        W22493  18.715  15.435   0.108 -0.1578 -0.1066  0.2342
 6360W        W22494  11.963   9.670  13.993  0.3224  0.1158  0.0361
 6361W        W22495  16.459  17.745   5.676 -0.0041  0.4701  0.0679
 6362W        W22496  17.262   5.135  15.557 -0.1274  0.3008  0.0732
 6363W        W22497  16.956   9.446  11.254 -0.1931  0.0613  0.3313
 6364W        W22498  12.982  10.144   4.439 -0.1495  0.5113 -0.0284
 6365W        W22499   6.782   5.793  14.849  0.3634 -0.0198 -0.0518
 6366W        W22500   9.759   7.848   5.880 -0.1413  0.1886 -0.0778
 6367W        W22501   6.974   8.729  15.397 -0.0611 -0.0383  0.1692
 6368W        W22502   5.233   2.218  13.942  0.1974  0.0391  0.1153
 6369W        W22503  12.363  11.701  12.482  0.1225 -0.3683  0.1339
 6370W        W22504  11.874   8.477   0.935  0.0018 -0.0063  0.1968
 6371W        W22505  11.657   9.244  14.113  0.0873 -0.1909 -0.2538
 6372W        W22506   2.581  11.262   1.341 -0.0397  0.0957 -0.1579
 6373W        W22507   1.726   0.102  15.060  0.2592 -0.0578 -0.0032
 6374W        W22508  15.063   1.388   2.555 -0.1064  0.1387 -0.3975
 6375W        W22509   1.131   3.955   2.600 -0.0484  0.0737 -0.1252
 6376W        W22510   1.488   0.012   5.350  0.2349 -0.0866  0.1742
 6377W        W22511  14.501   9.884  15.134 -0.0976 -0.1869  0.0035
 6378W        W22512  11.759   3.722  14.525 -0.1015 -0.1524  0.0760
 6379W        W22513   9.275  10.295  12.428  0.1179  0.1548  0.1449
 6380W        W22514  13.939  16.129  14.970 -0.1590 -0.1030  0.0697
 6381W        W22515   5.890  13.344  15.132 -0.3507 -0.0662  0.0090
 6382W        W22516   2.867  15.918  12.979 -0.1447  0.0913 -0.1635
 6383W        W22517  12.952   6.811  14.176 -0.0176  0.0559  0.1685
 6384W        W22518   6.978  15.888  13.775 -0.2401  0.0089 -0.1335
 6385W        W22519  14.048   2.774  12.208  0.1573  0.0736 -0.1075
 6386W        W22520   2.738  11.159  13.036 -0.1091 -0.1159 -0.4251
 6387W        W22521  13.511  13.786  14.973 -0.0034  0.1523  0.0896
 6388W        W22522  12.504  10.579  13.514  0.0161  0.0960 -0.0302
 6389W        W22523  14.424   1.411  15.392 -0.1268  0.2362 -0.0378
 6390W        W22524  13.848  12.156  13.622  0.1477  0.3289 -0.0911
 6391W        W22525  15.555   5.231   1.344 -0.2221 -0.0293  0.2940
 6392W        W22526   1.752   2.924   3.912  0.1282 -0.1785  0.1526
 6393W        W22527  11.678   8.355   1.397 -0.0046  0.0662  0.0211
 6394W        W22528   0.222   2.991   3.125 -0.0701  0.1822 -0.0533
 6395W        W22529   7.270   9.016  11.012  0.1721 -0.3298 -0.0119
 6396W        W22530  13.238   4.694   3.909 -0.2857 -0.0882 -0.0488
 6397W        W22531   3.127   1.183   4.082  0.4691  0.0298  0.0990
 6398W        W22532   2.735  12.134   1.857  0.2097  0.1452 -0.0671
 6399W        W22533   7.559   8.340   5.758  0.1116 -0.0349 -0.0095
 6400W        W22534   4.226  16.519  13.556  0.2299  0.1006  0.0982
 6401W        W22535  12.789  18.628  10.724 -0.1258 -0.2462 -0.1087
 6402W        W22536  15.561   9.266  11.224  0.1049  0.3722  0.0928
 6403W        W22537   1.525  14.970   4.959  0.0685  0.0018  0.0680
 6404W        W22538  14.324   9.476  15.394  0.2420 -0.1334 -0.1417
 6405W        W22539   9.914   9.163  15.254  0.0576  0.2990  0.2146
 6406W        W22540  13.846  11.528  12.048  0.3014 -0.0387  0.3104
 6407W        W22541   9.300   3.883   3.034 -0.0769  0.2435  0.0504
 6408W        W22542   7.792  16.791  12.006  0.3275 -0.1383 -0.1147
 6409W        W22543  18.131  17.540  13.655 -0.1473  0.1040  0.0621
 6410W        W22544   2.380  16.040  12.803 -0.0416  0.1532  0.3115
 6411W        W22545   4.877   2.190  11.559  0.1323  0.1718 -0.0967
 6412W        W22546   2.320   5.535  14.982 -0.1887 -0.1074  0.0123
 6413W        W22547  17.031   9.495   3.260 -0.2407 -0.0674 -0.1269
 6414W        W22548   6.523  17.782  12.646 -0.2032 -0.0441  0.1231
 6415W        W22549  10.946   3.907  12.685  0.2413 -0.2034 -0.2427
 6416W        W22550  15.210   9.844   4.146  0.1023  0.1430  0.1811
 6417W        W22551   9.487  12.458  14.410  0.0740  0.1787 -0.0441
 6418W        W22552  14.176  17.003   0.325  0.0192 -0.0211  0.3773
 6419W        W22553  14.895   6.379   5.584  0.0532  0.0120  0.0283
 6420W        W22554  14.683   1.990  13.233  0.2099 -0.0966  0.1015
 6421W        W22555   1.162  16.089   1.878  0.3043  0.1483 -0.0101
 6422W        W22556  12.641  16.204  11.241 -0.1126 -0.1062  0.0673
 6423W        W22557  17.171   3.678   2.714  0.1974  0.2347 -0.1994
 6424W        W22558  17.478  15.165  12.330  0.0417  0.1155  0.0817
 6425W        W22559  14.703  17.167  15.422  0.0851  0.0752 -0.1362
 6426W        W22560  15.750  12.804  12.619  0.1746  0.3711 -0.2915
 6427W        W22561   1.970   9.641   2.355  0.0980  0.0746  0.1059
 6428W        W22562   7.170   5.725   0.221  0.3377 -0.1438  0.3040
 6429W        W22563   6.362   3.015  12.035 -0.1986  0.2106  0.2038
 6430W        W22564  12.771   4.202  13.084 -0.0994 -0.1156  0.0468
 6431W        W22565  13.622   1.268   3.959  0.0200 -0.0060 -0.0742
 6432W        W22566  14.654   6.758   3.249  0.0837 -0.0803  0.1678
 6433W        W22567   1.398  18.238  12.300 -0.0539  0.1320 -0.0853
 6434W        W22568  10.192   2.129   4.481  0.1447 -0.1241 -0.0737
 6435W        W22569  10.136   5.004  13.873  0.1393  0.1134 -0.0613
 6436W        W22570  11.629   9.144  14.742  0.0845  0.0131 -0.0372
 6437W        W22571  17.019  13.978  11.206  0.1141  0.1625 -0.3017
 6438W        W22572   9.602   8.523  12.883 -0.2914  0.0538  0.1883
 6439W        W22573  11.340  10.555   3.810 -0.0287  0.1581 -0.0111
 6440W        W22574   8.792   1.829   4.436  0.0208  0.1780  0.0426
 6441W        W22575  17.769   7.269  11.617 -0.3826  0.3472  0.2284
 6442W        W22576  15.846   2.708   3.364  0.1087  0.2468  0.5458
 6443W        W22577  14.769   2.789  13.739  0.1288 -0.1019 -0.2893
 6444W        W22578   0.611   9.395  12.511  0.4113  0.3648  0.0272
 6445W        W22579  15.690   5.620   4.258 -0.1452 -0.1269 -0.0365
 6446W        W22580  13.632  14.896  14.518  0.0562  0.3262 -0.1356
 6447W        W22581   4.575  18.105   0.559  0.2226 -0.2796 -0.0789
 6448W        W22582  18.438  11.241   3.026 -0.1152  0.2208  0.0939
 6449W        W22583  15.861   9.138  13.256 -0.1299 -0.1844  0.1465
 6450W        W22584  13.012  18.514   0.573 -0.0730  0.0331  0.1416
 6451W        W22585  15.716   8.692  11.352  0.0871 -0.1300 -0.2146
 6452W        W22586  13.150  17.992   3.301 -0.0966  0.0948 -0.0732
 6453W        W22587  18.052   1.105   1.396 -0.0755  0.0752  0.1304
 6454W        W22588  18.229  10.155   4.155  0.0118 -0.1363 -0.2946
 6455W        W22589   3.307  13.173  11.188  0.0711 -0.1809  0.1318
 6456W        W22590  18.174   0.817   0.572  0.3463 -0.1647 -0.1972
 6457W        W22591  13.835  11.138   2.026 -0.1145 -0.3238  0.0108
 6458W        W22592  14.058   7.780  12.793 -0.1020  0.0873 -0.0497
 6459W        W22593  12.122   3.660   6.065 -0.1032 -0.0673  0.2259
 6460W        W22594  16.042  15.115   1.412 -0.1626 -0.1988  0.0538
 6461W        W22595   7.818  17.774  11.095 -0.1124 -0.0119 -0.0115
 6462W        W22596   6.724   4.130   1.685  0.1365  0.0072  0.2735
 6463W        W22597   8.915   8.359   3.519  0.0084 -0.0661 -0.1093
 6464W        W22598  17.098   5.044  13.774  0.1638  0.3983 -0.1699
 6465W        W22599  12.148   5.549  11.159 -0.2069  0.0864 -0.0161
 6466W        W22600  12.355  12.517   4.738 -0.0627 -0.0379  0.3832
 6467W        W22601  18.180  16.658  15.096  0.2285 -0.1315 -0.1574
 6468W        W22602   3.237   5.644   3.806  0.1086  0.1024  0.0248
 6469W        W22603  10.296  17.944   0.336  0.1387 -0.0407 -0.0406
 6470W        W22604  11.214  12.209  11.457 -0.2836 -0.1149 -0.1462
 6471W        W22605  13.283   7.231   0.264 -0.1151  0.3441 -0.4692
 6472W        W22606   0.772   2.990   1.048  0.2318  0.2127 -0.1379
 6473W        W22607   1.073  16.895   0.813  0.0130 -0.1288 -0.2635
 6474W        W22608   8.329   9.030   1.102 -0.3105  0.1149 -0.1403
 6475W        W22609  15.674   0.899   3.919  0.2577  0.0200  0.1419
 6476W        W22610   4.958   1.114   2.208  0.0914 -0.0814 -0.0287
 6477W        W22611   8.865  14.581  15.525 -0.1199 -0.4104 -0.3142
 6478W        W22612  15.971   8.984   2.692  0.0933  0.0795 -0.2767
 6479W        W22613   1.890   0.690  12.266  0.1322  0.2343  0.3540
 6480W        W22614   3.649   8.947  10.043  0.0932 -0.1775 -0.0279
 6481W        W22615   8.647   5.661   3.813  0.0718 -0.1695 -0.1392
 6482W        W22616  10.101   4.154  15.255  0.1939  0.0479  0.0097
 6483W        W22617   1.878   0.634   1.292 -0.0128 -0.1481  0.0523
 6484W        W22618   2.863  15.295  12.380  0.0414 -0.0830 -0.2630
 6485W        W22619   0.402   6.200   5.310  0.1027  0.0120 -0.1430
 6486W        W22620  10.540   4.895   3.138 -0.1253  0.1660  0.0691
 6487W        W22621   0.369   0.011  13.595 -0.1333  0.1262 -0.1150
 6488W        W22622   3.768  14.948   4.943 -0.0612  0.1082  0.2029
 6489W        W22623   8.975  13.612   0.032 -0.0481 -0.0752 -0.0786
 6490W        W22624  11.071   8.961  13.360 -0.1614  0.4326  0.1602
 6491W        W22625   5.284   7.047   3.031  0.0922  0.0206 -0.2163
 6492W        W22626   1.332  18.193   4.058 -0.0156 -0.4707 -0.0532
 6493W        W22627   5.400  18.531  12.736 -0.1190 -0.0783  0.2518
 6494W        W22628  18.181  12.727   5.354  0.2542 -0.1076 -0.3043
 6495W        W22629   0.092  10.846   3.623 -0.1608  0.0898  0.1758
 6496W        W22630   4.196   8.249  11.653 -0.0800  0.0020  0.2555
 6497W        W22631   3.517  13.140   4.550 -0.2523 -0.1100  0.2849
 6498W        W22632  15.225  17.322  13.203  0.1303 -0.0885  0.0398
 6499W        W22633   7.173   6.106   3.435  0.0689 -0.0451  0.0311
 6500W        W22634  18.555   7.008   4.946  0.0333  0.3257  0.4572
 6501W        W22635  14.416   9.589  13.401  0.1228 -0.0046 -0.1269
 6502W        W22636   1.685   4.642   0.014 -0.0241 -0.1647  0.3445
 6503W        W22637  11.783  15.529  13.870  0.0596  0.5210  0.1518
 6504W        W22638  18.698  16.738  13.839 -0.4504 -0.0995  0.0190
 6505W        W22639   7.345   5.152   5.019 -0.0157 -0.0637 -0.1730
 6506W        W22640  13.419  15.059  11.360 -0.3907  0.0562  0.3060
 6507W        W22641  12.204   4.772   2.270 -0.0923 -0.0720 -0.0059
 6508W        W22642   5.800   9.240  12.770  0.1055 -0.0620 -0.0659
 6509W        W22643  17.289   7.738  12.516 -0.4223  0.0615  0.0502
 6510W        W22644   4.824   2.219   1.449  0.0280  0.0371 -0.1882
 6511W        W22645  11.776   3.778  13.666 -0.0063 -0.0298  0.0004
 6512W        W22646  11.088  15.226   1.232  0.0548 -0.0841  0.0966
 6513W        W22647  13.640  10.072  12.906 -0.0486 -0.1772  0.0416
 6514W        W22648   1.332  13.783  12.016  0.1739 -0.1570  0.4504
 6515W        W22649  14.026  13.522  12.808  0.0005  0.0825 -0.2117
 6516W        W22650  15.561  14.631   4.145  0.0180  0.2221  0.0099
 6517W        W22651   9.554   0.626   5.123  0.1549  0.1078  0.0394
 6518W        W22652   5.949  14.771  14.331  0.2699 -0.0467 -0.0578
 6519W        W22653  18.300   6.396  12.184 -0.0292 -0.0409 -0.1547
 6520W        W22654  14.817  10.115   3.822  0.2766 -0.4385  0.1914
 6521W        W22655  18.041   3.970  11.775  0.0440  0.0013  0.1726
 6522W        W22656  13.879  11.861  14.043 -0.0780 -0.3915 -0.2645
 6523W        W22657  12.263  10.072  12.688  0.1314  0.1485 -0.1429
 6524W        W22658  11.417  10.395  13.589  0.0931  0.2063  0.1530
 6525W        W22659  16.146  12.570   1.174  0.1230 -0.4155 -0.2731
 6526W        W22660   8.432   0.239   1.854 -0.1741 -0.2737  0.2835
 6527W        W22661   7.401  18.173  12.709 -0.0051 -0.2637  0.2541
 6528W        W22662   4.210  11.045   0.398 -0.0049  0.3239 -0.1225
 6529W        W22663   7.122  11.727   2.529  0.0784  0.3716  0.2366
 6530W        W22664  11.567   8.625   0.543  0.0074  0.1809 -0.1080
 6531W        W22665   7.785   7.032  11.280  0.2280  0.0370 -0.2471
 6532W        W22666  13.808   1.415   5.317 -0.1876 -0.1385 -0.4025
 6533W        W22667  16.624  15.085  10.563 -0.1526  0.2436 -0.0080
 6534W        W22668   0.303  15.635   9.862 -0.1010 -0.0574 -0.0596
 6535W        W22669  18.597  13.381   3.728 -0.1607 -0.0283  0.2670
 6536W        W22670  15.790   3.386   5.556 -0.4670  0.2478  0.2183
 6537W        W22671  17.611   6.130   1.372  0.3007  0.0631  0.1263
 6538W        W22672  16.445   3.061  13.897 -0.1008  0.1423  0.1808
 6539W        W22673  17.442  10.557   0.670  0.2110 -0.0815  0.3911
 6540W        W22674  11.448   7.262  11.761  0.1988  0.0287 -0.1313
 6541W        W22675  16.558  16.519  12.313  0.0971  0.2542 -0.0498
 6542W        W22676  13.217   8.154  12.116  0.4745 -0.0865  0.0290
 6543W        W22677  14.062  16.778   3.649  0.1717  0.0575 -0.0473
 6544W        W22678   7.310   8.097   2.933  0.2934 -0.3371  0.0507
 6545W        W22679   6.784   3.834  12.575 -0.0147 -0.0653 -0.2088
 6546W        W22680   8.870  15.275  14.182  0.2207 -0.0108  0.0220
 6547W        W22681   5.019   5.758   2.415  0.1973  0.0275 -0.4268
 6548W        W22682   6.254   7.497  12.149  0.0123 -0.2647  0.0586
 6549W        W22683   6.685  16.172   0.001 -0.1665 -0.0707  0.1391
 6550W        W22684  12.388  17.642   1.076 -0.0315  0.0203  0.0428
 6551W        W22685   8.662  18.308  11.334 -0.2438 -0.2501  0.1662
 6552W        W22686   8.791  12.028  15.542  0.0457  0.4547 -0.0054
 6553W        W22687  13.954  14.890  12.541 -0.1770  0.4687 -0.2308
 6554W        W22688   4.761  14.883  14.494 -0.4895  0.0625  0.0236
 6555W        W22689   0.144  13.125  12.498  0.1084 -0.3187  0.1626
 6556W        W22690   8.841   6.349  10.807 -0.0217  0.1586 -0.1549
 6557W        W22691  17.232  10.259   4.209  0.1152  0.2884 -0.2140
 6558W        W22692  16.032   4.661   3.994  0.0109 -0.4240 -0.0556
 6559W        W22693   2.811  14.828   0.489 -0.4232 -0.0242 -0.0656
 6560W        W22694  16.566  12.926   3.920  0.1988 -0.0792 -0.0023
 6561W        W22695  16.997   5.459  12.158  0.0675 -0.1473 -0.0871
 6562W        W22696  12.157   7.406  10.799  0.0126  0.2653 -0.0682
 6563W        W22697  17.422  11.351  15.187  0.2091 -0.1900  0.0251
 6564W        W22698   0.057   6.252  14.182  0.0642 -0.4524 -0.1781
 6565W        W22699   7.444   4.580   1.198  0.0614  0.0249  0.7279
 6566W        W22700  13.838   0.209  10.815 -0.0553 -0.3757  0.2930
 6567W        W22701  12.712  14.345   4.160 -0.1704  0.1317  0.1383
 6568W        W22702  18.604   3.811   2.486  0.2535  0.0218 -0.0538
 6569W        W22703  18.079   2.331   0.810 -0.2123  0.1993 -0.0896
 6570W        W22704  17.923  16.922   4.192  0.1758  0.1980 -0.1542
 6571W        W22705   6.970   0.640   3.624  0.1578  0.0883 -0.1430
 6572W        W22706  12.459  10.055   5.361 -0.3411  0.1485  0.1996
 6573W        W22707   8.307  10.614  10.762  0.0862  0.0408  0.1751
 6574W        W22708  12.911   7.275   3.934  0.0874  0.0128  0.0061
 6575W        W22709  16.035  10.063  14.338  0.1041  0.0424 -0.0808
 6576W        W22710   8.941  14.833   0.408 -0.3257  0.0321 -0.0987
 6577W        W22711  16.775   9.751  12.281 -0.0320 -0.0254  0.3061
 6578W        W22712   1.816   4.671   3.010 -0.2185  0.0277 -0.1058
 6579W        W22713   0.932  15.298   3.800  0.0826  0.0285 -0.1135
 6580W        W22714  18.210  11.374   0.643  0.6017  0.3557  0.0002
 6581W        W22715   7.504  10.116  10.296 -0.0881  0.0215 -0.1872
 6582W        W22716   8.137  11.690  14.004 -0.0934  0.2008 -0.0130
 6583W        W22717   0.300   8.944  14.252 -0.5329  0.3313 -0.1337
 6584W        W22718   7.512   3.930  13.021  0.1517  0.1945  0.2682
 6585W        W22719  10.635   5.540  11.406  0.0958 -0.1813 -0.0407
 6586W        W22720  18.080  16.933  11.180  0.3745  0.2943 -0.0426
 6587W        W22721  14.458   6.565   0.476 -0.0783 -0.0162  0.4023
 6588W        W22722   5.797  13.880   0.522 -0.0667 -0.3029 -0.1502
 6589W        W22723   6.596  16.101  14.700  0.0997  0.1069  0.0978
 6590W        W22724   2.800   4.454   4.089  0.1346  0.0619  0.0899
 6591W        W22725  12.045   8.937  11.930  0.1872 -0.0537  0.1594
 6592W        W22726   4.050   4.783   4.148 -0.1529 -0.1182  0.1344
 6593W        W22727  13.326   0.054   5.225 -0.1041 -0.0236  0.2141
 6594W        W22728   9.440  15.322  11.213  0.1149 -0.1008 -0.1541
 6595W        W22729  13.784  18.020   0.403 -0.0301 -0.0570 -0.0704
 6596W        W22730  14.854   9.040  10.732  0.1544  0.1738 -0.1468
 6597W        W22731   6.177  11.158  15.244 -0.0213 -0.1479  0.1632
 6598W        W22732  11.400   6.919   0.715  0.3764  0.0530 -0.0053
 6599W        W22733  14.039   3.171   2.430  0.2710  0.0057 -0.0477
 6600W        W22734  11.668   9.228   4.984  0.1022  0.1737  0.0739
 6601W        W22735  15.502  10.293   0.420  0.0216  0.0316 -0.0478
 6602W        W22736  17.998   0.332   4.324  0.0564  0.0935 -0.1096
 6603W        W22737  14.614  15.860   3.096  0.1459 -0.1027  0.1911
 6604W        W22738   1.120  15.031   4.701  0.2915  0.0789 -0.0733
 6605W        W22739   6.866  11.002  13.694  0.1664 -0.0091 -0.3291
 6606W        W22740  13.370   3.549   0.765 -0.1213 -0.1318  0.1062
 6607W        W22741   1.595  11.730  14.347 -0.2648  0.1548  0.1287
 6608W        W22742  18.462  14.346   1.889 -0.1740  0.0095 -0.0837
 6609W        W22743   1.680   8.776  13.879  0.3161 -0.0191 -0.0434
 6610W        W22744   4.474   3.913   9.612  0.0825  0.1700  0.0420
 6611W        W22745   5.322  11.661  15.384 -0.0768 -0.1061  0.4216
 6612W        W22746  10.323   9.899  14.305  0.0790  0.0755  0.0545
 6613W        W22747  15.011   9.049   0.843  0.1559  0.2183  0.0225
 6614W        W22748   0.248  15.599  15.261 -0.0036  0.2390  0.0716
 6615W        W22749   3.004   8.508  14.517  0.2137  0.0699  0.0044
 6616W        W22750  10.756   8.736   4.660 -0.0687 -0.0318  0.0036
 6617W        W22751  18.253  11.576  14.046 -0.0837 -0.2780 -0.1051
 6618W        W22752   4.910  17.770  10.291  0.0103  0.1588  0.2923
 6619W        W22753   3.116   5.640  12.951 -0.2940  0.3506 -0.0198
 6620W        W22754   5.965  15.540   1.897 -0.0554 -0.1134  0.0332
 6621W        W22755  11.310   3.844  14.753  0.0780  0.2435  0.1859
 6622W        W22756  12.754  18.610   5.083 -0.0206  0.2002  0.0322
 6623W        W22757   3.172   9.431  13.810 -0.1180  0.0552  0.1657
 6624W        W22758   2.501  10.899  14.008  0.1133  0.0729 -0.0525
 6625W        W22759   4.638   9.214  13.597  0.2360 -0.2348 -0.1235
 6626W        W22760   3.666  12.531   0.628 -0.3127  0.0729 -0.0490
 6627W        W22761  12.724  17.485  15.002 -0.0803  0.0346 -0.1827
 6628W        W22762  14.309   1.602  10.231  0.1846  0.0797 -0.1102
 6629W        W22763  14.850  14.589   0.634  0.0039 -0.3194  0.0755
 6630W        W22764   0.763   4.306   2.345  0.4650 -0.0302  0.0406
 6631W        W22765  12.821   0.013  14.751 -0.0602  0.0634  0.0887
 6632W        W22766   0.629  18.233   3.166  0.0524 -0.2764  0.1858
 6633W        W22767  16.010  16.744  10.588 -0.1360 -0.0440 -0.0071
 6634W        W22768   3.406  15.665   0.710 -0.5803  0.2250  0.0789
 6635W        W22769   4.150   8.313   3.955 -0.2131 -0.1201  0.0752
 6636W        W22770  14.388   6.716   3.617  0.3328  0.1169 -0.1162
 6637W        W22771  14.646   1.368   4.144  0.1565  0.1293  0.0407
 6638W        W22772  18.691   2.853   2.230 -0.1646 -0.1444  0.0838
 6639W        W22773   7.645   8.183   3.276  0.0577  0.1496 -0.0288
 6640W        W22774  16.482  15.348   5.238 -0.0865  0.2490  0.0515
 6641W        W22775  11.089   5.673  12.857  0.2234 -0.2589  0.1826
 6642W        W22776   0.162   2.082  11.029  0.2351  0.1202 -0.0721
 6643W        W22777   2.264  14.899   3.319  0.0719  0.0177  0.0156
 6644W        W22778   3.596   8.180   3.676 -0.2828  0.2625  0.1758
 6645W        W22779   5.798  11.020   0.442  0.1877 -0.0522 -0.2149
 6646W        W22780   1.372  10.185   4.567  0.1713  0.0658 -0.1134
 6647W        W22781  15.692   3.305  15.070  0.3637 -0.1043  0.0590
 6648W        W22782   5.544   3.058  14.877  0.0892 -0.1921  0.2376
 6649W        W22783  11.683   8.896  15.202 -0.1913  0.1356  0.2589
 6650W        W22784   6.397   1.632  10.912  0.0172  0.0364 -0.0403
 6651W        W22785   9.139   3.755   4.228  0.0402 -0.1710  0.1588
 6652W        W22786   7.036  11.420  15.156  0.0837  0.0865 -0.2589
 6653W        W22787  11.464  14.673   0.762  0.1120  0.1844  0.0080
 6654W        W22788   1.798  11.742   2.886  0.0849 -0.0501 -0.0251
 6655W        W22789   1.459  17.734   4.835 -0.3865  0.2122  0.2430
 6656W        W22790   2.024   5.676  14.583 -0.0219  0.1721 -0.0335
 6657W        W22791   0.490   7.890   1.448  0.1434  0.1942 -0.1144
 6658W        W22792  10.699   0.807   3.533 -0.0288  0.1094 -0.5136
 6659W        W22793  12.062  10.324   5.483 -0.1452 -0.2690  0.3337
 6660W        W22794   4.072  15.723   1.590 -0.3504  0.0828  0.0291
 6661W        W22795  16.150   2.512   0.264 -0.2049 -0.1892  0.3230
 6662W        W22796  16.385  13.371   4.212  0.2337  0.2614  0.1906
 6663W        W22797  12.979   6.687   3.166 -0.1299  0.1479 -0.1418
 6664W        W22798  13.100   2.306  14.131  0.0672  0.1052  0.0066
 6665W        W22799  17.609   5.456  14.908 -0.0003 -0.2206  0.0151
 6666W        W22800   8.485   0.983   4.040 -0.0717  0.1353  0.1927
 6667W        W22801   1.797   3.488   0.353  0.2487  0.1434 -0.0155
 6668W        W22802   1.213   5.576  11.002 -0.1886 -0.0038  0.0052
 6669W        W22803   0.376  14.853  13.946 -0.1493  0.2208  0.2519
 6670W        W22804   1.335   0.615   4.218 -0.0553  0.1293 -0.2191
 6671W        W22805   0.988   5.957   5.344 -0.1290 -0.3582  0.4033
 6672W        W22806  17.860  11.768   3.632  0.0791  0.0965  0.0324
 6673W        W22807  11.589  12.487  13.782  0.3342  0.2594  0.0497
 6674W        W22808  15.018  15.278   1.199 -0.1091  0.0024 -0.1283
 6675W        W22809  14.919  11.137   0.413  0.2203  0.3162 -0.0223
 6676W        W22810   9.767  15.046   5.601 -0.1818  0.1080  0.0335
 6677W        W22811  15.212  13.588  12.781 -0.1860  0.0168 -0.2255
 6678W        W22812   4.509   5.939  14.458 -0.4053  0.3225  0.1493
 6679W        W22813  15.451  14.663  12.669 -0.4432  0.0039 -0.2710
 6680W        W22814   4.233  17.085   2.729 -0.3686  0.1735  0.2885
 6681W        W22815  12.110   2.449   3.496 -0.3554  0.1549 -0.0286
 6682W        W22816   4.091   7.667  12.999  0.1910  0.1237  0.0825
 6683W        W22817   2.066  18.513  14.150 -0.2309  0.1003  0.1038
 6684W        W22818   9.096   3.950   2.556 -0.3177  0.1670  0.2143
 6685W        W22819  13.069   1.180  11.034  0.1337  0.2442  0.0937
 6686W        W22820   8.974  15.922   4.523  0.2500 -0.2826  0.0892
 6687W        W22821   9.781  11.565   0.972 -0.1324  0.1181  0.1857
 6688W        W22822   6.521   8.463  12.898 -0.1492 -0.0017 -0.1176
 6689W        W22823   1.064   8.017   2.363 -0.0665 -0.3192 -0.4001
 6690W        W22824   9.360   0.677  11.730  0.5124 -0.1034  0.3316
 6691W        W22825   5.196   4.885  14.812 -0.1206  0.0538 -0.0975
 6692W        W22826   4.174   5.307   2.964 -0.1042  0.1596 -0.0756
 6693W        W22827   6.929   8.671  14.422  0.2421 -0.1467 -0.1813
 6694W        W22828  15.758   3.473  15.524 -0.1197 -0.1322 -0.0151
 6695W        W22829  10.340  10.869  13.573  0.2479 -0.1712 -0.0783
 6696W        W22830   6.995   6.690   1.982 -0.2664 -0.1997 -0.1822
 6697W        W22831  16.486  15.112  14.138 -0.2993  0.0168 -0.2053
 6698W        W22832   8.534   2.870  12.620  0.2395  0.2830 -0.1391
 6699W        W22833  10.269   0.941   3.277 -0.0641  0.1133  0.1311
 6700W        W22834  17.884   0.146   1.657 -0.1610  0.1317  0.1380
 6701W        W22835  13.859  15.837   1.556 -0.1786 -0.0054 -0.0270
 6702W        W22836   5.740  17.433  10.708 -0.1887 -0.0521 -0.0445
 6703W        W22837   6.911   2.466  14.372  0.2042  0.0888  0.1019
 6704W        W22838   9.443   0.171   0.229  0.0397 -0.0767  0.1156
 6705W        W22839  14.220   7.428   2.256  0.0943 -0.0599 -0.1982
 6706W        W22840   8.522  17.807  12.174 -0.1249 -0.0985  0.0583
 6707W        W22841  14.146  10.946  14.239 -0.0343 -0.0236 -0.1824
 6708W        W22842   0.896  17.895  15.072  0.2742  0.1513 -0.0684
 6709W        W22843   3.399  14.831   1.334  0.1595  0.2756  0.0169
 6710W        W22844  13.475   7.296  10.109 -0.3764  0.1522 -0.1279
 6711W        W22845  15.225  11.713  13.477 -0.1083 -0.0034  0.1016
 6712W        W22846   6.216  14.248   4.275 -0.2494  0.0225  0.2588
 6713W        W22847  14.981  11.102  15.012  0.0487  0.0395  0.0829
 6714W        W22848  16.337   6.024   3.573 -0.2240  0.0431 -0.0334
 6715W        W22849  16.835  12.998  14.489 -0.2963  0.0454 -0.1827
 6716W        W22850  15.674   1.880  12.926 -0.1526  0.1186 -0.0833
 6717W        W22851  16.934  16.539   3.549 -0.0498  0.1166  0.1209
 6718W        W22852   7.201  18.068   1.637  0.0128  0.1456 -0.1394
 6719W        W22853  16.369   0.169  12.571  0.0212 -0.1462  0.2518
 6720W        W22854   6.577  13.753  12.102 -0.1266 -0.0375  0.2478
 6721W        W22855  10.151  12.230  13.860 -0.1989 -0.2770 -0.0516
 6722W        W22856  13.194  11.877   3.013  0.0358 -0.0007 -0.2859
 6723W        W22857   0.588  17.548  15.004 -0.1880  0.0087 -0.0547
 6724W        W22858  16.547   1.203   3.619  0.0406 -0.0979  0.1742
 6725W        W22859  16.122  15.344   0.357 -0.0607 -0.1778 -0.0928
 6726W        W22860  14.201   6.066   4.422 -0.0250  0.0600  0.1261
 6727W        W22861   8.129   1.110  14.332  0.1589 -0.2529 -0.0384
 6728W        W22862  13.390   5.628   1.769 -0.1246  0.3599  0.0129
 6729W        W22863   0.508  18.144  15.369 -0.0668 -0.2126  0.0075
 6730W        W22864  13.986   4.472   4.995 -0.0614  0.0297 -0.3182
 6731W        W22865  16.916  16.878  15.300 -0.4004 -0.1674  0.0513
 6732W        W22866   4.095   0.280   4.835 -0.1536  0.0968 -0.0027
 6733W        W22867  12.495  14.407  13.409  0.0052  0.2397 -0.0050
 6734W        W22868  14.893  10.079  12.139  0.0983  0.1344 -0.3651
 6735W        W22869   3.472  11.758   4.780  0.1194  0.0404  0.0094
 6736W        W22870  13.797   7.485   1.509 -0.0532 -0.0279 -0.0589
 6737W        W22871   6.533  14.240  13.112  0.0147  0.0924 -0.0928
 6738W        W22872   5.793   4.703  12.833 -0.0105  0.3809  0.1095
 6739W        W22873  12.296  12.692   2.232  0.2565 -0.2075 -0.0342
 6740W        W22874  14.184  17.905   4.942  0.0130 -0.4996  0.0728
 6741W        W22875   1.053  12.314   5.805  0.1498 -0.1050 -0.1397
 6742W        W22876  13.334   5.123   2.869  0.0676  0.2598  0.2540
 6743W        W22877  18.381   7.869   2.531  0.0629 -0.0285  0.1561
 6744W        W22878   7.381  13.561   2.895 -0.3358 -0.2000  0.1584
 6745W        W22879   8.274  14.809   4.689  0.1534  0.0823  0.0748
 6746W        W22880  15.825   6.646  10.405 -0.2122  0.2762 -0.0889
 6747W        W22881  16.608  13.567  11.846 -0.0730 -0.1070 -0.0830
 6748W        W22882  15.930  15.785  15.259  0.2620  0.0822  0.1391
 6749W        W22883  11.052  15.921   5.530 -0.1896 -0.2413  0.0366
 6750W        W22884   7.159   6.599  11.484  0.2399 -0.3346 -0.2264
 6751W        W22885  11.057   3.981   4.320 -0.0124 -0.4719 -0.1835
 6752W        W22886   3.289   0.456   1.664  0.0086 -0.0315  0.1265
 6753W        W22887  11.155   9.597   3.280  0.1709  0.0909  0.3618
 6754W        W22888  13.882   7.838  10.952 -0.4753 -0.0237 -0.2607
 6755W        W22889  10.260   6.859   0.231  0.0372  0.0374 -0.1205
 6756W        W22890  15.652   7.435   4.431 -0.0168  0.0361  0.0368
 6757W        W22891   4.366   2.234   3.904  0.0610 -0.1936  0.1723
 6758W        W22892  14.219  15.671  10.009 -0.0455  0.0581  0.2538
 6759W        W22893  14.784  17.294   4.444  0.1545  0.0388  0.2511
 6760W        W22894   4.835  17.668  15.437  0.0137  0.1095 -0.1958
 6761W        W22895  17.030  10.550  15.137  0.0568 -0.2191 -0.0186
 6762W        W22896   3.587   2.199  11.587  0.0221 -0.0857  0.1667
 6763W        W22897  16.583  12.592   4.886  0.2443  0.0053 -0.1912
 6764W        W22898  15.602  12.952   4.034 -0.1241  0.2191 -0.1048
 6765W        W22899   8.695  16.992  14.650 -0.1526 -0.0108 -0.2499
 6766W        W22900   1.147   5.727  14.478 -0.0780 -0.0303 -0.0104
 6767W        W22901  11.406   0.400   1.851  0.0633 -0.1266 -0.0010
 6768W        W22902   1.620  15.955   2.605 -0.0526 -0.0296 -0.1182
 6769W        W22903   0.977  16.205  12.159  0.3479  0.1156  0.1565
 6770W        W22904  15.854  12.667   0.778  0.3321 -0.1643 -0.2152
 6771W        W22905  16.977   4.708  12.307  0.3885 -0.0969  0.1748
 6772W        W22906  14.817  18.619   2.512 -0.1163 -0.1201 -0.0736
 6773W        W22907  10.577  15.795   4.851 -0.3914  0.1882 -0.0802
 6774W        W22908   1.368   2.009   4.106 -0.1394  0.1694  0.1150
 6775W        W22909   1.333   0.962   0.469  0.3092  0.0280 -0.1745
 6776W        W22910   4.302  13.314  14.459  0.0450  0.1447 -0.0804
 6777W        W22911   9.920  12.586  14.185 -0.2292 -0.1211 -0.3635
 6778W        W22912   2.525   5.760   0.209  0.1066 -0.1328  0.1256
 6779W        W22913  17.264   4.655  11.811  0.3477 -0.2426 -0.2061
 6780W        W22914  11.366   2.009   2.119 -0.0787  0.0857  0.3710
 6781W        W22915   3.187   6.338   3.103 -0.2217 -0.0789  0.3407
 6782W        W22916  17.262   6.369  12.421 -0.0440 -0.1662  0.1107
 6783W        W22917   2.522  16.268  13.857 -0.1850 -0.0692  0.2454
 6784W        W22918   6.524  14.538   0.623 -0.1912  0.2079  0.1880
 6785W        W22919   8.265   8.123   2.760 -0.2381 -0.1879 -0.2944
 6786W        W22920   5.239  16.703   4.240  0.0678  0.0442 -0.0431
 6787W        W22921   6.866   6.292   4.392 -0.1045 -0.2051  0.2882
 6788W        W22922  17.624  12.579  11.720  0.1037  0.0002  0.1033
 6789W        W22923   7.043  15.237   0.842 -0.0542  0.3525  0.0808
 6790W        W22924   9.330   5.308  11.376  0.0475 -0.3769 -0.1177
 6791W        W22925   2.763  13.915  10.669 -0.0328  0.0541  0.1930
 6792W        W22926   4.868   5.543  14.294 -0.0283  0.0243  0.0768
 6793W        W22927   0.496   2.983  15.259 -0.1438 -0.2151 -0.0696
 6794W        W22928  11.718  10.610  12.402  0.0436 -0.0017 -0.1931
 6795W        W22929   2.491  15.606   3.006 -0.0849 -0.2618 -0.2642
 6796W        W22930   0.795   9.819   1.950 -0.0335  0.1786 -0.3270
 6797W        W22931   9.939   5.550  12.017 -0.1542  0.0649  0.0510
 6798W        W22932  13.011   7.726   3.710 -0.2995  0.0176 -0.1239
 6799W        W22933   1.614  12.679   2.843  0.0144  0.1855 -0.1872
 6800W        W22934  15.487  16.011  12.879 -0.0075  0.1445  0.1119
 6801W        W22935   5.958   9.631  10.773 -0.0408  0.3503  0.1599
 6802W        W22936  12.511  15.481   0.940 -0.2666 -0.1656 -0.2104
 6803W        W22937   6.629   1.075  10.803  0.0202  0.2520  0.0449
 6804W        W22938  18.552   4.974   4.472 -0.0053 -0.0612  0.0399
 6805W        W22939   2.456   3.599  12.393  0.2541 -0.0050  0.1992
 6806W        W22940  17.488   2.112   3.582 -0.0008 -0.0969  0.0844
 6807W        W22941   6.805   2.972   3.565 -0.0350  0.1412 -0.3130
 6808W        W22942   2.627   2.314   0.313  0.1723 -0.1348  0.3920
 6809W        W22943   7.622  12.670   4.594  0.1830 -0.2199  0.1527
 6810W        W22944   8.861   1.396   1.307 -0.0131 -0.1706 -0.2162
 6811W        W22945   5.138   1.024   0.923 -0.2204  0.2173  0.3173
 6812W        W22946   5.360  12.854  13.562 -0.3308 -0.0541 -0.0385
 6813W        W22947  13.368  11.628  11.284  0.0447  0.0305  0.1580
 6814W        W22948  12.738   0.539  14.477  0.2657 -0.1179 -0.0431
 6815W        W22949  14.888   9.909   0.917 -0.1481 -0.1306  0.0179
 6816W        W22950  16.115   7.803  11.141  0.0618 -0.1798 -0.1498
 6817W        W22951  13.182   1.462   0.806 -0.1370  0.1299 -0.1737
 6818W        W22952   0.561   0.081  10.829 -0.1678 -0.2005  0.2444
 6819W        W22953  11.099  13.798  10.317  0.1145 -0.0154 -0.1781
 6820W        W22954   1.295   3.140   5.019  0.3095 -0.1680 -0.2530
 6821W        W22955   0.002  14.752   4.899 -0.0594  0.2222 -0.0183
 6822W        W22956  12.665   2.435   3.842 -0.0366 -0.1245  0.0750
 6823W        W22957  13.550  17.960  13.800  0.0757  0.0922  0.1665
 6824W        W22958   0.267  13.337  12.017  0.2483  0.0531  0.1790
 6825W        W22959  11.960  13.576  14.868  0.2219 -0.0166  0.1359
 6826W        W22960   5.066   7.380   2.720  0.1382  0.0064 -0.1205
 6827W        W22961   9.072   8.216  10.373  0.3847  0.2098  0.1897
 6828W        W22962  15.729   0.850  15.284 -0.2368  0.2190 -0.1876
 6829W        W22963   4.194   7.404   9.692  0.1245  0.0572  0.0911
 6830W        W22964  17.916  14.801  12.327 -0.3286 -0.2091 -0.1456
 6831W        W22965  15.540   5.882  12.744  0.0590 -0.0169 -0.2301
 6832W        W22966   1.496  18.383   0.192 -0.1195  0.0105 -0.2517
 6833W        W22967   7.920  17.702   3.326  0.1160  0.0142  0.0757
 6834W        W22968  14.999   2.802  14.865  0.0823 -0.3334 -0.0936
 6835W        W22969   2.375   3.394  11.520 -0.0888  0.0437  0.1281
 6836W        W22970   7.111  16.133   4.322  0.0934  0.2446 -0.0236
 6837W        W22971   5.056   3.070  12.432 -0.3853 -0.1500 -0.0038
 6838W        W22972   3.811  15.610   1.006 -0.0881  0.2873  0.2421
 6839W        W22973   2.134   6.118  13.697 -0.0863  0.2200 -0.2972
 6840W        W22974   5.311   0.165   2.967 -0.0832 -0.2859 -0.0071
 6841W        W22975  14.368   4.561   3.467 -0.0603  0.0788  0.2084
 6842W        W22976   4.334  12.497  12.462  0.0180 -0.2501  0.1297
 6843W        W22977   7.318   3.657  11.669 -0.0741 -0.0963  0.1282
 6844W        W22978   2.492   4.527  15.478  0.1031 -0.0502  0.0702
 6845W        W22979  15.235  17.257   3.554 -0.2831 -0.1382 -0.0295
 6846W        W22980  14.670  17.852  13.072 -0.1148  0.0295  0.5270
 6847W        W22981  15.562  16.055   4.546 -0.0659  0.1607  0.3100
 6848W        W22982  10.881   2.668  12.866 -0.1296  0.0356  0.2886
 6849W        W22983   9.800   3.595   3.397  0.0289 -0.2379  0.1208
 6850W        W22984   5.186  12.485  12.112  0.0737 -0.1106  0.0068
 6851W        W22985   2.497  11.190  11.727  0.0799  0.1754  0.0829
 6852W        W22986   7.859  10.677  12.984  0.0303  0.1561  0.2129
 6853W        W22987  14.659  11.789   1.943  0.1249 -0.3469 -0.2505
 6854W        W22988   0.492   0.808   4.942  0.5094  0.1861 -0.1661
 6855W        W22989   5.125  14.064   4.494  0.0953  0.1705 -0.0780
 6856W        W22990  12.617   5.755  10.628  0.3368 -0.0385  0.0210
 6857W        W22991  15.986  10.385   2.507  0.0251 -0.1916  0.0718
 6858W        W22992   7.256   5.756   2.870 -0.0158  0.0509 -0.0419
 6859W        W22993   5.701   7.054   3.340  0.1415  0.1981  0.0199
 6860W        W22994   9.321  15.373   2.862 -0.0361 -0.0754 -0.0363
 6861W        W22995   5.679  13.124   0.895 -0.0869  0.2168  0.0843
 6862W        W22996   4.665   9.343   0.351 -0.4845 -0.0434  0.2134
 6863W        W22997   4.435   3.537   1.135 -0.0049  0.2819 -0.3721
 6864W        W22998  11.767  12.077   2.863  0.1431  0.0780 -0.0513
 6865W        W22999   6.233  16.627   3.423 -0.0245  0.0771 -0.0706
 6866W        W23000  16.302   2.949  10.766  0.1514  0.1735  0.1149
 6867W        W23001   8.759   2.805   4.576  0.0407  0.0121  0.0795
 6868W        W23002   7.287  16.925  13.547  0.2925 -0.0832 -0.0610
 6869W        W23003   6.168  17.160  13.727 -0.1163  0.0717 -0.0921
 6870W        W23004  14.256  15.974   4.865 -0.1174  0.1132 -0.0720
 6871W        W23005  18.305  13.506  14.725 -0.4504  0.1123  0.2531
 6872W        W23006   6.688   9.835  14.614 -0.2136  0.2207  0.1347
 6873W        W23007   6.705  13.151   4.774  0.0873 -0.2386 -0.0572
 6874W        W23008  16.585  18.533   2.178  0.0128 -0.0329  0.2666
 6875W        W23009  12.070   3.238  12.653 -0.1947 -0.0350 -0.3671
 6876W        W23010   5.599   0.924   4.793 -0.0191  0.4329 -0.1057
 6877W        W23011   9.817  16.202   0.964  0.2911  0.0328 -0.1664
 6878W        W23012   2.821   4.742  12.155  0.4789 -0.2149 -0.0409
 6879W        W23013  14.428  15.006  15.055 -0.4742 -0.0405  0.2328
 6880W        W23014  17.535   5.822  13.297 -0.0114  0.3053  0.1821
 6881W        W23015  15.628  12.304  11.219 -0.2791  0.3474  0.0831
 6882W        W23016  17.504  18.224  11.684  0.0561  0.0576 -0.0859
 6883W        W23017   1.634  11.577  11.656  0.2109 -0.1184  0.2866
 6884W        W23018   6.916  13.141   0.320  0.1680  0.0712 -0.1245
 6885W        W23019   9.240  17.851  13.585  0.0649 -0.2536 -0.0062
 6886W        W23020  12.064  18.164   4.443 -0.2311 -0.0991  0.0201
 6887W        W23021   7.834  10.723   4.085 -0.0206 -0.1265  0.0949
 6888W        W23022  13.544   5.897  15.097 -0.2236 -0.0595  0.1360
 6889W        W23023  12.449  18.404   4.693  0.2890  0.1918 -0.0749
 6890W        W23024   9.264  15.479   1.888 -0.1810 -0.1559  0.0220
 6891W        W23025   6.645   4.801  14.464  0.1388 -0.2841  0.2214
 6892W        W23026  12.817  17.948   5.511 -0.1033 -0.1393  0.1597
 6893W        W23027   4.778  10.013  14.694 -0.0347  0.0938  0.0980
 6894W        W23028  12.261   5.234   1.089 -0.1767 -0.0239  0.1524
 6895W        W23029   4.652   6.850   4.290  0.1420 -0.0468 -0.1471
 6896W        W23030   0.123   0.301   0.388 -0.2767  0.1389  0.0691
 6897W        W23031  15.553  16.708   0.058  0.0739  0.2555  0.0415
 6898W        W23032  10.837   7.812   4.852 -0.2524  0.3129 -0.0381
 6899W        W23033  14.739   4.674  14.093  0.1286  0.2626 -0.3871
 6900W        W23034  18.137   4.956  15.485  0.1133 -0.0548  0.0905
 6901W        W23035   9.747   1.825  11.268  0.0894  0.2088  0.2418
 6902W        W23036  14.383   3.524   1.102 -0.1089 -0.2045 -0.0556
 6903W        W23037   9.272   5.689   0.224 -0.2233 -0.1018 -0.0523
 6904W        W23038   6.560   3.677   2.229  0.0310 -0.1451 -0.0813
 6905W        W23039   7.851   8.698   3.380 -0.1216 -0.0725  0.0019
 6906W        W23040   6.702  18.002  14.040 -0.1356  0.0948  0.2853
 6907W        W23041   8.662   6.633  13.307  0.0931  0.0230  0.1264
 6908W        W23042   2.869  10.039  11.952 -0.2992  0.1024 -0.0912
 6909W        W23043  17.840  10.861   1.500 -0.3472 -0.0671 -0.0808
 6910W        W23044   8.245   2.015   4.616 -0.2559 -0.0596  0.2050
 6911W        W23045  12.468   9.467  11.509  0.0656  0.1636  0.1138
 6912W        W23046   0.956   3.806   4.430 -0.1575 -0.0242  0.2735
 6913W        W23047   4.857   7.626  12.579 -0.2489  0.1681 -0.2245
 6914W        W23048  12.885   6.641  11.096  0.3618  0.1054 -0.1403
 6915W        W23049   5.899  12.729  15.228  0.0749 -0.5062 -0.1204
 6916W        W23050   2.418   0.216  11.018 -0.0884 -0.1857  0.3016
 6917W        W23051   1.901  13.001  14.182 -0.3606  0.3379 -0.0531
 6918W        W23052   6.092   0.133   1.251 -0.0661 -0.0083  0.0495
 6919W        W23053   7.617   8.037   0.301  0.0569  0.1283 -0.0333
 6920W        W23054   0.951   3.981  11.913 -0.2938  0.1287 -0.1514
 6921W        W23055   4.627   1.983  13.006  0.3132 -0.0654  0.1764
 6922W        W23056   5.780   3.447  14.604  0.1921 -0.2574 -0.1402
 6923W        W23057   0.031   2.236   2.811 -0.3241 -0.1959  0.1569
 6924W        W23058  10.497  12.587   0.952  0.2325  0.1311  0.1618
 6925W        W23059   3.430  16.562  13.918 -0.1042 -0.1856  0.0854
 6926W        W23060   7.837  13.008   9.865 -0.1868  0.2198  0.0411
 6927W        W23061  15.152   8.654   0.402 -0.0164 -0.1453  0.0515
 6928W        W23062   1.998  18.356  12.267 -0.1958 -0.0561  0.1442
 6929W        W23063   3.268  11.658   4.276  0.2862 -0.2571  0.3172
 6930W        W23064  18.117   2.147   3.599  0.1786  0.0237 -0.0711
 6931W        W23065  12.648   9.954   4.718 -0.0045 -0.0619  0.1919
 6932W        W23066   0.487  12.886  13.571  0.0786 -0.2161 -0.1914
 6933W        W23067  15.830   7.609   3.887 -0.0512 -0.1557  0.1846
 6934W        W23068  15.761  18.524   1.632 -0.0989  0.0801 -0.0487
 6935W        W23069  11.565   9.545   0.304  0.0352  0.1124  0.2488
 6936W        W23070  17.526  12.922   3.044  0.1076 -0.0508  0.0060
 6937W        W23071  14.877   1.183  13.900  0.0790 -0.0520 -0.1112
 6938W        W23072  11.136  15.702  13.525  0.0926  0.0086  0.3612
 6939W        W23073   4.177  17.005   0.741 -0.0377 -0.3115 -0.0339
 6940W        W23074  14.091  17.894   0.801 -0.0749 -0.2306 -0.3155
 6941W        W23075   8.032   3.416   2.118  0.0679  0.2287  0.0421
 6942W        W23076  17.923  13.779   1.045  0.0707 -0.0289 -0.2311
 6943W        W23077  16.662  12.277  11.431  0.0038 -0.0156 -0.1193
 6944W        W23078   9.309   3.412  14.344  0.2087 -0.1025  0.0993
 6945W        W23079   1.180  12.759  14.531 -0.2450 -0.3373  0.0391
 6946W        W23080   9.752   8.802   2.480 -0.1741  0.0250 -0.5005
 6947W        W23081  12.938   9.851   5.262 -0.0694  0.1168 -0.1112
 6948W        W23082  13.251  16.816   2.425  0.0846 -0.3633  0.0301
 6949W        W23083  16.833  13.530   3.370 -0.2758  0.0184  0.0391
 6950W        W23084  13.734   7.846  14.249 -0.0870  0.0076  0.3211
 6951W        W23085   1.855  12.642  15.358 -0.1847  0.0387 -0.1089
 6952W        W23086   8.129  10.573   2.116 -0.1350  0.2881  0.2049
 6953W        W23087   8.154  16.626  13.814  0.0489  0.0816  0.0357
 6954W        W23088  17.561   9.991   0.005 -0.0471  0.1863  0.0347
 6955W        W23089   1.494  16.346   4.384 -0.1010 -0.0089  0.0515
 6956W        W23090   9.741  14.965   2.638 -0.2944  0.2238 -0.3085
 6957W        W23091  11.773   5.951   0.657  0.1254 -0.0168  0.3104
 6958W        W23092  13.913   3.879   3.126 -0.0622  0.2370  0.1704
 6959W        W23093   5.514   1.722  14.578 -0.0145  0.1086 -0.0439
 6960W        W23094   0.308   6.656  14.596  0.0634  0.3678  0.0646
 6961W        W23095  14.008  11.021  11.395  0.0082 -0.0594 -0.0445
 6962W        W23096  11.995  11.406  14.111 -0.0299 -0.3251 -0.2836
 6963W        W23097  17.392  14.618   4.830 -0.0162  0.0182 -0.0189
 6964W        W23098  18.028  14.030   1.716  0.1830  0.2662 -0.1112
 6965W        W23099  17.176  16.273   0.897  0.2027 -0.2280  0.0569
 6966W        W23100  15.787  10.643  15.205 -0.0179  0.0520 -0.1551
 6967W        W23101   3.677  16.742  11.909  0.1891 -0.0596 -0.1575
 6968W        W23102   7.367  11.717  14.574 -0.0297 -0.2383  0.0538
 6969W        W23103  17.337  10.528  13.500 -0.1006  0.0470  0.0143
 6970W        W23104   5.524  18.026   5.670  0.0320 -0.0504 -0.2374
 6971W        W23105  14.235  16.969  14.003  0.1682 -0.0272 -0.1110
 6972W        W23106   9.289   7.107   1.104 -0.0163 -0.2420 -0.0130
 6973W        W23107   8.858   1.386  14.894  0.0203 -0.1675 -0.1237
 6974W        W23108  11.333  12.194   2.625  0.2907  0.1112  0.0187
 6975W        W23109  14.703   7.680  12.176  0.2568 -0.0369  0.1811
 6976W        W23110  10.193   3.834  14.048  0.1556  0.2124 -0.0314
 6977W        W23111   4.553  13.183   3.107 -0.0371 -0.1369  0.1457
 6978W        W23112  13.330   4.806   2.151 -0.2328 -0.3335 -0.0146
 6979W        W23113  12.832   3.018   2.594 -0.0680 -0.1328  0.0911
 6980W        W23114  11.614   0.992   0.093 -0.2656  0.0803  0.1116
 6981W        W23115  14.892   1.828  10.900 -0.3763  0.1953 -0.0701
 6982W        W23116  15.467  17.607   5.761 -0.4266  0.0505 -0.1152
 6983W        W23117  11.771   9.767   4.257  0.1424  0.0374  0.0847
 6984W        W23118  12.227  16.925  14.418  0.1692  0.0346 -0.0821
 6985W        W23119   3.114   4.553   2.182  0.0251  0.1853 -0.0357
 6986W        W23120   7.101  15.178   5.780 -0.2448  0.0077  0.1160
 6987W        W23121  15.856   1.346   1.932 -0.0756  0.3058 -0.2336
 6988W        W23122  16.227   5.943  13.340  0.0338 -0.1987 -0.0887
 6989W        W23123   3.624  14.070  14.929  0.0288  0.1499  0.2403
 6990W        W23124   3.513  16.679   3.978  0.2335 -0.1740 -0.0883
 6991W        W23125  11.349  15.449   3.660 -0.0653  0.0530  0.0017
 6992W        W23126   7.338   2.755  14.048 -0.0738  0.1389 -0.1781
 6993W        W23127   8.408  17.345   0.574  0.1600 -0.1338 -0.3140
 6994W        W23128  16.734   8.908   3.421  0.2745  0.0641 -0.1166
 6995W        W23129   3.998   8.534   1.517 -0.2044  0.2240 -0.1507
 6996W        W23130   7.979  15.391  12.605 -0.0553 -0.2000 -0.3660
 6997W        W23131  18.009  12.760   3.734  0.2158  0.1834  0.2645
 6998W        W23132   2.730  17.884  14.284  0.2213 -0.0589  0.0736
 6999W        W23133   6.842   0.587   4.881 -0.1866 -0.1735  0.1434
 7000W        W23134  11.718   8.455   3.118 -0.1378 -0.0993 -0.0314
 7001W        W23135  17.728  10.846   3.893  0.2632 -0.1242 -0.1598
 7002W        W23136  14.853   2.307  15.005 -0.1839 -0.0703 -0.4354
 7003W        W23137   0.457  10.560   5.326  0.1811  0.1698 -0.1141
 7004W        W23138   2.810  11.161   3.733  0.1364 -0.2563  0.0571
 7005W        W23139   7.152   8.481  11.974 -0.1015  0.2252 -0.2122
 7006W        W23140   0.092   7.159   4.391 -0.0310  0.1965 -0.0566
 7007W        W23141  12.594  13.856   4.360  0.4031 -0.1672  0.1878
 7008W        W23142   2.645   0.733  13.431  0.1751 -0.0296  0.0972
 7009W        W23143   9.068   7.804  12.512 -0.1880 -0.1461  0.0246
 7010W        W23144  11.414   2.360   1.413  0.0667  0.1021  0.0506
 7011W        W23145   7.694  15.644  11.683 -0.2021 -0.2599 -0.2743
 7012W        W23146  13.759   0.955  14.331  0.1443  0.1725 -0.1770
 7013W        W23147   5.232  13.450  13.447  0.0666  0.2280 -0.0443
 7014W        W23148  13.866  13.536  15.428  0.4320  0.0264  0.1020
 7015W        W23149   5.358  18.263   4.821  0.1509 -0.2934 -0.2897
 7016W        W23150   7.587   6.322   0.796  0.0704 -0.0223  0.0075
 7017W        W23151   4.191  11.136  12.689 -0.1143  0.0853 -0.0386
 7018W        W23152   5.201   4.954   3.140  0.0387  0.1798 -0.0988
 7019W        W23153   6.896  14.402  13.865  0.1333 -0.1758  0.0163
 7020W        W23154   0.778   0.756   4.525  0.1710 -0.2234 -0.0740
 7021W        W23155   6.138   3.611   3.902  0.3339  0.0097 -0.1000
 7022W        W23156   6.212  16.461  15.566  0.0383 -0.1543 -0.0933
 7023W        W23157  14.313   8.163  10.958  0.2381  0.0102  0.0091
 7024W        W23158   7.039   0.162   4.628  0.4802  0.0694 -0.1014
 7025W        W23159  15.585  18.309   0.608  0.0041 -0.0620 -0.0812
 7026W        W23160  15.198   4.255  14.743 -0.1471  0.0589 -0.0479
 7027W        W23161   9.697   5.789  15.370 -0.1798 -0.2395 -0.0257
 7028W        W23162  14.071  11.245  12.804 -0.3115  0.0972 -0.3162
 7029W        W23163  16.336  12.444  15.270  0.0931  0.1784  0.1747
 7030W        W23164  11.494   0.662   4.788 -0.0510  0.0141 -0.3004
 7031W        W23165   9.626   8.503   1.963  0.0372 -0.1284 -0.1082
 7032W        W23166   4.250  15.652   4.162 -0.2163  0.1572  0.2542
 7033W        W23167   7.654   5.934   3.136  0.1714 -0.1874  0.0461
 7034W        W23168   8.804   9.583   1.518  0.0153 -0.3014 -0.0585
 7035W        W23169   7.063   2.229   4.966 -0.0143  0.0294 -0.0321
 7036W        W23170   1.292   1.074   4.469  0.0312  0.1223  0.1015
 7037W        W23171   2.583   5.042  14.686  0.1326  0.1829  0.1955
 7038W        W23172  17.913  15.139   0.337 -0.1101  0.0701 -0.0746
 7039W        W23173  14.121  11.753  12.555  0.3000  0.1834  0.0298
 7040W        W23174   9.028   8.360  11.728 -0.0606 -0.3481  0.2052
 7041W        W23175  15.516   8.180   2.187 -0.1360  0.0668  0.0449
 7042W        W23176   7.649  14.750   2.913 -0.0407 -0.1864  0.1451
 7043W        W23177  10.525   1.296   4.082 -0.4173 -0.0433 -0.1826
 7044W        W23178   6.688   6.196   0.900  0.0569  0.3096  0.1770
 7045W        W23179   5.523  11.097  13.724  0.0538  0.1459  0.0611
 7046W        W23180  16.320   7.538  12.305  0.2780  0.2469  0.3090
 7047W        W23181   6.515   5.541  14.475 -0.0649 -0.1846 -0.1243
 7048W        W23182  13.073   9.487   4.897  0.0724 -0.1390  0.2392
 7049W        W23183  10.206  14.854   1.930 -0.0144  0.0030  0.0765
 7050W        W23184   9.733  17.267   1.901  0.0005  0.0537 -0.3592
 7051W        W23185  17.493  12.955   0.897  0.3967 -0.0463 -0.1287
 7052W        W23186   1.773  13.921   5.695  0.0229  0.0944  0.0463
 7053W        W23187   0.528  11.946  11.777 -0.2149 -0.1998 -0.0866
 7054W        W23188   5.196  17.933   5.274  0.1523 -0.1062 -0.3041
 7055W        W23189   1.711  17.324  12.522  0.1306 -0.0670 -0.2283
 7056W        W23190   9.299  11.595   1.294 -0.1119 -0.0233  0.1600
 7057W        W23191   7.125  15.086  12.424  0.4187  0.1521  0.0956
 7058W        W23192   1.233   3.036   3.995 -0.0622 -0.1028 -0.1129
 7059W        W23193   2.912  14.075  11.503 -0.0494 -0.2381  0.2333
 7060W        W23194   8.044  14.483  13.476  0.0344 -0.0654  0.1994
 7061W        W23195  18.324  11.365   1.875  0.1907 -0.4177 -0.1798
 7062W        W23196  10.909   0.477  10.780  0.1143 -0.3676  0.2041
 7063W        W23197  10.740  17.673   4.794 -0.3059  0.2115  0.2231
 7064W        W23198  11.104  15.726  14.471 -0.0358  0.2445 -0.2951
 7065W        W23199  11.249  17.814   0.365  0.1574 -0.1390  0.4120
 7066W        W23200   6.121  12.180  13.466  0.2517  0.2999 -0.0207
 7067W        W23201   9.221  10.608   3.801  0.0849  0.1414  0.1877
 7068W        W23202  13.590   9.344  12.463  0.1878  0.2157 -0.1635
 7069W        W23203  12.958  15.623   3.617  0.1620  0.2350  0.0507
 7070W        W23204   7.286   9.639  13.852  0.2343 -0.0317  0.2688
 7071W        W23205  15.619   6.634   4.084  0.1848 -0.0996 -0.2050
 7072W        W23206  15.116  16.097   1.767  0.1700 -0.0238 -0.2324
 7073W        W23207  12.795   3.610   3.746 -0.2047 -0.2092 -0.1623
 7074W        W23208  10.700  18.288  14.312  0.2094  0.0567  0.0823
 7075W        W23209  14.972  18.207   2.848 -0.0836  0.0105  0.1389
 7076W        W23210  15.265   7.417  11.363  0.0433  0.0966 -0.2348
 7077W        W23211  17.809   2.271  12.902  0.0232  0.0037  0.0871
 7078W        W23212  14.405   4.494   5.774  0.2578  0.0016 -0.0565
 7079W        W23213   0.310  15.935   5.658  0.0640 -0.0540 -0.1271
 7080W        W23214   4.612   9.658   4.009 -0.1185 -0.1495 -0.3206
 7081W        W23215  10.270   5.972   0.521 -0.0843  0.2142 -0.0376
 7082W        W23216  12.114   8.266  12.010  0.1701  0.0543  0.0941
 7083W        W23217  12.754   4.304  11.026  0.1615  0.2317 -0.3796
 7084W        W23218   3.399  12.696   4.411  0.0198 -0.2406 -0.1190
 7085W        W23219   5.984   9.265   2.598  0.0003  0.1972 -0.0653
 7086W        W23220  11.687   5.906  10.899  0.0301  0.0335 -0.2721
 7087W        W23221   7.656   0.360  11.011 -0.2194  0.0867  0.1061
 7088W        W23222  15.048   8.083   1.460  0.1417  0.0721  0.1668
 7089W        W23223   1.106  16.551   2.105  0.2024  0.0872 -0.1267
 7090W        W23224  12.555   2.460   2.376  0.1384 -0.1500  0.1018
 7091W        W23225  10.471   4.370   1.447 -0.0420 -0.1932 -0.1657
 7092W        W23226   9.912  18.507  14.597  0.1312  0.1340 -0.2146
 7093W        W23227   2.380   6.813  12.334  0.3923 -0.0474 -0.1758
 7094W        W23228   9.384   9.044  15.233 -0.1136 -0.0374 -0.2797
 7095W        W23229  13.457  10.063  11.324 -0.1138 -0.0866 -0.0519
 7096W        W23230  14.724   9.071   4.485  0.1441 -0.1297  0.3616
 7097W        W23231   8.365  13.170   4.014  0.1096 -0.0347  0.0511
 7098W        W23232  12.437   9.023   0.717  0.1327 -0.3881 -0.2862
 7099W        W23233   3.542   1.080  11.457 -0.1997 -0.0301 -0.0520
 7100W        W23234   8.524  14.971   1.449 -0.2383  0.0308  0.0526
 7101W        W23235  10.578   4.536   4.819  0.3025 -0.2913 -0.0910
 7102W        W23236   8.280   1.212  13.021 -0.4370  0.0349  0.1145
 7103W        W23237  12.921  18.382  13.279 -0.0335 -0.5443 -0.0120
 7104W        W23238   7.169   0.351   5.652  0.2667 -0.0161 -0.1479
 7105W        W23239   3.783  16.748  13.602  0.1113  0.1222  0.3303
 7106W        W23240  14.042   2.178   6.192  0.0726 -0.0571 -0.2252
 7107W        W23241   7.429   8.548   4.222  0.1331 -0.1194 -0.1133
 7108W        W23242   0.828  12.212   3.275  0.2505 -0.0342  0.1024
 7109W        W23243   6.639   9.196  12.270 -0.0159 -0.1207 -0.0862
 7110W        W23244   5.659  17.647  11.657  0.1393  0.0489  0.1803
 7111W        W23245   3.197  15.094  12.749  0.0812  0.1935  0.0357
 7112W        W23246  14.118   0.004  14.722 -0.1717  0.4931 -0.0940
 7113W        W23247  12.238   5.886   0.075 -0.1207  0.4178 -0.0208
 7114W        W23248  16.457   0.676   2.975 -0.2521 -0.3153 -0.1683
 7115W        W23249   7.182  13.964  11.721  0.2705  0.0279 -0.0159
 7116W        W23250   0.305  14.385   4.816  0.1038  0.2021  0.3789
 7117W        W23251   6.007  16.043  11.292 -0.0501 -0.2630  0.4285
 7118W        W23252  16.068  10.159  12.957  0.1188  0.0686  0.0601
 7119W        W23253   2.940  18.607   4.479 -0.0270  0.3438 -0.1577
 7120W        W23254   3.318   8.455   4.923  0.0861 -0.2644 -0.0471
 7121W        W23255   5.781  17.957   3.361 -0.2209 -0.2694 -0.2533
 7122W        W23256  17.864  16.981   5.185 -0.0066 -0.0633  0.1031
 7123W        W23257  17.649   3.319   4.857 -0.2737 -0.0388  0.2043
 7124W        W23258   2.713   6.135   3.079  0.2127 -0.0023 -0.2199
 7125W        W23259  14.208  16.318  14.523 -0.1314 -0.0088 -0.0923
 7126W        W23260  18.517  16.777  12.062  0.3683 -0.0731 -0.0106
 7127W        W23261   0.420   9.871   4.892  0.0366  0.2091  0.0886
 7128W        W23262   9.266   1.880  14.498 -0.2529  0.4768 -0.0715
 7129W        W23263   7.888  11.613  13.071 -0.3524  0.1412  0.1432
 7130W        W23264   1.500  17.715   4.347 -0.0912 -0.1244 -0.3094
 7131W        W23265  18.255   9.282   6.237 -0.0175 -0.1945  0.1166
 7132W        W23266  14.087   3.158   4.737  0.3109 -0.0072 -0.1282
 7133W        W23267   2.570   6.907  13.172 -0.2061 -0.1407  0.1304
 7134W        W23268  12.522  17.305   4.680 -0.0263 -0.0630  0.2873
 7135W        W23269   2.111   8.873  13.214 -0.1847  0.1330  0.0395
 7136W        W23270   5.849  11.046  13.283  0.0376 -0.2023  0.2552
 7137W        W23271   8.024   7.677  14.259  0.1424 -0.0270 -0.0719
 7138W        W23272  14.322   0.895   4.650  0.1386 -0.2645 -0.0468
 7139W        W23273   7.493  18.691   0.816 -0.2895  0.1353 -0.2617
 7140W        W23274  10.039   8.782  13.824  0.0945  0.0474  0.1810
 7141W        W23275  18.168   3.021   2.031  0.1294  0.0707  0.0389
 7142W        W23276   8.667   5.673  11.770 -0.0104  0.3530 -0.4341
 7143W        W23277   3.832   4.209  12.832  0.1513 -0.0505  0.1104
 7144W        W23278   4.827   3.932  13.224 -0.0440  0.1123  0.2192
 7145W        W23279  15.173   6.769   2.294 -0.2721 -0.1803 -0.1134
 7146W        W23280  12.851  16.726   2.204  0.2652 -0.1142 -0.2010
 7147W        W23281   2.482   8.948   0.363 -0.1128 -0.2901 -0.2015
 7148W        W23282   9.106   4.003   5.101  0.2562  0.4326  0.1057
 7149W        W23283  18.567   3.762   1.442 -0.2211 -0.0484  0.2644
 7150W        W23284  11.076   8.690   2.960  0.0301  0.0191 -0.3278
 7151W        W23285   5.070  13.919   3.265 -0.0029 -0.0831 -0.0819
 7152W        W23286  10.574  12.487   3.365  0.2724  0.0465 -0.0361
 7153W        W23287   7.773  16.872  14.818 -0.0547  0.0613  0.1004
 7154W        W23288  17.041   0.701   4.296  0.1070 -0.3499 -0.4548
 7155W        W23289   3.614  18.067   1.086  0.0066 -0.0440 -0.1117
 7156W        W23290  15.852  10.402   0.779  0.0265  0.0555 -0.1009
 7157W        W23291   0.853  10.727  12.867 -0.1957  0.1577  0.2692
 7158W        W23292   0.327  17.598  14.572  0.1266  0.0735  0.0006
 7159W        W23293   2.640  15.629   2.056 -0.0068  0.3871 -0.0714
 7160W        W23294   3.264   4.453  13.593 -0.0800 -0.0784  0.0050
 7161W        W23295  11.872  15.168   4.940  0.0964  0.0135  0.1177
 7162W        W23296  16.573   5.403   0.716  0.2351 -0.2860  0.2157
 7163W        W23297  10.558   5.511   3.984 -0.3093  0.0790 -0.1537
 7164W        W23298  16.965  11.936   0.831 -0.3954  0.0974  0.0453
 7165W        W23299  18.345   5.768   3.136  0.0861  0.0283 -0.1070
 7166W        W23300   0.266   9.485   1.891  0.1324 -0.3138 -0.0430
 7167W        W23301   6.683   9.544   0.304 -0.0638  0.1664  0.0914
 7168W        W23302   3.104  14.104  14.754  0.2468  0.0839 -0.1467
 7169W        W23303   1.122  14.225   2.420 -0.0955  0.1340  0.1471
 7170W        W23304  11.620  16.507   2.076  0.4210  0.0624  0.1689
 7171W        W23305  11.562  17.790   2.448  0.0201  0.0456 -0.3608
 7172W        W23306   2.901  17.674   0.925 -0.0243  0.3562 -0.0827
 7173W        W23307  14.545  11.429   0.674 -0.2567  0.0194  0.0151
 7174W        W23308  14.949  14.377  11.152  0.1154 -0.0007 -0.0038
 7175W        W23309   5.456   3.039   0.495  0.0309 -0.3277 -0.1576
 7176W        W23310   0.604   5.616  12.604 -0.0567 -0.0849  0.1597
 7177W        W23311   9.233   7.573   1.381  0.1870  0.2208  0.2727
 7178W        W23312   7.250  13.552   1.045  0.5128 -0.1371 -0.2024
 7179W        W23313  12.329   2.790   4.761  0.1385 -0.3263  0.3618
 7180W        W23314   1.714   6.674   0.657 -0.1405  0.0443 -0.0042
 7181W        W23315   1.039   5.110   4.197 -0.0458  0.1782 -0.0550
 7182W        W23316   9.319   7.682   0.914  0.0255 -0.1886 -0.4125
 7183W        W23317  16.083   0.022  11.226  0.1236 -0.3054 -0.0852
 7184W        W23318  10.733  13.543   3.115 -0.1965 -0.0792 -0.2650
 7185W        W23319  17.004  18.032  15.511 -0.0885  0.1236  0.0842
 7186W        W23320   4.638  13.976   0.668 -0.0794  0.2280  0.1876
 7187W        W23321  10.598  15.114  14.019  0.2380  0.0920 -0.1805
 7188W        W23322  12.790   5.221  10.778 -0.1004  0.2797 -0.1645
 7189W        W23323   1.234  10.570   1.795  0.3039 -0.4073  0.1342
 7190W        W23324  15.292  11.556  15.029  0.1897  0.0769  0.2045
 7191W        W23325   1.593  17.525   0.353  0.1370  0.0853  0.1915
 7192W        W23326   4.441   3.257  13.012  0.0092  0.0533 -0.0659
 7193W        W23327  18.673  10.042  15.245 -0.0863 -0.0311 -0.3313
 7194W        W23328  11.649  12.043   4.827 -0.1144 -0.1311 -0.1567
 7195W        W23329   5.244   7.501  14.410  0.2472  0.0035  0.1386
 7196W        W23330  16.218   3.777   4.425 -0.1344 -0.1323 -0.3202
 7197W        W23331  11.376  11.505  12.994  0.0785  0.1298 -0.0396
 7198W        W23332  10.487  15.057   2.233  0.1407 -0.0726 -0.2225
 7199W        W23333   0.133   5.311   5.642  0.0999  0.1805 -0.1805
 7200W        W23334  13.790  12.527   2.452 -0.0725 -0.3492  0.0467
 7201W        W23335  12.933   4.290  13.592  0.0694 -0.2712  0.1313
 7202W        W23336  14.224   5.506   5.872 -0.2088 -0.2247 -0.1294
 7203W        W23337   3.982  15.658   2.644  0.0801  0.1014  0.0035
 7204W        W23338   2.728   5.475  14.713  0.5790  0.5781  0.0399
 7205W        W23339  15.906  10.810   0.455  0.2114  0.0986 -0.1672
 7206W        W23340   8.157  10.175  14.082  0.0756  0.1972  0.3048
 7207W        W23341   9.386  11.222  13.046  0.0045  0.4450  0.0759
 7208W        W23342  14.370   5.076  11.216  0.1936  0.0957 -0.2187
 7209W        W23343   6.088  17.010  14.707 -0.1321  0.0765 -0.2176
 7210W        W23344  13.001   5.963   1.068 -0.1677 -0.3063 -0.2654
 7211W        W23345  10.694  12.008  11.185 -0.2780 -0.0248  0.1340
 7212W        W23346  16.422   4.918  11.077  0.2527 -0.2302 -0.0108
 7213W        W23347  15.991  11.015   4.492 -0.0641 -0.0600 -0.3116
 7214W        W23348   7.534   9.985   1.951  0.1513 -0.1183  0.2322
 7215W        W23349   0.679   2.150   1.540  0.0637  0.0844 -0.3335
 7216W        W23350   5.773   8.959   2.214  0.0879  0.2495 -0.0247
 7217W        W23351   6.825  10.905  13.165  0.1361  0.0977 -0.0238
 7218W        W23352   0.350   0.687   0.861  0.1391 -0.3684  0.1230
 7219W        W23353   2.903   7.757  12.743  0.2663  0.0406 -0.2172
 7220W        W23354  17.060  16.066   3.289  0.1800 -0.0266  0.2197
 7221W        W23355   9.747  15.508   1.969 -0.1200 -0.0059  0.2700
 7222W        W23356   1.805   2.828   2.868 -0.0115  0.2549  0.2313
 7223W        W23357   7.656  11.539   3.811  0.2191  0.1896 -0.0111
 7224W        W23358   6.158  16.224   1.190  0.1009 -0.1171 -0.0627
 7225W        W23359  12.529   6.804  13.318 -0.0247  0.1397 -0.1261
 7226W        W23360   8.070  12.172  11.968 -0.1617  0.4788  0.2252
 7227W        W23361   8.743  17.174   1.594 -0.4001 -0.2343 -0.0148
 7228W        W23362  16.993   8.278  12.863  0.0543  0.0725  0.2953
 7229W        W23363   2.290  15.694  11.426  0.2077  0.0317 -0.2460
 7230W        W23364   3.542   2.759  11.683 -0.0905  0.2009 -0.0027
 7231W        W23365  11.885   9.670   3.800  0.0953 -0.1106 -0.1878
 7232W        W23366  10.678   9.458   3.380  0.2250  0.0423  0.3194
 7233W        W23367   0.774   9.433   3.210  0.2530  0.0467 -0.2535
 7234W        W23368  11.101   8.857  14.743  0.2625 -0.0908  0.0376
 7235W        W23369  17.097  16.181   0.383  0.0285 -0.0264  0.1158
 7236W        W23370   8.725  17.636  12.635 -0.0057 -0.0138  0.1355
 7237W        W23371   4.868  15.701   1.600  0.0215 -0.0898  0.1696
 7238W        W23372  16.223   1.402   1.259  0.0763  0.0382 -0.1667
 7239W        W23373  15.920   9.860   5.257 -0.0800  0.0999  0.1017
 7240W        W23374  14.839  16.000  15.248  0.0674  0.2369 -0.0860
 7241W        W23375   2.568   9.682   2.150  0.2486  0.2513 -0.1414
 7242W        W23376   9.927   2.425  14.655 -0.1323  0.1898 -0.0161
 7243W        W23377   6.341  16.937  11.241  0.0014 -0.1454 -0.0156
 7244W        W23378  18.236  17.024   4.510  0.1174 -0.0690  0.1907
 7245W        W23379  16.284   2.867   1.275  0.0185 -0.0337  0.0742
 7246W        W23380  17.857  13.832   4.127  0.1038 -0.2082 -0.4161
 7247W        W23381   5.262   1.428   1.845  0.0930  0.1180  0.0651
 7248W        W23382  18.299  13.328   2.867 -0.2107  0.2435  0.0750
 7249W        W23383   5.419   8.263  10.291  0.3432  0.3533  0.2927
 7250W        W23384  12.631   9.424   4.615  0.0423  0.1086 -0.0216
 7251W        W23385  14.658  12.558  10.286 -0.0952  0.2123 -0.3225
 7252W        W23386   9.931   3.774   3.857 -0.4811  0.2529 -0.3824
 7253W        W23387   4.925  11.898   2.810  0.1310 -0.1584  0.0018
 7254W        W23388   1.568  15.410   0.161 -0.3062 -0.1086  0.3808
 7255W        W23389  13.695  16.853  13.799 -0.4983  0.0252  0.0669
 7256W        W23390   1.255   4.046  14.161 -0.2412  0.0752 -0.0557
 7257W        W23391  12.350   6.790   1.861 -0.0040 -0.1844 -0.1302
 7258W        W23392  17.529   7.392   2.601 -0.0466 -0.0835 -0.1269
 7259W        W23393  17.440   1.662  15.529  0.1005 -0.0128  0.0337
 7260W        W23394  12.736  15.218   3.465  0.1136  0.3344  0.1978
 7261W        W23395  18.710  14.659   4.374  0.1057  0.0302 -0.0968
 7262W        W23396   5.352  10.617   3.650 -0.0466  0.2025 -0.2298
 7263W        W23397  14.728   8.666  13.769  0.0075  0.0628  0.0926
 7264W        W23398   6.164  12.472  10.469 -0.1740 -0.0281 -0.1646
 7265W        W23399   6.486   0.541  10.921 -0.0117  0.0725  0.4125
 7266W        W23400  13.733   5.787  14.599  0.0843  0.0148 -0.2454
 7267W        W23401   6.456   6.037  15.502  0.0910  0.1775 -0.0802
 7268W        W23402  11.053   6.262   0.307 -0.0097 -0.1967  0.1335
 7269W        W23403   1.766   7.353   2.227 -0.0354 -0.0570  0.0122
 7270W        W23404   7.403  16.285   1.161  0.0120  0.1278 -0.3392
 7271W        W23405   7.352  12.211  12.771  0.1909 -0.2155 -0.0420
 7272W        W23406  10.669   5.671   9.785  0.0401 -0.3818  0.1911
 7273W        W23407   6.132   6.241   3.628 -0.1785  0.0728 -0.1927
 7274W        W23408   6.922  10.404   2.433 -0.0706  0.2322  0.0163
 7275W        W23409   3.773   5.060  13.024 -0.0039 -0.1472 -0.3148
 7276W        W23410   8.276   9.760   2.491  0.3467  0.3304 -0.0426
 7277W        W23411   4.252  14.291   2.715  0.0526 -0.0954  0.0569
 7278W        W23412   0.760   8.422   4.217  0.0331  0.0852 -0.1240
 7279W        W23413  18.111   9.495   3.498 -0.0128  0.2162  0.0330
 7280W        W23414   5.461  10.453  14.051 -0.0284  0.0085  0.3294
 7281W        W23415   7.442  10.568  11.031  0.0347 -0.2932  0.1691
 7282W        W23416  18.402   7.638  13.982  0.5907 -0.0262 -0.0523
 7283W        W23417  16.829   8.320   0.371 -0.0640 -0.1472 -0.2232
 7284W        W23418  12.052   4.192  14.584 -0.0063  0.1145 -0.1388
 7285W        W23419  16.498  11.871   0.591  0.0271  0.1703 -0.0604
 7286W        W23420  15.439  18.055  11.137  0.1525 -0.0717 -0.5071
 7287W        W23421   3.187  11.578   3.739  0.1684  0.2312  0.0320
 7288W        W23422   4.288   4.572  13.392  0.0693  0.0529 -0.2453
 7289W        W23423   6.966  15.201  15.440 -0.1729 -0.0942 -0.0591
 7290W        W23424   3.454   6.656  14.969  0.2665  0.2841  0.1417
 7291W        W23425  15.182  17.251  15.233 -0.0462 -0.0128  0.0722
 7292W        W23426   0.482  10.842   3.972 -0.3026 -0.1563  0.0069
 7293W        W23427  14.150   5.155   1.662 -0.0043 -0.1333  0.0929
 7294W        W23428  12.434  12.130  13.729 -0.2086 -0.2842  0.3482
 7295W        W23429  15.338   6.348  12.587  0.0365  0.2867 -0.1113
 7296W        W23430  17.108  12.697   3.995 -0.0044 -0.2782  0.0307
 7297W        W23431  15.384  11.179  11.371  0.0322 -0.1099  0.0480
 7298W        W23432   5.756  18.065  14.589  0.0043 -0.2825 -0.2196
 7299W        W23433  11.314   5.626   3.580 -0.1039 -0.0139  0.2159
 7300W        W23434   0.478   4.095   2.005  0.1801 -0.3021  0.0033
 7301W        W23435   2.551   5.515   0.951  0.1096 -0.2658  0.0668
 7302W        W23436  14.918  14.107   2.553  0.2179 -0.1259 -0.0240
 7303W        W23437  13.720   6.504  12.894  0.1170 -0.0140  0.3186
 7304W        W23438  11.094   0.494  15.130 -0.0203  0.0344 -0.0309
 7305W        W23439  14.671  15.502   0.447 -0.0379 -0.3173  0.0348
 7306W        W23440  13.459   1.411  13.149  0.2041 -0.1221 -0.3411
 7307W        W23441   9.212  14.744  15.148  0.3046 -0.0530 -0.0242
 7308W        W23442   3.432   6.346  10.527 -0.2882 -0.2896  0.1345
 7309W        W23443   5.690   1.835  10.278  0.0715 -0.1131  0.2303
 7310W        W23444   9.337  13.536   3.106  0.1009 -0.1018 -0.0076
 7311W        W23445  11.458  10.409   0.534  0.1310  0.0948 -0.3420
 7312W        W23446  17.188   9.407   6.004  0.0221 -0.0633 -0.0601
 7313W        W23447  12.756   5.980   2.507 -0.0620 -0.3419 -0.1305
 7314W        W23448   1.708   4.161   0.767 -0.2576 -0.0759  0.1227
 7315W        W23449   2.305   0.603  14.399 -0.0898  0.2938 -0.3738
 7316W        W23450  12.294  14.984  12.829  0.0214  0.0208  0.1614
 7317W        W23451   7.361  14.093  14.065  0.2330 -0.1553  0.1091
 7318W        W23452   6.265   6.404  14.158 -0.3600  0.2139 -0.0969
 7319W        W23453  13.574   6.241   0.244  0.2118 -0.0655 -0.3686
 7320W        W23454   8.222  15.322  13.075 -0.1156 -0.0959 -0.1139
 7321W        W23455   5.966   6.991  11.377 -0.0769  0.0901 -0.2027
 7322W        W23456  10.901  16.311  15.464 -0.0013 -0.0256 -0.0967
 7323W        W23457   9.171  11.399   4.823 -0.0164  0.0959  0.0709
 7324W        W23458  16.890   3.355  11.922 -0.0868 -0.2751 -0.2580
 7325W        W23459   5.169  10.639  13.672 -0.1259  0.2205 -0.0175
 7326W        W23460   7.541  13.837  14.566  0.0223 -0.2493 -0.1788
 7327W        W23461  18.457  17.829   3.107  0.3566 -0.2956 -0.1120
 7328W        W23462   8.781  17.419  10.450  0.1712  0.1825  0.2616
 7329W        W23463  13.270  13.099   2.860 -0.2225 -0.1537  0.2228
 7330W        W23464   0.890  17.240   3.838 -0.2497 -0.4375  0.0208
 7331W        W23465  14.615  15.872  10.286  0.2273  0.1876 -0.0059
 7332W        W23466  15.201   2.849  14.148 -0.1911  0.2075 -0.0658
 7333W        W23467   4.419  14.892   3.866 -0.0381 -0.2322  0.3371
 7334W        W23468  17.045   3.813   1.968 -0.3267 -0.2065  0.0734
 7335W        W23469  12.466  16.012   4.151 -0.1372  0.0766  0.0712
 7336W        W23470  18.607   4.331  13.959 -0.0486  0.2445 -0.1943
 7337W        W23471  17.213   7.651  13.468  0.1637  0.1169 -0.5100
 7338W        W23472  18.675  11.818   4.042  0.1382  0.2102  0.1367
 7339W        W23473  11.219  14.314   5.896  0.0703  0.0883  0.2393
 7340W        W23474   6.544  10.045   0.512 -0.1756 -0.2722 -0.1641
 7341W        W23475  18.177  11.084   4.384  0.3353  0.3098  0.0904
 7342W        W23476  14.214  16.175  10.073 -0.1109 -0.2071  0.1806
 7343W        W23477   9.776   6.642  11.158 -0.2001 -0.1941 -0.2563
 7344W        W23478   7.141   6.037   0.658 -0.0262 -0.1609  0.0230
 7345W        W23479   6.173   2.720   1.292  0.1525 -0.1837 -0.2118
 7346W        W23480  13.892  11.830  15.165 -0.2006 -0.0936  0.0590
 7347W        W23481  11.493  13.608   0.255 -0.0323 -0.0240 -0.2568
 7348W        W23482   8.108  12.231   3.992  0.1496  0.2576 -0.0434
 7349W        W23483  13.990  15.204   2.565  0.3163 -0.0334  0.0089
 7350W        W23484   2.059   1.252  13.566 -0.2570  0.4250 -0.1671
 7351W        W23485  14.434   1.344  10.638 -0.1564 -0.1553 -0.0938
 7352W        W23486  14.042   8.343  15.248  0.0626  0.1009 -0.2922
 7353W        W23487   8.939  10.098  14.668 -0.3518 -0.0708 -0.2600
 7354W        W23488   1.196   5.101  13.117  0.1243  0.1280 -0.1598
 7355W        W23489   8.138  13.535   4.837 -0.0811  0.1879  0.0661
 7356W        W23490  16.946   2.369  15.124 -0.0071 -0.4640 -0.3805
 7357W        W23491  14.494   5.871   3.886 -0.0130  0.2239  0.1531
 7358W        W23492   2.402   2.938   5.330 -0.0439 -0.1709  0.1723
 7359W        W23493  18.189  18.127  11.168 -0.0080  0.1168  0.2547
 7360W        W23494  14.805   4.336  12.891  0.1731 -0.1227 -0.1176
 7361W        W23495   5.528   1.254   0.324 -0.1842  0.0349  0.3113
 7362W        W23496  16.266   8.376  13.713 -0.0040 -0.0741 -0.2810
 7363W        W23497   1.444  12.881  12.134  0.1329 -0.1094 -0.3560
 7364W        W23498   8.606  10.815   4.232  0.1600 -0.0049 -0.1375
 7365W        W23499  16.893   3.412  13.132  0.2072  0.0655 -0.1936
 7366W        W23500   7.232  13.715  12.437 -0.0890  0.0533 -0.3512
 7367W        W23501  12.516  13.534   1.777 -0.1117  0.0590  0.0040
 7368W        W23502   6.950   8.433  12.619 -0.0377 -0.2315 -0.0839
 7369W        W23503   3.358  18.468   1.181  0.0554  0.0709  0.0057
 7370W        W23504   6.505  11.929   5.636 -0.1393 -0.3610 -0.2689
 7371W        W23505   2.723  14.741   9.590  0.0390 -0.2478 -0.3029
 7372W        W23506   1.158  18.027   4.459  0.2980  0.0512  0.0338
 7373W        W23507  15.057   6.668   1.538 -0.0565 -0.1541 -0.2452
 7374W        W23508   7.421   9.699   9.852 -0.1253  0.0887  0.2666
 7375W        W23509   9.069   4.974  12.907  0.0322  0.2690  0.3518
 7376W        W23510   9.116  10.704   4.246 -0.0432  0.1254  0.1539
 7377W        W23511  10.974  12.663   1.861 -0.2859  0.0268  0.0484
 7378W        W23512   6.010   7.104  11.988  0.0079  0.0947  0.0128
 7379W        W23513  10.856  10.885  15.186  0.3415  0.1625  0.0782
 7380W        W23514  18.597  15.569   2.388 -0.0804 -0.0074  0.3573
 7381W        W23515   8.504  15.527  14.458 -0.1111  0.2377  0.0365
 7382W        W23516  17.797   3.038  12.839 -0.1210  0.0759  0.2488
 7383W        W23517   3.058  12.094  11.489  0.2477 -0.2478 -0.1066
 7384W        W23518   6.386  13.460   2.718  0.1363  0.2238 -0.0581
 7385W        W23519   1.866   7.113   1.540  0.0457  0.0183 -0.0116
 7386W        W23520  14.198   0.199  11.988 -0.0023  0.1841  0.4188
 7387W        W23521  14.489  14.246   4.856 -0.0315 -0.4025 -0.1162
 7388W        W23522   9.240   6.979   5.630  0.1630  0.2443 -0.1402
 7389W        W23523   0.904  12.619  15.008 -0.2879  0.0475  0.1628
 7390W        W23524   4.442  17.085   4.154 -0.2112  0.4002  0.2610
 7391W        W23525   6.751  11.415   9.718  0.0578  0.1333 -0.4880
 7392W        W23526   1.533  10.325   2.462  0.1034 -0.1585  0.0342
 7393W        W23527  10.328  16.516   3.139  0.0983  0.0019 -0.3914
 7394W        W23528   7.959  17.902   0.238 -0.1330 -0.1389  0.1428
 7395W        W23529  17.112   7.578   4.304 -0.1521 -0.0397 -0.4093
 7396W        W23530  12.178   4.653  11.397  0.1774 -0.1258  0.2784
 7397W        W23531  17.889   8.967  14.329 -0.1573  0.2253  0.0266
 7398W        W23532  17.960  16.055   4.234 -0.1187 -0.2596 -0.1304
 7399W        W23533   7.075  12.635   0.207 -0.3383 -0.1802  0.1714
 7400W        W23534   5.876  16.207   4.824  0.0353 -0.0340 -0.1127
 7401W        W23535  14.446  14.191   2.441 -0.1280 -0.2059 -0.0755
 7402W        W23536   5.362   7.958   0.220  0.1363  0.2847  0.1500
 7403W        W23537   2.048  15.285   0.066  0.0056 -0.2414  0.0770
 7404W        W23538  13.535   8.303  14.387  0.0900 -0.0923  0.0369
 7405W        W23539   9.764  15.486   0.458  0.2714  0.2621 -0.1249
 7406W        W23540   0.659   8.069   4.561 -0.1737 -0.1900  0.3136
 7407W        W23541   8.548  16.911   3.456  0.1926  0.0289 -0.2004
 7408W        W23542   0.934  10.970   1.940  0.0731 -0.3502  0.0687
 7409W        W23543  13.913   9.538   1.512  0.3285 -0.1331  0.2454
 7410W        W23544  12.590   0.465  12.114  0.4433  0.0597 -0.0328
 7411W        W23545   4.892   8.660  12.783 -0.1986  0.2072  0.0727
 7412W        W23546  18.278   2.767   1.063  0.0616 -0.0076  0.3324
 7413W        W23547  16.137  18.645   3.611  0.1805  0.2670 -0.0706
 7414W        W23548  12.508   3.395  10.856  0.0888 -0.1251  0.3310
 7415W        W23549   5.130  10.968  14.017 -0.1509 -0.1530 -0.0861
 7416W        W23550   8.627  10.908  13.549 -0.0089  0.0784  0.0599
 7417W        W23551  17.067  11.677   1.451 -0.0248  0.0234  0.2757
 7418W        W23552  13.547   7.106   5.430  0.4046  0.1589  0.3180
 7419W        W23553  16.584   6.581  11.245 -0.2941  0.1589 -0.0618
 7420W        W23554  10.538   9.593  15.466 -0.1848  0.0100 -0.0037
 7421W        W23555   9.403   1.191  11.784  0.3737  0.0412  0.0591
 7422W        W23556   3.600   3.290   3.828  0.3089 -0.2070 -0.1338
 7423W        W23557   7.154   4.719  15.494 -0.0263 -0.4045 -0.2500
 7424W        W23558  10.610  14.895   3.359  0.3518 -0.1237 -0.2145
 7425W        W23559   2.006  14.330  14.253 -0.1102 -0.3621  0.1765
 7426W        W23560  12.924  13.316  14.223  0.0489  0.1848  0.0912
 7427W        W23561   0.808   6.568  13.563  0.1021 -0.2106  0.0402
 7428W        W23562  16.231  16.946   3.204 -0.2365  0.1563  0.1347
 7429W        W23563   3.397  13.638  13.088 -0.0854 -0.1659 -0.0588
 7430W        W23564   3.588  13.921   0.094  0.1041  0.2763  0.2087
 7431W        W23565  14.147   4.723   4.566 -0.2437  0.1403  0.3219
 7432W        W23566  10.411   2.073   1.141  0.1309  0.4252 -0.3690
 7433W        W23567   2.080   8.358  10.848  0.1129  0.1856  0.1224
 7434W        W23568  16.685  15.630   3.964  0.1459  0.1072 -0.0264
 7435W        W23569  14.226  15.365  14.748  0.4525 -0.2715  0.2045
 7436W        W23570  11.541   6.423   0.741  0.2900 -0.2696 -0.0700
 7437W        W23571  14.838   9.648  11.874 -0.4488  0.0832  0.0917
 7438W        W23572   4.445  17.349  12.196 -0.0880  0.0345 -0.0691
 7439W        W23573   2.562   2.041   2.445  0.0019 -0.1493 -0.2009
 7440W        W23574  13.882  18.310   2.105 -0.1531 -0.2443 -0.0703
 7441W        W23575  13.767  13.054   2.748  0.1024 -0.2206  0.2420
 7442W        W23576  12.313   0.980   0.703 -0.3066  0.1490  0.0030
 7443W        W23577   3.482   6.449   0.529 -0.2090 -0.1845 -0.0100
 7444W        W23578   5.326  15.248  13.141  0.2729  0.1154 -0.0137
 7445W        W23579  12.764  15.328   5.241  0.0270 -0.0183  0.1362
 7446W        W23580   8.993  12.578   4.126  0.2488 -0.2203  0.1767
 7447W        W23581   1.852  18.364   3.561 -0.1251 -0.3815 -0.2277
 7448W        W23582   2.167  17.760   0.542  0.1389 -0.0479  0.1206
 7449W        W23583   0.197   0.415  11.652  0.1509 -0.5035  0.1570
 7450W        W23584   2.920   0.161  12.823  0.1466 -0.2474  0.1665
 7451W        W23585   3.448   7.841   1.949  0.2242 -0.2202 -0.1695
 7452W        W23586  14.745  14.423   5.326 -0.0352 -0.1046 -0.2581
 7453W        W23587   5.626   6.454  14.736 -0.3068  0.1164  0.2522
 7454W        W23588  10.799  12.256  14.527 -0.2507 -0.0382 -0.2902
 7455W        W23589   7.153  11.820   3.420 -0.0558  0.1650  0.0473
 7456W        W23590   8.599  12.902  11.084  0.3107 -0.0110  0.3334
 7457W        W23591   3.306   6.258   1.029  0.0031  0.2645  0.1333
 7458W        W23592  12.402  18.142   1.819 -0.0786 -0.2361  0.0572
 7459W        W23593   7.544   3.292  14.320  0.0044  0.1527  0.3080
 7460W        W23594  18.376   2.595  13.522 -0.1184  0.1040 -0.0710
 7461W        W23595   9.600  16.938   2.729  0.2613 -0.1384  0.0607
 7462W        W23596   3.603  13.566  14.007  0.2154  0.1933 -0.0082
 7463W        W23597   9.233  10.713   1.092  0.1700 -0.3823 -0.1776
 7464W        W23598   6.055   3.482   0.648  0.1000  0.2689  0.0722
 7465W        W23599  13.938  18.221   1.154 -0.1358 -0.0445 -0.0085
 7466W        W23600  10.290  16.236  12.390  0.0396  0.0507 -0.2959
 7467W        W23601   7.947   8.071  10.804  0.0940  0.1222  0.0096
 7468W        W23602   2.199   6.152   1.210  0.1453  0.2661 -0.1000
 7469W        W23603  15.288   1.301  14.242 -0.0404 -0.2085 -0.2566
 7470W        W23604   2.170   6.930  15.181 -0.0162 -0.0051 -0.1878
 7471W        W23605  18.508   0.840   4.333 -0.0129 -0.1736  0.0563
 7472W        W23606   4.724  18.208   3.932  0.3036  0.0292 -0.1385
 7473W        W23607  15.520  18.318   2.056 -0.4726 -0.1761  0.1893
 7474W        W23608   9.504   6.182   0.063  0.1118 -0.0146 -0.1095
 7475W        W23609   6.445   9.162   0.913  0.0367  0.0342 -0.3110
 7476W        W23610   3.425   7.562   0.439 -0.1692 -0.4470  0.2151
 7477W        W23611   4.978   4.407   2.406  0.0178  0.2254  0.0443
 7478W        W23612   0.041   0.922  14.628  0.0451  0.1447  0.3016
 7479W        W23613  11.651   8.258  11.039  0.2245 -0.1306 -0.1841
 7480W        W23614  13.538   1.732  14.769 -0.1039  0.2037 -0.2832
 7481W        W23615   7.248  14.831  14.600 -0.1328 -0.1423  0.2203
 7482W        W23616   1.450   9.405   0.717  0.1476 -0.4038  0.1480
 7483W        W23617  15.657  12.208   2.938 -0.2513 -0.3803  0.0123
 7484W        W23618  16.856   5.432   9.957 -0.1801 -0.0658  0.0419
 7485W        W23619   9.271   5.352  13.544 -0.1800 -0.1569 -0.2779
 7486W        W23620   3.748  13.709  11.688  0.2589 -0.0929 -0.2191
 7487W        W23621   7.606  11.464   4.340 -0.1600  0.0401  0.3596
 7488W        W23622  17.155  17.330  13.232  0.0271 -0.2889  0.0057
 7489W        W23623  11.166   8.418  12.133  0.0253  0.1510 -0.3953
 7490W        W23624   0.653   6.286   9.754 -0.0217 -0.1742  0.1309
 7491W        W23625   6.070  17.663   4.371  0.0305 -0.1030 -0.1559
 7492W        W23626   7.870  10.613  11.619 -0.2008 -0.1775  0.1712
 7493W        W23627   9.228   9.368   2.031  0.2061 -0.3091  0.0669
 7494W        W23628   5.783   0.773  14.917 -0.2417  0.1185  0.1335
 7495W        W23629   7.498  18.115   3.660  0.0030 -0.0817  0.2446
 7496W        W23630   7.074   3.324   0.587  0.1843 -0.0584  0.0237
 7497W        W23631  14.091  15.607   0.230  0.1277 -0.3082 -0.0761
 7498W        W23632  12.071  16.831   0.073 -0.2788  0.0399 -0.0833
 7499W        W23633  13.491   5.444  11.278 -0.0877 -0.1267  0.5104
 7500W        W23634   3.463   8.985   2.472 -0.1071  0.1907  0.2472
 7501W        W23635   0.155  17.867  12.310  0.1058 -0.0364 -0.1350
 7502W        W23636  17.896  16.437  11.569  0.0657 -0.0681 -0.0684
 7503W        W23637  14.271  14.482  15.102  0.1203  0.1360 -0.2002
 7504W        W23638  14.976  10.271   0.615 -0.0219  0.0528 -0.0482
 7505W        W23639  18.228  17.494   4.435 -0.3872 -0.0246 -0.2356
 7506W        W23640  15.984  13.434   3.358  0.1883  0.2270  0.2640
 7507W        W23641  17.609  11.403  12.477 -0.2404 -0.0024 -0.0432
 7508W        W23642  16.765  12.355  12.605 -0.2590  0.0599  0.0163
 7509W        W23643  16.574   9.187   1.028  0.1755 -0.0638  0.3927
 7510W        W23644  10.817   7.591   5.272 -0.3530 -0.1008  0.0383
 7511W        W23645   6.503   2.413   0.162 -0.1070  0.0099 -0.3363
 7512W        W23646  11.581  16.963   4.453 -0.0548  0.1957  0.0131
 7513W        W23647  17.474   2.987  13.589  0.0198  0.0293  0.1304
 7514W        W23648   1.560  11.269   1.372 -0.2472 -0.0503  0.1778
 7515W        W23649  17.016  12.231  13.451  0.0621  0.0434 -0.1264
 7516W        W23650   8.822   3.794   4.692 -0.0465 -0.1979  0.1439
 7517W        W23651  13.488  14.403   3.980  0.0672 -0.0107  0.0030
 7518W        W23652  11.434  10.556  14.629 -0.1255 -0.2203  0.2996
 7519W        W23653  11.558  18.388  11.795  0.0738  0.1475  0.1856
 7520W        W23654  14.293  12.203  11.087 -0.0265 -0.1771  0.2276
 7521W        W23655   3.986   5.970  12.666  0.1718 -0.0137 -0.0842
 7522W        W23656  14.702   4.706   0.788  0.1079 -0.0654 -0.3663
 7523W        W23657  10.011  10.699   4.813 -0.2258  0.3640 -0.3827
 7524W        W23658   4.887   0.556   0.884  0.3209  0.0809  0.0198
 7525W        W23659  10.139  15.014   3.536 -0.2651 -0.0481 -0.4817
 7526W        W23660   4.387   9.578   4.911 -0.0396 -0.0911  0.1612
 7527W        W23661  13.652  16.279   1.791  0.0702  0.0297 -0.2474
 7528W        W23662  17.319  10.504   3.056 -0.1405 -0.2579  0.0964
 7529W        W23663   7.101   0.515  14.809  0.2945 -0.1375  0.0843
 7530W        W23664   9.702   9.031  12.567 -0.1441  0.3569  0.0529
 7531W        W23665   0.005  13.072  13.854  0.4101  0.1773  0.0136
 7532W        W23666  12.500  13.619   2.306 -0.2168  0.3895  0.0972
 7533W        W23667  16.596  15.991  12.533 -0.2687 -0.0974  0.0517
 7534W        W23668  16.050   1.894   4.128 -0.4526 -0.4333  0.1284
 7535W        W23669   8.621  16.323   4.434  0.1752  0.1276  0.1861
 7536W        W23670   1.082  14.578  13.264 -0.2178 -0.0051 -0.2149
 7537W        W23671   2.066   1.093  14.214  0.3443  0.0324  0.0110
 7538W        W23672   5.343  12.428  11.639 -0.1572  0.3607  0.0923
 7539W        W23673   2.431  17.225  14.175  0.1927  0.0015  0.0884
 7540W        W23674  12.673   3.407  12.700  0.1229 -0.2708  0.0778
 7541W        W23675  12.660   2.021  15.358  0.1287 -0.2644  0.0772
 7542W        W23676   7.998   1.965   1.855  0.0948 -0.0353  0.1551
 7543W        W23677   9.380  16.461  12.218 -0.3047  0.0552  0.0058
 7544W        W23678   7.212  16.864  12.088  0.2655  0.2528 -0.2327
 7545W        W23679  14.410   2.597  14.018  0.1365  0.2292 -0.1439
 7546W        W23680  15.596   8.706  14.159 -0.1288 -0.3135 -0.0400
 7547W        W23681  16.325  15.459   1.187  0.2438 -0.1506  0.0671
 7548W        W23682  17.754  13.921   2.974 -0.1076 -0.1392 -0.0997
 7549W        W23683   5.250   0.670   1.274  0.2011 -0.2715 -0.2073
 7550W        W23684  10.731   7.896   2.777  0.0058  0.1267 -0.1731
 7551W        W23685   8.133   9.870  13.098 -0.0480  0.2345  0.0563
 7552W        W23686  10.125  13.445   4.523 -0.1183  0.0820 -0.1125
 7553W        W23687   9.875  10.086   0.588  0.0012  0.1161 -0.0237
 7554W        W23688  10.303   3.679   3.571  0.0203 -0.1429  0.1871
 7555W        W23689  17.732   8.840  13.641 -0.1214  0.1214  0.0417
 7556W        W23690  10.534  16.476   4.835 -0.2928  0.5201 -0.1664
 7557W        W23691  11.919  12.214  12.926 -0.1360  0.2128 -0.0519
 7558W        W23692  16.427   0.110  13.098  0.1779 -0.1110 -0.0290
 7559W        W23693   9.341   6.871  12.401 -0.0764 -0.1803  0.1127
 7560W        W23694   7.521  10.228  14.449  0.0882 -0.3145  0.1136
 7561W        W23695  12.590  13.270   4.378  0.1175  0.0652  0.3329
 7562W        W23696  14.632   3.116   1.401  0.1039 -0.0437  0.2320
 7563W        W23697   4.302   4.876   2.532  0.1284 -0.1227  0.1644
 7564W        W23698   9.218  12.231   3.180 -0.0387  0.0018  0.2950
 7565W        W23699  12.530  12.209   3.600  0.0685  0.2920 -0.0744
 7566W        W23700  16.800  15.316   1.160 -0.1941  0.1753  0.1383
 7567W        W23701  12.499   1.487   0.586 -0.1469  0.0536 -0.2044
 7568W        W23702   3.632   1.682  12.883 -0.0462  0.1942  0.0665
 7569W        W23703   6.837  10.739  14.677  0.0895  0.0193 -0.1521
 7570W        W23704  16.404   3.130   4.614 -0.0136 -0.1744  0.1237
 7571W        W23705   4.184   3.161   1.856 -0.2328 -0.1761 -0.1698
 7572W        W23706  11.268  18.372  15.217  0.0593 -0.0802 -0.0890
 7573W        W23707   3.537   8.039   4.640  0.2081  0.1212 -0.1406
 7574W        W23708   1.109   4.623   4.203  0.3021  0.3086 -0.0334
 7575W        W23709   0.454  18.635   6.123 -0.1056 -0.1113  0.1310
 7576W        W23710   0.198   7.685   2.913 -0.2697 -0.0078 -0.3113
 7577W        W23711   9.149   5.783  11.531 -0.0112  0.0614  0.0005
 7578W        W23712  14.888   2.658  13.233 -0.0523 -0.1830  0.0603
 7579W        W23713   6.064  17.945   0.739 -0.4982 -0.1166  0.2453
 7580W        W23714   7.001  14.086  12.174  0.3185 -0.0738 -0.3041
 7581W        W23715  16.483   8.221   0.710 -0.1264 -0.3038 -0.2968
 7582W        W23716   7.585  13.379   1.464 -0.0857  0.0387  0.1100
 7583W        W23717   5.635   1.273  13.546  0.2484 -0.0115 -0.2365
 7584W        W23718  10.301   7.441   2.760  0.2280  0.1247  0.1930
 7585W        W23719   4.652  11.882  12.448  0.0893  0.2153 -0.2227
 7586W        W23720  18.181   1.427   1.799  0.2327  0.1569 -0.1597
 7587W        W23721  10.199   3.412   2.150 -0.0587  0.0863 -0.4130
 7588W        W23722   4.966   3.485  12.227 -0.0527 -0.5619 -0.0375
 7589W        W23723  11.948  11.435  12.270  0.3583 -0.0518 -0.0451
 7590W        W23724  16.758   0.999  14.446 -0.0293 -0.2696  0.1999
 7591W        W23725  17.642  17.307  15.317  0.2450 -0.0509  0.1882
 7592W        W23726  10.910   4.436  11.821 -0.1241 -0.1176 -0.1076
 7593W        W23727   6.080   5.435   3.691  0.0224  0.1501  0.0037
 7594W        W23728  15.822   3.605   4.727  0.1191  0.1304 -0.1703
 7595W        W23729  16.391  16.358   1.231 -0.0509  0.0888  0.3435
 7596W        W23730   0.025  13.476  14.407  0.1180  0.2099  0.0875
 7597W        W23731   3.736   6.075   1.848  0.2183 -0.1434 -0.1497
 7598W        W23732   8.437  14.146  14.350  0.1777 -0.0067 -0.1470
 7599W        W23733   4.975   7.797   4.250  0.1138 -0.1789 -0.0006
 7600W        W23734   6.310  16.377   3.956 -0.1405 -0.0905 -0.1284
 7601W        W23735   6.230  18.302  13.901 -0.0035 -0.0230 -0.1789
 7602W        W23736   0.544  17.261  11.785 -0.3993 -0.1800  0.1156
 7603W        W23737  14.032   9.055   1.635 -0.0396 -0.0133  0.1804
 7604W        W23738   7.170   1.629  12.796  0.1298 -0.1377 -0.1185
 7605W        W23739  16.096   8.157   1.850  0.0363 -0.0306  0.2176
 7606W        W23740   0.708  15.735   3.580 -0.1589  0.3055 -0.2756
 7607W        W23741   2.275  16.332  15.286 -0.2183  0.0067 -0.0121
 7608W        W23742   5.159   3.305  11.047 -0.2097  0.0913 -0.2925
 7609W        W23743   9.498  16.895   1.592  0.0599  0.4253  0.0990
 7610W        W23744   7.977   3.167   1.245  0.1062 -0.1425 -0.1987
 7611W        W23745  11.619  13.246   1.709 -0.1931 -0.1077  0.1057
 7612W        W23746   2.289   7.549   2.827 -0.2861 -0.1328 -0.1466
 7613W        W23747  11.157  17.385  12.104  0.1197  0.0035  0.0035
 7614W        W23748   8.272  12.044  15.004 -0.0970 -0.1995  0.2810
 7615W        W23749   9.492  16.634  12.831 -0.1376 -0.2256  0.2501
 7616W        W23750   1.090   7.630  11.330  0.0176 -0.1030 -0.0706
 7617W        W23751  10.419   0.463   3.236  0.0375 -0.0602 -0.0848
 7618W        W23752   7.666   8.331  11.989 -0.1685  0.1581  0.0675
 7619W        W23753   8.373  13.211  13.244  0.0381  0.2543 -0.0005
 7620W        W23754   9.346  17.911   1.939  0.0434  0.0186  0.1772
 7621W        W23755  11.671   9.488  11.418  0.0035  0.1150  0.0222
 7622W        W23756  12.282   3.938   3.214 -0.0360  0.1575 -0.4319
 7623W        W23757  10.135  11.064   2.883  0.0212  0.0874 -0.1268
 7624W        W23758   0.575   1.383   3.315  0.1541  0.0761  0.1971
 7625W        W23759  14.237  16.818   1.248 -0.2495 -0.0092  0.1390
 7626W        W23760   9.499   9.344   0.955 -0.1255 -0.5977  0.0016
 7627W        W23761   4.733   8.544   5.890  0.1139 -0.1476  0.0605
 7628W        W23762   4.067   2.209   3.528 -0.1340 -0.4125 -0.1217
 7629W        W23763   7.082  17.601   1.407 -0.0863  0.4872 -0.1545
 7630W        W23764  13.964  15.801  12.526 -0.4443  0.1555 -0.1620
 7631W        W23765   0.993   5.584   0.614 -0.0330  0.0617 -0.2249
 7632W        W23766   6.394  14.654  14.203 -0.0950  0.1032 -0.4029
 7633W        W23767   4.886  11.309   3.566  0.0709 -0.0777  0.0207
 7634W        W23768   4.949   7.157   0.592  0.1482  0.2719  0.0537
 7635W        W23769  11.177   1.442   3.255  0.0197 -0.2160 -0.1322
 7636W        W23770  16.978   5.054  14.264  0.3256  0.1460 -0.1425
 7637W        W23771   0.057  18.145   0.428 -0.0857 -0.0833 -0.0590
 7638W        W23772  12.464   0.650  13.617 -0.2031  0.0489 -0.1725
 7639W        W23773  17.931   3.974  13.441 -0.1973 -0.0520  0.0518
 7640W        W23774   5.321   6.278  14.395 -0.2559 -0.0979 -0.3209
 7641W        W23775   1.097  11.381   1.125 -0.2191 -0.1290  0.4143
 7642W        W23776   9.835   8.692  15.156  0.0980 -0.5410  0.1554
 7643W        W23777  16.347   1.361  14.392 -0.0785  0.1435 -0.0385
 7644W        W23778  14.211  10.109  14.696 -0.1287 -0.0884  0.2810
 7645W        W23779  15.764   8.682   3.077 -0.0274 -0.0689 -0.0728
 7646W        W23780  15.324   5.620   3.885  0.0517 -0.0567  0.1054
 7647W        W23781   3.734  15.322  11.981  0.1776 -0.0374  0.1967
 7648W        W23782   7.505  16.771  10.481 -0.0491 -0.0122 -0.0250
 7649W        W23783   3.623  17.774   3.232  0.2105  0.0200 -0.1206
 7650W        W23784   9.401   0.244  12.378 -0.3256  0.1594 -0.0164
 7651W        W23785  13.162   0.742  11.204 -0.0123 -0.0858  0.0431
 7652W        W23786  16.799  10.457   3.069  0.0734  0.1387 -0.1622
 7653W        W23787   0.842  11.261   2.997 -0.3499 -0.0781  0.1097
 7654W        W23788  12.975  18.165  14.620  0.2816 -0.2911  0.0930
 7655W        W23789   0.363  11.459  11.759  0.2181 -0.2086 -0.0719
 7656W        W23790  16.805  14.132   5.390 -0.2090 -0.1173 -0.0424
 7657W        W23791   3.843  11.980  12.917  0.1701 -0.0716  0.1311
 7658W        W23792  14.687  14.831   3.122 -0.0986 -0.0330  0.6187
 7659W        W23793  11.083  12.681  13.543 -0.2505 -0.1635 -0.1048
 7660W        W23794  15.670  16.591   1.514  0.0769  0.2780 -0.3814
 7661W        W23795   3.633  18.684   5.153  0.1368 -0.2245  0.0088
 7662W        W23796   9.506  10.077   3.628 -0.2497  0.0580  0.2249
 7663W        W23797   4.321   3.617   3.927  0.0186 -0.2229 -0.1540
 7664W        W23798   2.081  11.531  13.557 -0.2943  0.1993 -0.1492
 7665W        W23799  10.337  10.119  12.402 -0.2361 -0.0089 -0.0491
 7666W        W23800   2.659   5.802  11.487 -0.2359  0.0014 -0.0069
 7667W        W23801   8.304  17.363  11.993 -0.0069  0.2034 -0.0543
 7668W        W23802  18.567   8.410  13.180  0.1322 -0.2595 -0.0920
 7669W        W23803   6.493  17.288  12.050 -0.0325 -0.0198 -0.3704
 7670W        W23804  11.232   3.011  12.779  0.0487 -0.0991 -0.3023
 7671W        W23805  12.713   9.698  11.133  0.3062 -0.1497  0.1256
 7672W        W23806  12.186   2.738   2.906 -0.2373  0.2364 -0.0256
 7673W        W23807   2.725   0.708  14.682  0.1024 -0.3153  0.1662
 7674W        W23808  17.308  18.209  13.521 -0.2013 -0.1017 -0.0779
 7675W        W23809  14.368  14.821   2.212 -0.0968 -0.1606 -0.0531
 7676W        W23810   1.361  15.046   2.268  0.1370  0.0664 -0.0252
 7677W        W23811  12.438   8.631   4.219  0.1847 -0.6937 -0.1104
 7678W        W23812  14.378  13.176  12.704 -0.2026 -0.0267  0.0496
 7679W        W23813  16.867   1.519   3.862  0.0608  0.1327  0.0293
 7680W        W23814   8.902  16.820   4.637  0.1248 -0.0567 -0.2896
 7681W        W23815  16.099   3.001  11.993 -0.2283  0.1269  0.0108
 7682W        W23816  11.255   6.707  12.939  0.0830  0.4077  0.1907
 7683W        W23817   2.795   8.142  11.352 -0.3514  0.2054 -0.2693
 7684W        W23818  11.231  11.792   2.248  0.1138 -0.2708  0.2279
 7685W        W23819  15.680   0.145   2.781  0.0838  0.2210 -0.0549
 7686W        W23820  16.889   2.952   4.527  0.1343  0.0058  0.1736
 7687W        W23821   1.357   8.589  14.851  0.0133  0.1094  0.1618
 7688W        W23822   9.140   7.094  14.833  0.5102  0.1714 -0.1988
 7689W        W23823  13.386  10.553   1.015 -0.2229 -0.1403  0.0476
 7690W        W23824   8.830   3.021   4.019 -0.1872 -0.2158  0.0855
 7691W        W23825  12.236  14.613   4.056  0.5307  0.2987 -0.1391
 7692W        W23826  16.267  14.193  14.209  0.0450 -0.0875 -0.0991
 7693W        W23827   8.321   8.982  13.379  0.1038  0.0009  0.1610
 7694W        W23828   3.849  10.462  14.696 -0.3101 -0.1607  0.4157
 7695W        W23829   7.516  15.482   5.703  0.4128  0.0364 -0.3237
 7696W        W23830  16.628   0.540  13.892 -0.0833  0.1799 -0.2368
 7697W        W23831   7.051   0.318  15.461 -0.1063  0.2356 -0.0016
 7698W        W23832   0.897   2.389  11.379 -0.1839  0.2730  0.0674
 7699W        W23833  13.072  12.170  13.009 -0.0966  0.0582 -0.1251
 7700W        W23834  13.956   1.169  13.176 -0.0653 -0.1165 -0.0960
 7701W        W23835  14.776  16.964   4.006 -0.0503 -0.0006  0.0520
 7702W        W23836  14.848  12.750   4.864 -0.0717  0.1472  0.2591
 7703W        W23837   9.061   9.834  13.034  0.2444  0.1441  0.0826
 7704W        W23838   2.771  15.747  12.085  0.2420  0.2346 -0.0356
 7705W        W23839   1.581   7.231  15.161  0.1282  0.0795 -0.1271
 7706W        W23840   9.298   5.701   2.540 -0.1557  0.0816 -0.0362
 7707W        W23841   7.907   1.747   3.597 -0.1906  0.1682 -0.3058
 7708W        W23842   1.665   0.561   1.807  0.1184 -0.3218 -0.1412
 7709W        W23843   3.090  17.306  11.002  0.3068 -0.1409  0.3291
 7710W        W23844  13.401  14.007   3.516 -0.1938  0.1164  0.4603
 7711W        W23845   8.984  18.447  14.653  0.1058  0.3091 -0.1957
 7712W        W23846  10.080  10.436   9.640  0.1077  0.1801  0.0244
 7713W        W23847   5.202   7.801   1.350 -0.0659 -0.1146 -0.1528
 7714W        W23848   6.553  10.230  13.449 -0.0584  0.3014  0.0849
 7715W        W23849   3.830  16.097   0.581 -0.1036 -0.1947  0.0488
 7716W        W23850   9.442   1.151   2.050 -0.1577  0.0133 -0.0825
 7717W        W23851  12.469  10.374   0.689 -0.0656 -0.0985  0.2083
 7718W        W23852   9.596  18.259  13.536 -0.0212  0.1282  0.6175
 7719W        W23853   0.789  17.804  10.454  0.3778  0.0734  0.0684
 7720W        W23854   4.795   6.892  15.036 -0.2845 -0.1852 -0.1090
 7721W        W23855   3.674  11.145   3.129  0.1116  0.0153  0.2279
 7722W        W23856   5.067   1.249  12.046  0.3339 -0.3323  0.0376
 7723W        W23857   0.511  17.521  15.535  0.3844  0.0273 -0.0291
 7724W        W23858   8.352  11.496   5.018  0.2178 -0.3295 -0.1665
 7725W        W23859  10.465   4.328  11.999  0.2896 -0.1075  0.2027
 7726W        W23860  18.701  14.319   0.561  0.3565 -0.1601 -0.0104
 7727W        W23861   9.698   9.240   4.754 -0.2356 -0.1350 -0.2387
 7728W        W23862   0.369  14.874  13.420 -0.2081 -0.1336  0.2085
 7729W        W23863   2.820   8.346   2.102 -0.1816  0.0975  0.1088
 7730W        W23864   7.751  10.439  14.995  0.2802  0.1631  0.2192
 7731W        W23865  12.586  16.067   0.638  0.3049  0.1113 -0.2343
 7732W        W23866   3.561  18.328   0.134 -0.2487 -0.0219  0.3059
 7733W        W23867  12.010   2.524   4.525 -0.1605  0.1842  0.1341
 7734W        W23868  12.902  17.643   4.535 -0.3457 -0.3764 -0.1583
 7735W        W23869  15.402  16.636   1.921 -0.1873  0.0555  0.2581
 7736W        W23870   4.817   6.078  15.473  0.6246  0.1008  0.2107
 7737W        W23871  13.426   6.332   4.388  0.3142 -0.0225  0.1258
 7738W        W23872  12.037   2.540   5.549  0.0195 -0.1013  0.2936
 7739W        W23873   3.333  13.486   0.186  0.0148 -0.0471 -0.2835
 7740W        W23874  11.377   7.184  14.664  0.0812 -0.0473  0.1939
 7741W        W23875   6.354  14.396   0.100  0.0941 -0.1994 -0.1276
 7742W        W23876   4.732   8.823   2.833 -0.4421 -0.1430 -0.0670
 7743W        W23877   1.850   7.011   0.023  0.0673 -0.1738 -0.3070
 7744W        W23878  10.062   0.595  13.054 -0.1639 -0.0183  0.1650
 7745W        W23879   3.997   3.612  15.342  0.2372 -0.3086  0.0597
 7746W        W23880  17.712   1.325   2.017  0.1697  0.0708  0.0276
 7747W        W23881  12.032   1.941  10.393  0.0800 -0.1487 -0.0782
 7748W        W23882  15.625  16.980   3.577  0.2288  0.1674 -0.2438
 7749W        W23883   8.725   5.099  12.305  0.0028  0.1265 -0.1766
 7750W        W23884  17.973   1.289  13.652 -0.2515 -0.0645  0.1297
 7751W        W23885  14.161  13.612  11.827  0.2941 -0.0527  0.1806
 7752W        W23886   9.977  10.504   4.298  0.2043  0.1380  0.2232
 7753W        W23887  12.914   0.858  14.857  0.1884 -0.0109  0.0553
 7754W        W23888   4.445   3.001  11.781 -0.2185 -0.1325  0.5908
 7755W        W23889  17.676  14.210   4.951  0.0198 -0.1112 -0.5435
 7756W        W23890  14.758   6.512  13.550 -0.0438 -0.0119 -0.0301
 7757W        W23891  11.691   8.283   4.737 -0.2887 -0.0626 -0.0131
 7758W        W23892   5.666  10.275   3.433  0.2185 -0.1115  0.1983
 7759W        W23893   3.897   2.103  14.624  0.1098 -0.4316  0.0058
 7760W        W23894   3.971  16.576   2.572  0.1544  0.1595  0.0103
 7761W        W23895   3.439   4.181   1.873  0.0129 -0.0608 -0.0067
 7762W        W23896  15.830   8.154   2.931 -0.1026 -0.1084 -0.0745
 7763W        W23897   7.347   2.123   4.579  0.0475  0.3154 -0.0357
 7764W        W23898  14.308   4.148  12.256  0.1660  0.0712 -0.1758
 7765W        W23899   3.030   4.244   0.729 -0.0117  0.0830  0.0158
 7766W        W23900   2.236   4.286   4.261  0.0155  0.2003  0.0441
 7767W        W23901  12.753   5.290   1.163 -0.2079 -0.0221 -0.0759
 7768W        W23902  10.135   1.192   1.482 -0.0003 -0.1022  0.0383
 7769W        W23903  15.195   0.939  12.691  0.0506  0.0553  0.0700
 7770W        W23904   3.211  18.504   2.497  0.0791  0.0105  0.2083
 7771W        W23905  12.860  17.551   5.081 -0.2579 -0.1318  0.0268
 7772W        W23906   5.840  11.973   2.001 -0.2489  0.2307 -0.1605
 7773W        W23907  18.000   9.967   0.249  0.0517 -0.0776 -0.0857
 7774W        W23908   8.388   0.519   2.796  0.1290  0.1152 -0.1417
 7775W        W23909   1.758  17.976   0.254 -0.0566  0.2304 -0.1113
 7776W        W23910  14.426  10.181  11.159  0.0266  0.2452  0.0326
 7777W        W23911  10.662  16.240   1.056 -0.2979  0.0056  0.0501
 7778W        W23912  15.610  13.668   2.655  0.1690  0.0351  0.0866
 7779W        W23913   0.335   7.706  14.604 -0.1956 -0.2742 -0.0002
 7780W        W23914   0.661  18.663   4.903 -0.2776  0.0864 -0.0007
 7781W        W23915   7.268   9.110  14.439 -0.0026 -0.0136  0.0745
 7782W        W23916   4.753   2.049   2.500  0.3997 -0.1248  0.0861
 7783W        W23917   8.113   5.002  14.049  0.1462  0.1416  0.3846
 7784W        W23918   1.225  15.729   5.343 -0.0399 -0.0601 -0.0954
 7785W        W23919  17.472   6.754   3.774 -0.1631 -0.3761 -0.1032
 7786W        W23920  14.192   7.107   1.875 -0.0723 -0.1078 -0.0363
 7787W        W23921   4.026  11.215  10.200 -0.4462 -0.0560  0.2510
 7788W        W23922   0.695   2.214   9.846  0.1121 -0.1098  0.1097
 7789W        W23923   6.033  17.663  12.606  0.0756  0.0867 -0.0146
 7790W        W23924  14.602   1.641   1.122  0.0838 -0.3337  0.0266
 7791W        W23925  16.210   1.462   3.153  0.0877 -0.1690  0.1206
 7792W        W23926   3.965   9.486  11.788  0.0640 -0.0832 -0.1511
 7793W        W23927   3.899   0.210  12.111  0.1451  0.0647 -0.0830
 7794W        W23928   7.019   3.437  11.029 -0.1854 -0.3919 -0.1093
 7795W        W23929   4.580  14.886  15.532  0.2960 -0.0338  0.1500
 7796W        W23930  18.021   5.157  14.187 -0.1399  0.0353 -0.0731
 7797W        W23931  16.117  17.098  15.293 -0.0645  0.0870 -0.3670
 7798W        W23932  13.699  13.633  14.542 -0.1433  0.1699 -0.0002
 7799W        W23933   6.248   9.150   3.815  0.0028  0.1359  0.4034
 7800W        W23934   7.388  17.037   9.553 -0.2479 -0.2252 -0.1651
 7801W        W23935  15.669  12.226   0.834 -0.1011 -0.1398  0.2810
 7802W        W23936  11.032  15.510  12.474 -0.0319  0.0211  0.0565
 7803W        W23937   3.498   9.743   0.380  0.2062  0.1402  0.1320
 7804W        W23938   8.109   8.274  11.569 -0.2329  0.1221 -0.2698
 7805W        W23939   3.915  12.991  13.398  0.0040  0.2387  0.0240
 7806W        W23940  15.195  15.924  10.948 -0.0614 -0.0099 -0.0312
 7807W        W23941   3.381   5.858   2.913  0.0216  0.0283  0.4418
 7808W        W23942   4.075   8.003   1.312 -0.0901  0.0321 -0.1508
 7809W        W23943   3.068   5.568  15.124  0.0741 -0.0519  0.4222
 7810W        W23944   1.704  16.439   5.179 -0.0465  0.0979 -0.2584
 7811W        W23945   5.975   7.355  14.821  0.0115  0.2019 -0.0330
 7812W        W23946   1.121  15.036  11.914 -0.1476  0.1262 -0.1917
 7813W        W23947   2.726   1.186   3.768  0.0417 -0.1049 -0.0637
 7814W        W23948   0.877   5.706  12.209  0.1737  0.0475 -0.1648
 7815W        W23949  16.591  16.228   5.137  0.1553  0.0828 -0.0352
 7816W        W23950   1.911  10.712  11.592  0.0990  0.1538 -0.2502
 7817W        W23951  10.524   3.878   2.197  0.1620  0.1462  0.2264
 7818W        W23952   2.601  16.863  10.329  0.0465 -0.1185 -0.2656
 7819W        W23953   3.505  16.161   5.326 -0.1776  0.1400 -0.1145
 7820W        W23954  16.734  16.214  11.889  0.1205 -0.0571 -0.0970
 7821W        W23955  17.354   9.163   5.517  0.2332 -0.2158 -0.2207
 7822W        W23956  11.178  12.685   0.571  0.1254  0.0680  0.0983
 7823W        W23957   6.048   6.926  14.593 -0.3002  0.1348 -0.1510
 7824W        W23958   2.183  16.511  10.676 -0.1959 -0.1557 -0.3923
 7825W        W23959  14.879   5.430   3.804 -0.0279 -0.1804  0.0037
 7826W        W23960  10.815   0.013   1.270  0.1317 -0.2322  0.0597
 7827W        W23961   7.565  17.794   5.385  0.3303 -0.1765  0.2248
 7828W        W23962   4.549  11.473  14.395  0.1029  0.0282 -0.2276
 7829W        W23963   4.238  17.001   0.175  0.3778  0.2353 -0.2250
 7830W        W23964   6.548  15.286   0.853  0.2652 -0.0909 -0.1458
 7831W        W23965   3.121   0.440  13.211 -0.0839  0.1187 -0.1250
 7832W        W23966   2.338   0.581   0.685 -0.0470 -0.2379  0.0576
 7833W        W23967   0.848  14.568  11.637 -0.3041  0.3913  0.0061
 7834W        W23968   5.995   5.583  13.613  0.2502 -0.1922  0.1666
 7835W        W23969  14.225   6.859   4.510  0.0808  0.1449 -0.0092
 7836W        W23970  13.332  17.018  13.455  0.3289 -0.0909  0.2519
 7837W        W23971  17.865  14.824  12.976 -0.0206  0.1395  0.0903
 7838W        W23972   7.705  13.862   1.275  0.1448 -0.1036  0.0356
 7839W        W23973  17.548  12.069   4.745 -0.2734 -0.1636 -0.2172
 7840W        W23974   5.834  13.828  13.628  0.1073  0.1583  0.0853
 7841W        W23975  11.239   3.043  11.753  0.0448  0.0916  0.1817
 7842W        W23976  12.233   1.717  12.522 -0.0906 -0.1248 -0.2658
 7843W        W23977  17.812   2.393  14.802 -0.1005  0.0896  0.0138
 7844W        W23978   0.693   4.917  11.279  0.2164 -0.0123  0.3658
 7845W        W23979   9.572   6.122   5.201  0.1636 -0.1083 -0.0452
 7846W        W23980   6.182   3.788  10.416 -0.1433  0.0341  0.1739
 7847W        W23981   5.629   4.372  13.584 -0.0039  0.0902 -0.2365
 7848W        W23982  12.549  10.935   3.912 -0.5003  0.1333  0.1417
 7849W        W23983   9.444   0.684   3.080 -0.0769  0.0566  0.1303
 7850W        W23984   9.443  15.837   0.826  0.1446 -0.0184 -0.4413
 7851W        W23985   3.768  14.419  15.293 -0.0776  0.1882 -0.0903
 7852W        W23986   6.989   1.204   0.755 -0.1524 -0.2768 -0.0545
 7853W        W23987   5.637  17.773  11.121 -0.1790  0.1407  0.1791
 7854W        W23988   1.631   1.065   1.338  0.1034  0.0003 -0.2529
 7855W        W23989   1.693  11.027  10.843  0.3757 -0.0299 -0.0711
 7856W        W23990   1.821  17.646   1.699  0.0645  0.1339 -0.0885
 7857W        W23991   3.830   8.986   3.318  0.3596  0.1636  0.0590
 7858W        W23992   7.670   4.742  15.375 -0.1729 -0.0334 -0.1864
 7859W        W23993   0.300  10.759  11.961  0.0734 -0.4783  0.3273
 7860W        W23994  17.741   5.654   4.869 -0.2153 -0.1656 -0.1147
 7861W        W23995   1.619  14.573  14.015  0.4112  0.1242 -0.0856
 7862W        W23996  18.226  12.377  15.093 -0.0452  0.1624 -0.2854
 7863W        W23997   2.880  13.843   2.730 -0.0645 -0.1381 -0.1916
 7864W        W23998  11.955  18.450   1.938 -0.1502  0.0441 -0.1741
 7865W        W23999  15.124  14.318  15.572 -0.0588 -0.0447  0.1872
 7866W        W24000  12.902  17.652  14.477 -0.2694  0.0298 -0.1935
 7867W        W24001   4.830  14.832  11.508 -0.1631 -0.0306 -0.1481
 7868W        W24002   8.625   1.892  12.589  0.0363  0.2697 -0.1451
 7869W        W24003  10.558  15.285   1.105  0.1300 -0.1435 -0.3549
 7870W        W24004   0.287   6.912  14.096  0.3001 -0.0313 -0.3818
 7871W        W24005  15.035  10.269   2.023  0.0556  0.1127  0.1898
 7872W        W24006  13.488   7.614   1.116 -0.1414  0.0329 -0.2848
 7873W        W24007   1.947  13.449   9.459 -0.3777  0.1639  0.0198
 7874W        W24008  14.716  13.828   2.217 -0.1894 -0.0171 -0.2123
 7875W        W24009  18.354  12.334   2.868 -0.1565  0.0230  0.2189
 7876W        W24010  17.497  10.174  10.929 -0.0737  0.0994  0.3012
 7877W        W24011   0.380   7.087   5.926  0.1168 -0.0165 -0.2188
 7878W        W24012   7.920  15.520   2.535 -0.1680 -0.0101 -0.1098
 7879W        W24013   1.206  15.338  15.379  0.1777  0.0275 -0.0008
 7880W        W24014  10.429   6.378   5.478  0.1956 -0.1339  0.2333
 7881W        W24015   5.069   2.300  13.387  0.1942  0.2389  0.3710
 7882W        W24016   8.378   6.933  13.621  0.0569 -0.1574  0.0517
 7883W        W24017  17.214  11.368  13.513 -0.2309  0.1106  0.2240
 7884W        W24018   5.936  17.126  12.651  0.1044  0.2553 -0.3837
 7885W        W24019  16.684  13.768   4.298  0.1977 -0.1983  0.3589
 7886W        W24020  11.139  13.745   4.341 -0.2643 -0.2223 -0.0217
 7887W        W24021  10.292   5.942   4.181 -0.4341 -0.1685 -0.1944
 7888W        W24022  12.881   3.598   1.911 -0.1000  0.5257  0.1986
 7889W        W24023   4.300   3.681   2.843 -0.2139  0.0906 -0.1819
 7890W        W24024   2.628  17.620   3.186 -0.1373 -0.0370  0.2700
 7891W        W24025  13.531   0.800   2.788 -0.1421 -0.2902  0.1724
 7892W        W24026  13.697  16.806   3.188  0.1018 -0.0476 -0.0423
 7893W        W24027  10.711  11.613   3.584  0.2165 -0.1123 -0.0916
 7894W        W24028  17.677  10.243   4.063 -0.4052 -0.0038  0.1012
 7895W        W24029   9.097  18.517   0.381  0.4009  0.1833  0.0454
 7896W        W24030  16.168   0.172   0.658 -0.2475  0.1964 -0.1072
 7897W        W24031   7.431  13.445   1.984 -0.1570  0.3877  0.1753
 7898W        W24032  13.288  14.504  12.045  0.0216 -0.0829  0.0041
 7899W        W24033  10.191   6.000  15.548  0.1273  0.2310  0.2186
 7900W        W24034   6.558  13.643  11.132 -0.0322  0.2036  0.1099
 7901W        W24035   5.881  17.061   0.856 -0.2416  0.0115  0.0990
 7902W        W24036   6.355  14.802  14.689 -0.1883  0.0955  0.0016
 7903W        W24037   5.136   3.505  14.447 -0.1729 -0.0377 -0.0140
 7904W        W24038   3.913   5.938  13.306  0.0271 -0.0283  0.1125
 7905W        W24039   4.192   9.322   0.122 -0.0008  0.2341  0.0777
 7906W        W24040  18.327  13.768  11.164 -0.0526  0.1509 -0.1097
 7907W        W24041  15.678   1.657  14.704 -0.1051  0.3391  0.1016
 7908W        W24042  15.189  11.134  11.884  0.0353 -0.1345 -0.1192
 7909W        W24043  15.081   9.190  14.778  0.1823 -0.0018 -0.2049
 7910W        W24044  10.868  12.856  15.055 -0.2542 -0.1383 -0.0855
 7911W        W24045  11.265  10.416   1.851  0.0685 -0.1599 -0.1680
 7912W        W24046  11.156  10.114  11.300 -0.0149  0.1079  0.0323
 7913W        W24047   6.193   0.498   5.608  0.0672 -0.0026  0.0229
 7914W        W24048  13.243   0.715  15.408 -0.1264 -0.2447 -0.0752
 7915W        W24049   1.278   2.545  13.720  0.1355  0.1021  0.2910
 7916W        W24050  15.093   5.599   2.013 -0.0678 -0.1079 -0.1221
 7917W        W24051  11.574  13.289  14.637  0.1140  0.4119 -0.1538
 7918W        W24052   3.679  18.116  10.051 -0.1013 -0.1039 -0.1301
 7919W        W24053   1.990  13.481   5.871 -0.0356 -0.0013 -0.1256
 7920W        W24054  13.957  16.287  10.773 -0.0270  0.1155 -0.0273
 7921W        W24055  11.155  12.471  12.300  0.2676  0.0622  0.0134
 7922W        W24056  15.913  17.679  12.560 -0.0367 -0.0290 -0.2176
 7923W        W24057   4.354  13.711  12.907 -0.0096  0.0672  0.3358
 7924W        W24058   2.946  15.533   1.052 -0.1048 -0.2000 -0.0812
 7925W        W24059   6.273   1.202  11.201  0.0429  0.1090 -0.3328
 7926W        W24060  15.612   2.510   4.584  0.6037  0.2700 -0.0968
 7927W        W24061   3.541   2.821  14.173  0.1099 -0.2924 -0.2437
 7928W        W24062   3.169   6.618  11.372 -0.1141 -0.0342  0.1537
 7929W        W24063   2.596   5.423   4.605  0.2204 -0.0418  0.2357
 7930W        W24064  15.117  14.452  13.038 -0.0120 -0.4074 -0.1908
 7931W        W24065   1.218  15.989   2.913 -0.2387  0.0550 -0.1896
 7932W        W24066  16.082  12.048   4.232  0.0995  0.0058  0.0248
 7933W        W24067   0.698  14.950   2.866  0.1572  0.1053  0.2253
 7934W        W24068   5.455   9.135   1.018 -0.0708  0.1279  0.1563
 7935W        W24069   0.514   7.956  12.132  0.2135  0.0268  0.0632
 7936W        W24070  12.740  16.273  15.297 -0.1037  0.1991  0.1863
 7937W        W24071   4.837  12.450  13.970  0.1599 -0.0829  0.0238
 7938W        W24072   5.348  16.859   0.728 -0.0768 -0.2147 -0.2534
 7939W        W24073  17.223  15.736   0.538 -0.1763 -0.0699 -0.0032
 7940W        W24074   3.619   2.160   3.040  0.0812  0.0976  0.3210
 7941W        W24075  15.624   4.356   2.462 -0.0650 -0.1566  0.0368
 7942W        W24076   1.195  18.523   2.524  0.0702 -0.0048 -0.0894
 7943W        W24077   9.354  17.651  14.024 -0.2200  0.2696 -0.0894
 7944W        W24078   2.126  16.754   3.563 -0.1377  0.1477  0.1586
 7945W        W24079  11.631  12.803  11.432 -0.1462  0.0761 -0.0488
 7946W        W24080   1.615   4.852  14.617  0.4226  0.0495  0.0765
 7947W        W24081  14.617  13.070  14.700 -0.0902  0.0126  0.0663
 7948W        W24082  17.145   9.304   0.495  0.2582  0.1876  0.1537
 7949W        W24083   4.238   2.460   4.303  0.1564  0.1521 -0.3239
 7950W        W24084  12.267  17.311   2.316  0.2911  0.0817  0.0690
 7951W        W24085  14.059  13.078  15.418 -0.2531 -0.1156 -0.1636
 7952W        W24086   0.460  17.405  13.639  0.1423  0.3989  0.1855
 7953W        W24087  10.372  10.989   4.701 -0.4126 -0.0912 -0.1280
 7954W        W24088   2.230   2.516   3.704 -0.1948  0.1374 -0.2214
 7955W        W24089  12.717   7.354   4.449  0.1215  0.0904 -0.2273
 7956W        W24090   7.748  12.115   2.142  0.2528  0.0667 -0.1242
 7957W        W24091  18.372   3.234  13.200  0.2655 -0.0257  0.0801
 7958W        W24092  10.327   4.595   3.545 -0.1956 -0.1337  0.3990
 7959W        W24093   9.113   9.146   0.633 -0.0917 -0.1907 -0.1377
 7960W        W24094   7.664   8.392   3.763  0.3872 -0.2236  0.3485
 7961W        W24095   4.367   0.826  12.745  0.0746 -0.1655  0.2912
 7962W        W24096   7.037  12.629   1.608 -0.0109 -0.1085  0.1468
 7963W        W24097   5.337  13.391   5.208  0.0584  0.2252  0.0422
 7964W        W24098   3.456   7.181  13.890  0.0440 -0.1121  0.1670
 7965W        W24099   4.230  16.624   3.468 -0.1429  0.0216  0.3201
 7966W        W24100   4.742  15.703   2.921 -0.1763  0.1812 -0.3410
 7967W        W24101  16.442   3.417   4.234 -0.0004  0.1683 -0.0610
 7968W        W24102   4.086   8.833   3.690  0.1844  0.2301  0.0134
 7969W        W24103   9.574   0.666   2.538  0.0900  0.0176 -0.3369
 7970W        W24104   2.248   0.777  12.654 -0.0713  0.1365 -0.0869
 7971W        W24105   6.696  11.676   3.001 -0.0415  0.1905 -0.0644
 7972W        W24106  18.024   5.449  10.641  0.2895 -0.1883  0.0946
 7973W        W24107   6.358   4.365   0.413 -0.1011  0.2628 -0.1174
 7974W        W24108  13.951   3.654   0.605  0.1137 -0.3948  0.0272
 7975W        W24109   5.919  16.816  14.158  0.1009 -0.0606  0.1009
 7976W        W24110   7.871   1.348  15.353 -0.2605  0.0604  0.1037
 7977W        W24111  12.993   1.468  14.896  0.0037  0.0043 -0.0625
 7978W        W24112   3.993  14.879   1.509 -0.1177 -0.0946  0.0287
 7979W        W24113  16.177   2.062  12.892 -0.0730 -0.2322  0.0158
 7980W        W24114  10.526   2.338   2.597 -0.1580  0.0304 -0.2998
 7981W        W24115  18.062  18.660   0.701  0.4994  0.0449  0.0871
 7982W        W24116   1.651  17.337   3.363 -0.0630  0.2728 -0.2336
 7983W        W24117   9.782   0.089  12.745 -0.2456 -0.2559 -0.0137
 7984W        W24118   0.486   6.993  13.620  0.1642  0.2640 -0.1272
 7985W        W24119  15.892   0.638  13.794 -0.2068  0.0375  0.3676
 7986W        W24120   9.930  17.635   5.511 -0.2030  0.2557 -0.1771
 7987W        W24121  11.004  14.250  11.368 -0.0540 -0.0684 -0.2857
 7988W        W24122  14.075   2.311  13.709  0.0371  0.1147 -0.0060
 7989W        W24123   9.456  12.495   5.434  0.0042 -0.0410 -0.2960
 7990W        W24124   3.307  18.723  15.491  0.1836 -0.5836 -0.1607
 7991W        W24125   3.404   8.761  11.760  0.3282  0.5114  0.1650
 7992W        W24126   9.779  15.517  12.140 -0.2322 -0.1005  0.0886
 7993W        W24127  13.778   1.755   1.623 -0.1132 -0.1123  0.0086
 7994W        W24128  15.006   7.828   2.903  0.2352 -0.2015 -0.0649
 7995W        W24129   8.228  13.463  15.079  0.0921  0.1364  0.1469
 7996W        W24130   5.458  15.855  10.783 -0.1455  0.0284  0.0343
 7997W        W24131   3.392   5.096   1.776  0.0543 -0.1011  0.0971
 7998W        W24132  16.596  11.748   2.959 -0.0131  0.0045  0.0243
 7999W        W24133   1.825  17.554  13.775  0.2733 -0.0843 -0.0929
 8000W        W24134  16.136  11.610  13.639  0.0749 -0.1480  0.2772
 8001W        W24135   3.872   8.938   4.591  0.0090 -0.0672  0.0443
 8002W        W24136   7.433   3.994   0.653  0.0437 -0.0303  0.0265
 8003W        W24137  14.695  18.654   1.914  0.1063  0.1843 -0.2599
 8004W        W24138  12.463  17.825   4.703  0.2036 -0.0650  0.1184
 8005W        W24139  17.247  16.649  13.475 -0.3596  0.4336 -0.1066
 8006W        W24140  10.354   9.556   5.606  0.1436  0.0646  0.0251
 8007W        W24141  18.102   4.192   4.358 -0.0903  0.1026 -0.3309
 8008W        W24142   3.702  10.894   4.705  0.0128 -0.1794  0.1557
 8009W        W24143  12.988   1.199   3.274  0.0589 -0.0292  0.2212
 8010W        W24144   5.679   8.438  14.360 -0.1348 -0.2496 -0.0505
 8011W        W24145   2.671   1.503  13.011  0.1584 -0.1945  0.4067
 8012W        W24146   3.177   5.873  13.940 -0.3173  0.0911  0.2033
 8013W        W24147  13.316   4.729  12.051 -0.1428 -0.0381 -0.0359
 8014W        W24148   3.598  17.730  11.706  0.3133 -0.2213  0.0946
 8015W        W24149   8.367   5.419   0.417 -0.0356  0.1203  0.0859
 8016W        W24150   7.445  12.353   3.622  0.2217  0.2466  0.0480
 8017W        W24151   1.949   2.912  13.241 -0.1922  0.1225 -0.1363
 8018W        W24152   5.413  17.797   3.691  0.0416  0.0757  0.1666
 8019W        W24153  17.104   8.126  13.514  0.0071  0.0439  0.0333
 8020W        W24154   0.824  10.240  12.546  0.1147  0.0550 -0.2479
 8021W        W24155   1.334  13.541   5.183  0.0626  0.0075  0.1353
 8022W        W24156  18.140   3.778  12.214  0.2113  0.0157 -0.5897
 8023W        W24157   8.011  13.747  12.335 -0.2836  0.0557  0.1158
 8024W        W24158   1.726  18.724   4.906 -0.4326 -0.0751  0.5096
 8025W        W24159  13.224   2.799   4.960  0.1697  0.1684  0.0122
 8026W        W24160   4.433   5.856   1.612  0.1817 -0.0747  0.0992
 8027W        W24161   8.818   3.402  11.409 -0.0027  0.5993 -0.1299
 8028W        W24162   4.189  13.528   3.283 -0.0798 -0.2044  0.0749
 8029W        W24163  16.248  10.481  14.224 -0.5696  0.2423  0.0222
 8030W        W24164  13.622   5.344   5.196 -0.1140 -0.0933 -0.4613
 8031W        W24165   2.174   8.524   4.088  0.1103 -0.0414 -0.1505
 8032W        W24166  16.224   9.579   0.149 -0.1689  0.0502 -0.0909
 8033W        W24167  10.752   0.741  11.205 -0.4077  0.0631  0.2137
 8034W        W24168  14.079  14.438   1.092  0.0119  0.4465 -0.0183
 8035W        W24169  16.191   9.486   1.323  0.1454  0.0503 -0.0977
 8036W        W24170   9.134  14.464   2.305  0.0515  0.1604  0.1940
 8037W        W24171  12.730   1.954  11.001  0.0570 -0.2534  0.0804
 8038W        W24172   6.638   4.543   0.048  0.2146  0.0628 -0.1539
 8039W        W24173  13.951  12.175   3.922  0.1559  0.0301 -0.1912
 8040W        W24174   7.927   2.633   4.183  0.0519 -0.2345 -0.2595
 8041W        W24175   6.221  10.793   1.181  0.2387 -0.3681 -0.3961
 8042W        W24176   0.810   0.168   2.351 -0.0614 -0.1897 -0.2176
 8043W        W24177   1.756  14.276  15.220 -0.1618 -0.1107 -0.1241
 8044W        W24178   8.757  11.613   3.570 -0.0840 -0.2083  0.0277
 8045W        W24179  13.750   2.677   0.522 -0.2024  0.0566  0.1038
 8046W        W24180   9.698  14.694   9.638 -0.2624 -0.1374  0.2159
 8047W        W24181   7.750  15.501   5.241 -0.3568 -0.0645 -0.1375
 8048W        W24182  12.985  12.462  10.997  0.2234 -0.5076 -0.2364
 8049W        W24183   0.110  10.470  15.171 -0.3781 -0.1216  0.1387
 8050W        W24184   8.794  13.776  14.502  0.1632  0.4591  0.0521
 8051W        W24185  14.982   7.682   3.399  0.2556  0.2005  0.0318
 8052W        W24186  16.865  14.785   0.889 -0.0799 -0.1042  0.2294
 8053W        W24187   8.338  13.678   0.875 -0.0269 -0.3686  0.0120
 8054W        W24188  12.326   4.449  13.189 -0.1808 -0.1268  0.2572
 8055W        W24189  17.864   5.796  15.145  0.1499 -0.3689 -0.2062
 8056W        W24190   5.040   8.617   4.840 -0.1168 -0.2721 -0.0576
 8057W        W24191  14.377   7.489   0.849 -0.1362  0.2117  0.3119
 8058W        W24192  16.393   3.557   5.739 -0.0245  0.2748  0.1682
 8059W        W24193   1.412   3.037   3.540  0.0767  0.4710 -0.0851
 8060W        W24194   7.638  11.322  14.551 -0.1469  0.1696 -0.2144
 8061W        W24195  18.291   4.689   3.971 -0.0429 -0.1685 -0.0062
 8062W        W24196   8.476   1.202   1.650  0.0457  0.3866 -0.0484
 8063W        W24197   7.425   8.757  13.482 -0.2700 -0.1040  0.0776
 8064W        W24198  16.454   3.954   0.367 -0.1440 -0.0683 -0.0113
 8065W        W24199  11.171  16.332   3.146 -0.1019 -0.0047 -0.0965
 8066W        W24200  17.774  12.112   1.496 -0.2238 -0.3255  0.0830
 8067W        W24201   8.927  13.332   0.485 -0.0353  0.3125 -0.0410
 8068W        W24202   5.457   5.119   4.475  0.3292  0.2147  0.0353
 8069W        W24203  10.618  13.103   1.560  0.0587  0.1676  0.0549
 8070W        W24204   1.632   4.535  11.600 -0.1380  0.4433  0.4096
 8071W        W24205   2.619   5.495   5.130  0.0513 -0.3806 -0.0258
 8072W        W24206  16.537   7.202   2.278  0.0265  0.1669  0.1750
 8073W        W24207  14.753  16.379   4.396  0.2110 -0.0375  0.3116
 8074W        W24208   8.743   0.521   4.038 -0.0026  0.0391  0.0817
 8075W        W24209  13.177  17.624   0.746  0.2187  0.1486 -0.1505
 8076W        W24210   3.651   7.915   0.995 -0.0475 -0.0266 -0.1137
 8077W        W24211   4.425   4.682   0.340  0.0426 -0.3147 -0.1902
 8078W        W24212   8.605   1.918  14.955  0.1629 -0.0901  0.0635
 8079W        W24213   5.127  17.060  11.833 -0.1225  0.0316 -0.3484
 8080W        W24214  15.446   9.052   5.388 -0.4233 -0.3606  0.0571
 8081W        W24215   3.559  10.660   4.269  0.2997  0.1000 -0.0222
 8082W        W24216  14.975   9.003   4.060 -0.1558  0.0103  0.2673
 8083W        W24217   3.744   8.691  14.963 -0.1259  0.2281  0.0574
 8084W        W24218   6.576   4.987   2.985  0.2685 -0.1958  0.2990
 8085W        W24219  12.856  12.990  14.598 -0.3868 -0.1540 -0.0850
 8086W        W24220  11.154   6.228   2.844  0.3244  0.0255 -0.0262
 8087W        W24221  18.626   6.298   1.784 -0.1317 -0.1141 -0.0453
 8088W        W24222   8.134  11.579  11.827 -0.1030 -0.0254 -0.1124
 8089W        W24223  14.134   7.700  12.306  0.0021 -0.1483 -0.0061
 8090W        W24224   7.494   1.068   2.375  0.4525 -0.0989 -0.2551
 8091W        W24225  10.814  14.731  15.418 -0.1855 -0.0923 -0.0505
 8092W        W24226  14.184  10.380  15.176 -0.2165 -0.1428  0.0888
 8093W        W24227   5.026  11.139   2.624 -0.1571  0.1129  0.0227
 8094W        W24228  16.841   6.286  12.195 -0.2978 -0.0683 -0.0466
 8095W        W24229  11.006   4.267   1.166  0.1388 -0.0113 -0.1215
 8096W        W24230  10.019  12.595  14.996  0.0961  0.2073 -0.0140
 8097W        W24231  11.596   9.121  11.746 -0.1058  0.0401  0.0084
 8098W        W24232   0.580   8.976  13.541  0.1405 -0.0339  0.2139
 8099W        W24233  16.233  13.530  10.843  0.0093  0.0043 -0.2141
 8100W        W24234   8.122   2.393   2.316  0.4215 -0.0729  0.3084
 8101W        W24235  18.676   3.996  10.892  0.0933  0.0418  0.1268
 8102W        W24236   3.901  11.541   2.912  0.1187  0.2224 -0.2639
 8103W        W24237  10.139   4.497  12.987 -0.4680 -0.0273 -0.4123
 8104W        W24238   9.086  16.794  14.879 -0.0899  0.2449 -0.0057
 8105W        W24239   5.317  12.095   4.739  0.1315  0.1088 -0.2104
 8106W        W24240  17.178   6.503   0.028  0.0565 -0.0291 -0.0695
 8107W        W24241  15.674   6.704  11.729 -0.1472 -0.1986 -0.0013
 8108W        W24242   3.302   2.313  12.008  0.3363  0.0015  0.0974
 8109W        W24243   8.737   9.591  12.566  0.2162 -0.1278  0.2795
 8110W        W24244  15.423   0.558  13.661  0.1659 -0.0445  0.1369
 8111W        W24245   5.081   7.741  11.214 -0.1002  0.2185 -0.2607
 8112W        W24246   8.057   2.633  12.616 -0.2385  0.1817  0.0522
 8113W        W24247  14.786  14.443   4.050  0.0176 -0.0508  0.0718
 8114W        W24248   0.998  14.340   0.416  0.3133  0.0289 -0.1219
 8115W        W24249   4.018   5.144   6.159  0.1586  0.0543 -0.3055
 8116W        W24250   0.642   5.449   1.637 -0.0883 -0.0340 -0.2135
 8117W        W24251   0.328   5.463   4.595  0.0703 -0.0493  0.2760
 8118W        W24252   3.298   1.795  14.211  0.0515 -0.1464 -0.0186
 8119W        W24253  13.591   6.535   3.850 -0.2240 -0.0452 -0.4203
 8120W        W24254  15.416  16.177   3.248 -0.0625 -0.1359  0.0156
 8121W        W24255   8.185   8.870  14.645  0.2801 -0.2089 -0.0705
 8122W        W24256   2.213  15.349   4.161 -0.1249 -0.3823  0.1223
 8123W        W24257   4.574   3.186   0.399 -0.0434  0.0642  0.0186
 8124W        W24258  16.236   7.314  10.747  0.3577  0.0906 -0.3407
 8125W        W24259   2.546   1.045  11.827  0.0622 -0.3027 -0.2579
 8126W        W24260   6.954   1.232   3.278  0.1499  0.3857 -0.1241
 8127W        W24261   8.318  17.400   1.498  0.1658  0.2129 -0.0747
 8128W        W24262   5.290  17.398  14.582  0.2363 -0.1711  0.1243
 8129W        W24263  11.439  12.774  11.890  0.1040 -0.3009 -0.0434
 8130W        W24264   5.301  15.439   2.428 -0.1151  0.0480 -0.2224
 8131W        W24265  16.511  15.113  11.223  0.1757 -0.0413 -0.0294
 8132W        W24266   4.587  14.953  14.999 -0.1587  0.0350  0.2486
 8133W        W24267  17.805   6.165  12.042  0.0942  0.0883  0.1275
 8134W        W24268  12.190  14.917  11.263 -0.2947 -0.0227  0.3556
 8135W        W24269   5.813   3.633   6.025  0.2842 -0.0983 -0.0748
 8136W        W24270   7.682  10.662  13.449  0.3501 -0.3765  0.3305
 8137W        W24271  11.752   3.465  14.101 -0.0337  0.2554  0.0219
 8138W        W24272   8.955  18.231   3.987  0.3068  0.1133 -0.1214
 8139W        W24273   5.044  14.024  14.092 -0.0974  0.2235 -0.1984
 8140W        W24274   1.714  18.084   2.248 -0.0036 -0.0721  0.3550
 8141W        W24275  13.985  12.042   4.439 -0.0588  0.0918  0.1004
 8142W        W24276   9.978  10.180   3.757  0.0446  0.1747  0.0264
 8143W        W24277   6.214   7.644   3.797 -0.1350  0.2124  0.1828
 8144W        W24278  16.296  12.089  12.772 -0.0625  0.0290 -0.1325
 8145W        W24279   3.846  16.005   3.994 -0.0870  0.0336  0.0652
 8146W        W24280  16.543   9.016  12.153 -0.0796  0.0506  0.1985
 8147W        W24281  10.487  13.593  13.289  0.0987  0.2474  0.1185
 8148W        W24282   5.758  10.667  13.605 -0.1490 -0.0815  0.1731
 8149W        W24283   6.340  18.605  12.520 -0.2425  0.0178 -0.3661
 8150W        W24284   4.587  12.973  11.376 -0.3879  0.1735 -0.1178
 8151W        W24285   4.200  11.208  11.327  0.0156 -0.2720  0.1099
 8152W        W24286  12.946  14.247   3.590 -0.2616 -0.3548  0.2050
 8153W        W24287   3.560  10.690   2.880 -0.0583  0.0060  0.1414
 8154W        W24288   3.813  10.078  15.081 -0.3215 -0.1637 -0.3256
 8155W        W24289   1.965  12.319   1.923  0.1022 -0.0790  0.2467
 8156W        W24290   8.186   7.600  14.976 -0.2591 -0.1015 -0.0210
 8157W        W24291   1.804   5.889   1.634  0.4912 -0.3753  0.0009
 8158W        W24292  16.002  12.448  14.892  0.2169 -0.1139 -0.1847
 8159W        W24293  12.010  18.661   4.639 -0.0895  0.2027 -0.0537
 8160W        W24294   9.277  13.328  14.201  0.1621 -0.1965 -0.0502
 8161W        W24295   0.523   2.844   4.661 -0.0630 -0.1420 -0.1446
 8162W        W24296   5.450   1.517   1.027  0.1580 -0.1027  0.1512
 8163W        W24297   7.776   4.974  10.307  0.0402 -0.0267  0.0226
 8164W        W24298   9.102   5.258   3.322 -0.2463  0.2457  0.0349
 8165W        W24299  13.152   6.173   2.730  0.2916 -0.1511 -0.2415
 8166W        W24300  13.698   7.158   3.637 -0.1391 -0.0556 -0.0337
 8167W        W24301  10.646  13.155   3.867  0.0090  0.0591 -0.5345
 8168W        W24302  11.072  12.998   4.194 -0.1344  0.1466 -0.2308
 8169W        W24303   0.443   7.813  14.065 -0.2726  0.2869 -0.0359
 8170W        W24304  12.660  14.699  15.519 -0.0319  0.1967  0.0438
 8171W        W24305   7.856  14.637   3.598  0.1058  0.0940  0.0871
 8172W        W24306  16.240   0.206   3.992  0.0192 -0.0990  0.3003
 8173W        W24307  12.143   4.926   4.869 -0.4280 -0.1629  0.0111
 8174W        W24308   6.477  14.676  11.846  0.1248  0.1757  0.0086
 8175W        W24309  11.604   7.676   0.530 -0.1570 -0.1335  0.2465
 8176W        W24310   4.166  13.329  13.165  0.1889 -0.3407  0.0987
 8177W        W24311  18.077  17.933   4.992  0.2351  0.1973  0.1154
 8178W        W24312   4.089   7.461   3.474  0.1542  0.2087  0.1110
 8179W        W24313  14.206   7.021   3.199  0.2393  0.1106 -0.1595
 8180W        W24314  13.576  12.030  12.715 -0.0585  0.0719  0.2940
 8181W        W24315   9.984   0.915   2.754  0.0673  0.0347 -0.0109
 8182W        W24316   9.316  18.211   3.089  0.0114  0.1707  0.0105
 8183W        W24317   5.222   9.024   2.915  0.0667  0.1567  0.1351
 8184W        W24318   0.774  12.735  12.099 -0.0806  0.1561  0.1741
 8185W        W24319   6.406   7.538  14.348 -0.1043 -0.1338 -0.2680
 8186W        W24320  13.260   1.739   2.435 -0.1924  0.0275  0.0656
 8187W        W24321  16.986  10.858  13.624  0.0679  0.2368 -0.3687
 8188W        W24322  12.011  18.542  13.115 -0.1935 -0.2330 -0.0479
 8189W        W24323   3.103   7.566  13.986 -0.0404  0.0756 -0.0477
 8190W        W24324   8.504   1.188  13.940  0.3612  0.2533 -0.1500
 8191W        W24325  10.798  13.974  14.536 -0.1742 -0.1655 -0.2338
 8192W        W24326   9.168   7.288  13.215  0.3530 -0.1194 -0.0451
 8193W        W24327   9.604  18.294  12.821  0.0882 -0.1594  0.1559
 8194W        W24328   1.467   8.831   1.336  0.0566  0.3456 -0.2676
 8195W        W24329   6.805   6.012  12.625 -0.3145  0.0972  0.5323
 8196W        W24330  11.348  12.130  12.580  0.1534  0.0220 -0.1386
 8197W        W24331   8.332   0.631   4.857  0.3951 -0.2387 -0.0915
 8198W        W24332   1.884   8.588   0.407 -0.0410 -0.0585  0.0739
 8199W        W24333   9.624  10.893   2.004  0.0207 -0.1822  0.1862
 8200W        W24334   8.711   8.867   0.796  0.1111  0.0778  0.0564
 8201W        W24335  15.719  10.618   1.270 -0.1526 -0.0816  0.1882
 8202W        W24336   2.388  18.650  12.366 -0.0557  0.2989  0.1729
 8203W        W24337  15.620   4.070   9.942  0.0595  0.0001 -0.0258
 8204W        W24338   5.892   1.143  11.816  0.2330  0.0733  0.1931
 8205W        W24339  10.281   5.020   0.837 -0.1069  0.2211 -0.1992
 8206W        W24340  15.722  14.233  13.388  0.4255  0.0718 -0.0232
 8207W        W24341   8.464  11.654   3.128  0.1248  0.0566 -0.4688
 8208W        W24342   4.145   8.277  14.997  0.1113  0.1863 -0.0197
 8209W        W24343   9.214   9.423  12.269 -0.0436 -0.2741 -0.0493
 8210W        W24344   8.443  11.840  13.471  0.0807 -0.1020 -0.2834
 8211W        W24345   8.805  15.233   2.881 -0.1317 -0.3511  0.0734
 8212W        W24346   8.781   9.117  12.336  0.0907  0.1421 -0.0535
 8213W        W24347  14.222   4.971  12.817  0.2292  0.1569  0.2265
 8214W        W24348  16.994  12.921  13.996 -0.0008  0.0057  0.0540
 8215W        W24349   6.124  10.264   0.386 -0.0313 -0.0285  0.1772
 8216W        W24350  13.978   0.263  13.928  0.1139 -0.1634  0.0771
 8217W        W24351  12.236  15.404  11.003 -0.5124  0.0010 -0.0546
 8218W        W24352  16.233   0.556   1.646 -0.1826 -0.0699 -0.0503
 8219W        W24353  12.523  13.349   3.251  0.0402 -0.2031 -0.1164
 8220W        W24354  12.492  15.432  15.179  0.0059  0.1245 -0.0009
 8221W        W24355   7.632  11.935  11.103 -0.1674  0.2960  0.0464
 8222W        W24356   6.878  11.837  12.992 -0.1451 -0.0215 -0.0974
 8223W        W24357  14.721  13.169   2.837 -0.0269 -0.1903 -0.0995
 8224W        W24358  15.896   5.411  15.381  0.1306 -0.0705  0.3018
 8225W        W24359  16.604  18.318  14.297  0.2539  0.1167  0.0593
 8226W        W24360   8.249  16.325   1.411 -0.2584 -0.1819  0.0984
 8227W        W24361   9.746  18.609   0.506  0.0882 -0.2177 -0.1222
 8228W        W24362  10.802   4.772  12.678  0.0679 -0.0035 -0.0412
 8229W        W24363  12.345  18.099  11.371 -0.0972 -0.1653 -0.2794
 8230W        W24364  10.829   4.661  14.945 -0.0261  0.0382  0.2841
 8231W        W24365  12.642  16.948   1.034  0.0366 -0.1609 -0.2090
 8232W        W24366   5.350  18.069  13.870  0.0712  0.0899  0.1086
 8233W        W24367  15.158  13.843  13.754 -0.1265 -0.1992  0.1312
 8234W        W24368   3.225  16.768   1.977 -0.0413 -0.0259 -0.2697
 8235W        W24369  17.803   7.105   1.026 -0.0370  0.1021 -0.0509
 8236W        W24370   3.746   0.943   0.181 -0.0794 -0.2053 -0.1151
 8237W        W24371   0.460   9.987   1.612 -0.0768  0.1003 -0.1138
 8238W        W24372   1.238  18.272  11.356 -0.0700  0.1858  0.0886
 8239W        W24373  15.453  10.523   2.729 -0.2535  0.1020  0.2396
 8240W        W24374  15.973  16.195  12.643 -0.2364 -0.1837  0.0253
 8241W        W24375   7.496  10.309   0.599  0.0452 -0.0728  0.1098
 8242W        W24376   2.151   1.587  13.081  0.1182  0.1038  0.0166
 8243W        W24377   8.511   8.737   3.439  0.0843  0.3646  0.0223
 8244W        W24378  14.798   1.555  13.574  0.2952  0.2413  0.3373
 8245W        W24379  17.063  15.130  15.101 -0.1009  0.2395  0.0962
 8246W        W24380  11.017   3.276  14.744 -0.1841  0.1995  0.5657
 8247W        W24381  16.792  18.086   5.446 -0.1106 -0.0191  0.1535
 8248W        W24382  10.034   0.699   4.136 -0.1998 -0.0364  0.0382
 8249W        W24383  14.594   5.941   5.519  0.3947 -0.1387 -0.1080
 8250W        W24384   4.344   4.771  11.459  0.1073  0.2317  0.0123
 8251W        W24385   6.422  14.175  14.292  0.4125  0.0160 -0.2362
 8252W        W24386  13.737   6.348   1.043  0.1478 -0.1498  0.0616
 8253W        W24387   1.095  10.586  13.760  0.1935 -0.1098  0.1317
 8254W        W24388   4.220  16.622   4.350  0.0959 -0.0001  0.1400
 8255W        W24389  13.674  11.941   3.112 -0.0515 -0.0411 -0.1226
 8256W        W24390  10.762   6.919  11.070  0.0656  0.1045  0.0467
 8257W        W24391   8.611  14.208  11.881  0.2087 -0.0765  0.0725
 8258W        W24392  12.421  10.937  15.031  0.1024  0.0012 -0.2116
 8259W        W24393  12.493   0.154  13.899 -0.2694  0.2980 -0.1104
 8260W        W24394   3.983   8.969   5.481  0.2461  0.0614 -0.0192
 8261W        W24395   8.416   0.223  13.377 -0.1056 -0.2291  0.0097
 8262W        W24396  13.378  13.215   4.180 -0.2764  0.0538  0.0386
 8263W        W24397  12.494  11.335  10.357  0.0783 -0.2054  0.1318
 8264W        W24398   3.263  11.210  11.592 -0.1241 -0.0493 -0.0676
 8265W        W24399  10.268  18.708   2.961 -0.1091 -0.0183 -0.1251
 8266W        W24400   2.463   8.308   1.133 -0.0052  0.1096 -0.4381
 8267W        W24401   0.821   4.583   4.689 -0.0291 -0.0330  0.2241
 8268W        W24402   9.307  13.714  11.359 -0.0879  0.2886  0.2057
 8269W        W24403   1.090   2.011   2.748 -0.1790 -0.1602 -0.3515
 8270W        W24404   2.803  17.515   2.637 -0.2061  0.1446 -0.0253
 8271W        W24405   8.769  17.150  11.774  0.1715 -0.3804 -0.1475
 8272W        W24406  12.136   1.027  11.314 -0.1904 -0.2497 -0.0825
 8273W        W24407   2.924  17.582  12.830  0.2071  0.0495 -0.0186
 8274W        W24408   6.604   5.920  11.719  0.0394 -0.0181  0.0633
 8275W        W24409  16.005   1.460   4.327 -0.0014 -0.0477  0.1099
 8276W        W24410  13.050   8.135   0.382 -0.0636 -0.1155  0.0108
 8277W        W24411   7.400   5.481  11.243  0.2463 -0.1119 -0.0834
 8278W        W24412  14.974   7.317  14.144  0.0472 -0.0777 -0.0959
 8279W        W24413  11.065   4.498   4.537 -0.2553  0.1543  0.2814
 8280W        W24414   7.892   2.510   5.015 -0.3200 -0.2878  0.0004
 8281W        W24415  10.471  17.122   4.942  0.1811 -0.2280  0.0076
 8282W        W24416  12.173  12.250   2.595  0.1447 -0.0425  0.0388
 8283W        W24417  10.269   5.538   0.862 -0.0116  0.2882  0.0820
 8284W        W24418  18.042  17.342  11.975 -0.0863 -0.0692  0.0282
 8285W        W24419  12.517   3.225  11.310  0.0728  0.1950 -0.1875
 8286W        W24420  18.526  18.030   3.550  0.2512 -0.0225  0.2198
 8287W        W24421  11.746  14.338   4.197 -0.1011  0.1117 -0.2166
 8288W        W24422   7.853   2.009   4.950 -0.1498  0.1782 -0.2206
 8289W        W24423   0.723  14.532  13.633 -0.2397  0.1793  0.2016
 8290W        W24424  10.958  10.211   3.953  0.0172  0.0347  0.1337
 8291W        W24425   6.848   8.481  11.084  0.0085 -0.1575  0.0763
 8292W        W24426  13.715   8.956   0.845  0.0002 -0.1365 -0.1708
 8293W        W24427   9.928   6.935   3.093 -0.3015 -0.1667 -0.1565
 8294W        W24428   9.610  18.130  11.690 -0.1138 -0.1303  0.1945
 8295W        W24429   5.557   7.200  11.502  0.2064 -0.3085  0.0866
 8296W        W24430  13.507   7.216  11.812  0.2132  0.0926 -0.1494
 8297W        W24431   0.893   4.984  13.966  0.0280  0.1230 -0.0578
 8298W        W24432  13.509  17.232   1.126  0.1964 -0.3381 -0.1741
 8299W        W24433   7.287   8.287  13.718 -0.1433  0.2771  0.1882
 8300W        W24434  16.119   6.772   0.178  0.2011  0.1167 -0.1773
 8301W        W24435   7.139   9.586  14.310 -0.0130 -0.0208 -0.3127
 8302W        W24436  17.998  18.303  15.352  0.0867  0.1682  0.1388
 8303W        W24437   8.822   4.423   0.849  0.1663 -0.1271 -0.1468
 8304W        W24438  17.454  13.005  12.226  0.2878  0.2084 -0.3082
 8305W        W24439   0.505  10.676   1.071  0.0475 -0.4020  0.1077
 8306W        W24440  11.686   5.845   0.186 -0.0341  0.1068  0.3134
 8307W        W24441   4.817   4.511  12.050 -0.0501  0.2589  0.3988
 8308W        W24442   8.725   0.504   4.530 -0.0458  0.4719 -0.2682
 8309W        W24443   8.727  18.343  10.391  0.0384  0.3181  0.1789
 8310W        W24444   6.403   7.701  13.720  0.2792 -0.1525  0.2205
 8311W        W24445  14.842  17.582   3.317 -0.0702  0.1985 -0.2884
 8312W        W24446   5.437   8.365   4.134 -0.0426 -0.2358  0.1394
 8313W        W24447   4.772   8.653   3.415  0.0094 -0.0764  0.0070
 8314W        W24448   0.788  12.204   4.132 -0.2900  0.1265 -0.2674
 8315W        W24449   8.615   7.140   5.233 -0.1529 -0.4501 -0.0215
 8316W        W24450  12.486   6.520   5.347 -0.0052 -0.2240 -0.0753
 8317W        W24451  11.108   4.540   5.767  0.1481  0.1595  0.0715
 8318W        W24452  18.210   3.398   2.488  0.2270  0.0413 -0.0078
 8319W        W24453   7.926   5.373   4.865 -0.1428 -0.1793  0.0219
 8320W        W24454   0.868  16.935   3.167 -0.2346  0.0582 -0.0778
 8321W        W24455   9.904   4.479   2.428  0.3072  0.0288 -0.2824
 8322W        W24456   2.811  13.873  12.234  0.1465  0.1950  0.2084
 8323W        W24457   1.697   8.971  14.686  0.0869  0.2292 -0.1097
 8324W        W24458   1.201   6.432  12.045  0.2143  0.4199  0.1774
 8325W        W24459  17.293   6.553   2.095  0.0648 -0.1010 -0.0146
 8326W        W24460  13.699  10.548  11.342  0.1093 -0.0946  0.1906
 8327W        W24461   5.805   8.883   3.661 -0.1480  0.3103 -0.1572
 8328W        W24462   7.214   4.778  11.959  0.2919  0.1083  0.0600
 8329W        W24463   8.269   2.479  13.067 -0.1572 -0.1745  0.1288
 8330W        W24464   7.604   1.912   2.230  0.1806  0.1215  0.2282
 8331W        W24465   2.592   1.063   2.487 -0.1393  0.1735 -0.0147
 8332W        W24466   5.143  15.943  12.767 -0.0785  0.0740 -0.2067
 8333W        W24467   1.323   6.231  14.461 -0.2504 -0.1715  0.0641
 8334W        W24468   1.215  15.981   0.872  0.3310 -0.2538 -0.0574
 8335W        W24469  17.171  16.424   4.052 -0.0367 -0.3333 -0.1506
 8336W        W24470   9.627   9.148  13.017  0.0866 -0.1805 -0.1699
 8337W        W24471  15.937  17.051   1.571 -0.0849  0.1665  0.1185
 8338W        W24472   6.690  17.102  11.530  0.1208  0.0820 -0.0886
 8339W        W24473   4.581   5.227   3.918 -0.0716  0.0416  0.1186
 8340W        W24474  15.668  18.065  14.510  0.1042 -0.0151 -0.2334
 8341W        W24475   1.447   1.938  12.554 -0.1524 -0.0089  0.0969
 8342W        W24476  11.268   2.899  14.456  0.0752  0.2093 -0.0504
 8343W        W24477   6.723   2.996  13.441  0.1314 -0.0433  0.0573
 8344W        W24478   3.066  16.176  11.010  0.0379  0.3824 -0.3694
 8345W        W24479   9.068  10.138   3.609  0.0980 -0.0083 -0.0104
 8346W        W24480   6.212  11.490  11.293 -0.1444  0.1865 -0.1851
 8347W        W24481  15.085  18.179  15.410  0.0486  0.0012  0.1233
 8348W        W24482   3.666   3.863   4.815  0.2196 -0.0467  0.0925
 8349W        W24483   4.985  18.696   2.009 -0.0602 -0.1767  0.0767
 8350W        W24484  17.787   0.420   5.318  0.1114 -0.0952 -0.0663
 8351W        W24485  10.114   8.726   2.875  0.0032 -0.1233  0.1214
 8352W        W24486   0.751  12.701  15.543  0.0935 -0.1865 -0.0603
 8353W        W24487  16.030   1.096  12.959 -0.3421  0.0808 -0.0937
 8354W        W24488  12.968   1.260   5.755 -0.0945 -0.1318 -0.1716
 8355W        W24489  12.846   3.561   0.711 -0.1533 -0.0399  0.1999
 8356W        W24490   3.224   7.170   0.200  0.0923 -0.1703 -0.2556
 8357W        W24491   5.293   1.791  15.061  0.0546 -0.2300 -0.0251
 8358W        W24492   4.125   0.945   4.343 -0.0588 -0.0799 -0.2266
 8359W        W24493  17.324  13.162  15.172 -0.0020 -0.0220  0.0160
 8360W        W24494  14.026   5.781   2.563  0.2398  0.0055  0.3440
 8361W        W24495   0.754   8.388   0.660  0.4830 -0.2315 -0.0711
 8362W        W24496   0.974   5.441  10.161  0.1087  0.4919 -0.1473
 8363W        W24497  14.937   4.757   2.711 -0.1409 -0.1500 -0.2991
 8364W        W24498   7.972   8.187   5.288  0.0134 -0.0433  0.0067
 8365W        W24499   8.471  16.026  11.865 -0.0613 -0.3136  0.0796
 8366W        W24500  11.943   4.506   1.398  0.0731  0.1952 -0.0572
 8367W        W24501  17.433   4.430  11.348  0.0426  0.0847  0.0141
 8368W        W24502  10.611   8.207   1.749  0.0417  0.1318 -0.1175
 8369W        W24503   6.702  16.284  11.889  0.2004 -0.3234 -0.0603
 8370W        W24504   6.869  14.074  10.783  0.0357 -0.1671  0.0775
 8371W        W24505   0.979   9.512   4.232 -0.2452  0.1593 -0.1877
 8372W        W24506  16.029   5.869  14.532  0.1499 -0.2202 -0.1121
 8373W        W24507  14.655   6.525   1.913 -0.1707 -0.1663 -0.4125
 8374W        W24508  17.338  12.026   1.692  0.2242  0.1804 -0.1630
 8375W        W24509  14.549  18.223  13.956 -0.1499  0.1494 -0.2824
 8376W        W24510  15.823   9.326   3.842 -0.3115 -0.1591  0.0115
 8377W        W24511   8.818   6.936   6.056 -0.0839  0.2318 -0.2090
 8378W        W24512  18.549  11.944  13.779 -0.3343 -0.3223 -0.1861
 8379W        W24513  16.241  12.479   5.241  0.0870 -0.2300 -0.2096
 8380W        W24514   4.279   8.045  13.377  0.2705 -0.1785  0.4824
 8381W        W24515  10.690   3.139   0.480  0.0613 -0.1072 -0.1273
 8382W        W24516  16.107  17.672  14.676 -0.1363 -0.1414  0.1353
 8383W        W24517  15.067  14.953  12.836  0.1715  0.1650 -0.0769
 8384W        W24518  16.295  10.264  13.797 -0.3020 -0.1867 -0.0022
 8385W        W24519  17.621   5.983   2.793 -0.1622 -0.0545  0.3530
 8386W        W24520   6.689   2.467   2.518  0.1458 -0.1365 -0.1918
 8387W        W24521  17.249   8.447   1.740 -0.0541 -0.1176 -0.3925
 8388W        W24522   0.778  15.561   5.093 -0.1522  0.3600 -0.0061
 8389W        W24523   8.083   8.874   3.822 -0.0137  0.1461 -0.1016
 8390W        W24524   2.632   1.516  15.393  0.0953 -0.1327  0.4213
 8391W        W24525   4.543  10.804   2.554 -0.1280 -0.1895 -0.1643
 8392W        W24526   9.487   8.977   4.010 -0.1070  0.0284 -0.1539
 8393W        W24527   9.563  13.200  12.520 -0.0139 -0.2853  0.1058
 8394W        W24528  15.011   5.215  13.386  0.3934 -0.1159  0.1246
 8395W        W24529   4.305  15.589  13.191 -0.0184  0.0202 -0.1253
 8396W        W24530   7.754   6.769   5.358 -0.0878 -0.1980 -0.1170
 8397W        W24531  10.469  18.036   4.972 -0.0409  0.2075  0.0800
 8398W        W24532   6.367   5.827   3.713 -0.2870 -0.2103  0.0210
 8399W        W24533   5.357   8.702  13.994 -0.2153  0.3864  0.0070
 8400W        W24534   8.289  12.071   3.539  0.2684  0.1173 -0.3127
 8401W        W24535  11.805   8.499  11.555 -0.0249  0.0494 -0.1042
 8402W        W24536  18.025  18.196   3.856 -0.0108 -0.1543  0.0866
 8403W        W24537  15.010  10.270   4.281 -0.1877 -0.0596  0.0270
 8404W        W24538  12.179   6.288   1.977 -0.1362  0.0672  0.1583
 8405W        W24539   9.448   2.321  12.326  0.0024  0.2390  0.0908
 8406W        W24540   1.341   2.760  14.209  0.0878 -0.1651  0.0013
 8407W        W24541  10.907  11.814  14.286  0.1279  0.0589 -0.0358
 8408W        W24542  15.560   9.142   2.464 -0.1134  0.0549 -0.1875
 8409W        W24543  16.215  10.385   4.848  0.3131 -0.1190  0.0115
 8410W        W24544  15.268   3.603  13.601 -0.0159 -0.0876  0.1567
 8411W        W24545   5.551  13.995  15.562 -0.0418 -0.0473 -0.3671
 8412W        W24546   8.925  12.923  13.955  0.0100 -0.2761 -0.4076
 8413W        W24547   8.818   6.515   2.362  0.0497 -0.0721  0.2550
 8414W        W24548   4.559   3.727  14.665  0.1988 -0.0540 -0.1130
 8415W        W24549   6.083   6.701  13.772  0.0280 -0.2558  0.2274
 8416W        W24550   4.713   6.225  13.107  0.0112 -0.0514 -0.3765
 8417W        W24551   8.316   0.594   2.170 -0.1712 -0.1177  0.1330
 8418W        W24552  11.369   5.495  11.823  0.1491  0.0718 -0.1780
 8419W        W24553  13.007   6.518   0.246 -0.1903  0.0317  0.0308
 8420W        W24554   7.570  15.565   2.161  0.2766 -0.1780 -0.0106
 8421W        W24555  14.585   2.697   3.041 -0.0461 -0.0790  0.3099
 8422W        W24556   7.358   8.246  11.525  0.0015  0.1069  0.1373
 8423W        W24557   8.666   7.188  14.043 -0.1105  0.0224 -0.1965
 8424W        W24558   7.401  17.763   3.220 -0.0108 -0.1212 -0.3044
 8425W        W24559   4.454  15.877  14.602 -0.2767  0.1967  0.2933
 8426W        W24560  17.060   6.654   0.627  0.0412  0.0047 -0.1244
 8427W        W24561   9.949   3.110   2.750 -0.4351  0.0365 -0.0281
 8428W        W24562  17.255   2.744   0.977  0.0027  0.0870  0.0634
 8429W        W24563  13.497  15.848   2.232  0.0095 -0.0526  0.0525
 8430W        W24564   2.093  11.741  13.150  0.0568 -0.1268  0.1303
 8431W        W24565  14.417   7.755   3.981  0.0005  0.0180  0.0191
 8432W        W24566   3.684   8.998   0.785 -0.0201 -0.0681 -0.1545
 8433W        W24567  13.071   2.398  12.993  0.3153  0.2696 -0.0746
 8434W        W24568  11.599   0.598   2.706  0.3434 -0.2599  0.0081
 8435W        W24569   1.851  13.782  12.301 -0.0768 -0.1124  0.0155
 8436W        W24570   4.188  16.878  12.344  0.1153 -0.0574 -0.1519
 8437W        W24571   4.787   7.946   0.108  0.1989 -0.1987  0.1603
 8438W        W24572   8.529   6.114   2.211 -0.0898 -0.0841  0.2400
 8439W        W24573   3.866   6.450  13.390 -0.1612 -0.0379 -0.0082
 8440W        W24574  15.034  13.233   4.659  0.3068 -0.2770 -0.0115
 8441W        W24575   3.958   1.377   5.042 -0.0713 -0.0621 -0.0291
 8442W        W24576  10.118   9.757   1.585  0.1634 -0.3319 -0.1426
 8443W        W24577   0.635   3.894   2.640  0.2207 -0.0752 -0.3771
 8444W        W24578   7.033   1.189   2.611  0.4972 -0.1436 -0.1110
 8445W        W24579  13.993   5.721  11.226  0.0534  0.1585 -0.2286
 8446W        W24580   7.605  12.996   4.246 -0.0452 -0.2518  0.1638
 8447W        W24581   0.500  17.591   4.252 -0.0986  0.0128  0.2526
 8448W        W24582   2.218  13.537   3.365 -0.0364 -0.2944 -0.0413
 8449W        W24583  15.330  12.240   0.167 -0.3418  0.0240 -0.1725
 8450W        W24584  12.697   7.778   4.644  0.1317  0.0512 -0.2400
 8451W        W24585   9.740   6.771  13.705 -0.2605  0.1885 -0.0369
 8452W        W24586  13.303  10.469   4.761  0.0189  0.2012 -0.0776
 8453W        W24587  10.912   0.802  14.290  0.0186 -0.1795 -0.0293
 8454W        W24588   6.241   8.220   4.686  0.2596  0.0711 -0.0149
 8455W        W24589   7.897   7.886  10.279  0.1340 -0.2468 -0.1176
 8456W        W24590  11.052  11.781   1.586  0.0017 -0.2415 -0.2633
 8457W        W24591  16.610   4.634   4.645  0.0225 -0.3278  0.1106
 8458W        W24592   5.606  13.321   3.770 -0.2495  0.0965  0.0414
 8459W        W24593   7.826   8.179  13.676  0.2220 -0.3292  0.2015
 8460W        W24594  16.860   5.914   5.186 -0.2579 -0.3847 -0.1403
 8461W        W24595  12.265   8.336   0.209  0.0722 -0.2747 -0.0286
 8462W        W24596  10.607  17.360   1.660 -0.0457 -0.2158  0.1289
 8463W        W24597   5.118   9.054  13.697 -0.1717  0.2190  0.2392
 8464W        W24598   8.723  16.199   2.400 -0.3401 -0.1934 -0.2133
 8465W        W24599  12.956   8.280  13.259  0.2340  0.1132 -0.2818
 8466W        W24600   8.123  16.371   3.716  0.2807 -0.1030 -0.1215
 8467W        W24601   5.729   5.105   0.367 -0.0510  0.1967 -0.2798
 8468W        W24602   5.850   7.781  15.222 -0.1691 -0.2063  0.1613
 8469W        W24603   9.285  11.723   2.732  0.0821 -0.1466  0.0429
 8470W        W24604  17.614  13.796   1.496 -0.2470  0.2002 -0.0143
 8471W        W24605   3.913   4.518  11.432  0.0310 -0.4190  0.0323
 8472W        W24606   2.898   9.099   4.871 -0.0773  0.3382  0.2429
 8473W        W24607   1.835   8.333   5.363  0.3824  0.0381 -0.0033
 8474W        W24608   6.015  14.688   5.469 -0.1273 -0.1160 -0.1376
 8475W        W24609   1.921  15.614   1.406  0.0255  0.1078  0.0172
 8476W        W24610   3.705  11.621  11.987  0.1050 -0.1271  0.1542
 8477W        W24611   3.685   8.895  13.444  0.0992 -0.2116  0.1451
 8478W        W24612  17.481  14.870   0.682 -0.1904 -0.0120 -0.1223
 8479W        W24613   4.770   8.028   1.093 -0.0036  0.0240  0.1192
 8480W        W24614   2.787  16.394   5.763  0.2196  0.2578 -0.1149
 8481W        W24615  11.090  10.340  14.226 -0.1966 -0.3556 -0.0134
 8482W        W24616   1.573   6.778   5.388  0.1583 -0.0762 -0.0676
 8483W        W24617  13.620   3.449   3.353 -0.1238 -0.1977  0.2689
 8484W        W24618   4.322   1.460  11.569 -0.0662 -0.3597  0.0889
 8485W        W24619   7.069  12.691  12.053 -0.2837  0.1450 -0.1353
 8486W        W24620   3.483   8.014   5.183 -0.0374 -0.0415 -0.2491
 8487W        W24621   9.193   1.411  13.533  0.0542 -0.1727 -0.2917
 8488W        W24622  10.301   1.541   3.692  0.2922 -0.0001  0.0422
 8489W        W24623  10.615   5.787   2.683 -0.1068 -0.1360  0.2195
 8490W        W24624   6.994   8.534   2.851 -0.1060 -0.0206 -0.0169
 8491W        W24625  18.610   1.691   4.334 -0.1625 -0.1764 -0.2398
 8492W        W24626   2.959   5.955   5.160 -0.2648 -0.0229 -0.2512
 8493W        W24627   4.991  13.119   1.613 -0.2625  0.0933 -0.0569
 8494W        W24628   9.467   9.455  15.443 -0.0437  0.3302  0.3030
 8495W        W24629   2.486   3.658  12.910  0.1716 -0.0493  0.1267
 8496W        W24630  12.897  18.402   5.832 -0.0190  0.0675  0.0985
 8497W        W24631  13.872  17.221   3.499 -0.2606  0.3917 -0.0347
 8498W        W24632   5.811  12.138   3.899 -0.0423  0.0326 -0.3021
 8499W        W24633  15.565   1.124   1.603  0.2286 -0.0134  0.1690
 8500W        W24634  10.044   0.469   4.726 -0.2176 -0.3693  0.1528
 8501W        W24635   5.762   9.973   0.744 -0.3878 -0.1670  0.3030
 8502W        W24636   4.643   8.909  11.338 -0.0865 -0.2399 -0.1574
 8503W        W24637   0.002  15.934  15.552 -0.0330 -0.0896  0.2904
 8504W        W24638   7.372   0.491   4.834 -0.0895  0.1578  0.2401
 8505W        W24639  10.737   3.897  11.586  0.1101  0.1660 -0.0069
 8506W        W24640  16.089   1.199   4.759 -0.1481 -0.1330  0.0833
 8507W        W24641   6.853  15.224   3.944 -0.2172  0.1773  0.2234
 8508W        W24642  16.989   0.420  15.237 -0.0336  0.1703  0.0386
 8509W        W24643   1.221  15.023  11.377 -0.1963  0.1080 -0.3184
 8510W        W24644  18.062  12.114  10.997  0.0182 -0.0633 -0.2391
 8511W        W24645  18.190   6.496   0.715  0.1278 -0.1088 -0.0098
 8512W        W24646  17.043   9.991  15.462  0.1367 -0.0090 -0.2528
 8513W        W24647  13.571   2.857  14.852 -0.0198  0.0720  0.0638
 8514W        W24648  14.405  12.679  11.248  0.1038  0.1770 -0.1009
 8515W        W24649  11.649  10.073  14.536  0.0889  0.1552  0.0220
 8516W        W24650  16.541   1.653  15.532 -0.0078  0.1615  0.0618
 8517W        W24651   3.422   8.435  14.080 -0.1439  0.2741  0.2236
 8518W        W24652  18.281  16.740   1.448 -0.0472  0.1593  0.1877
 8519W        W24653   3.481   5.860  12.696  0.0524  0.0803  0.3971
 8520W        W24654   5.131   1.520  13.388 -0.1949  0.1882 -0.2098
 8521W        W24655   3.464   3.022   1.982 -0.0549  0.3780 -0.0333
 8522W        W24656  10.695   0.800   0.731  0.0158  0.0969  0.0677
 8523W        W24657  12.264   9.615  15.078 -0.1140  0.1925  0.2216
 8524W        W24658   8.494   3.068   1.905 -0.1498  0.0861  0.0885
 8525W        W24659   1.597  11.031  11.834 -0.1319 -0.0440 -0.1159
 8526W        W24660  15.989  13.167   4.461  0.1169  0.3261 -0.1003
 8527W        W24661  16.548   9.856   4.023  0.0976 -0.1369  0.1230
 8528W        W24662   1.400  14.118  10.992 -0.0820  0.1312 -0.0151
 8529W        W24663  11.520  18.267  13.135 -0.1500 -0.0712 -0.0896
 8530W        W24664  16.654   9.603   2.264  0.3220  0.1026  0.3488
 8531W        W24665   5.247  11.195  15.189 -0.0976  0.1762 -0.3170
 8532W        W24666   0.425   3.010   0.684 -0.1914 -0.3727  0.2613
 8533W        W24667   6.520   7.037   3.307  0.2376 -0.1289  0.1146
 8534W        W24668  11.451   8.392  15.252  0.0011 -0.0546 -0.0887
 8535W        W24669  16.329   7.532   3.529  0.0783 -0.1324 -0.0231
 8536W        W24670  10.715  13.923  13.554  0.1264  0.0308 -0.0236
 8537W        W24671   8.770   7.370   2.444  0.0096  0.2256  0.2913
 8538W        W24672  12.232  15.975  12.289 -0.1653 -0.2390  0.1181
 8539W        W24673   5.047  15.611  11.893  0.1589 -0.3455 -0.1150
 8540W        W24674  17.889   2.395   4.071  0.0565 -0.1932 -0.4181
 8541W        W24675  13.429  13.994   2.448 -0.3299 -0.2235  0.2131
 8542W        W24676  14.954  16.371  12.746 -0.0234 -0.0353  0.3412
 8543W        W24677   4.664   4.292  14.560 -0.0911  0.1416  0.2593
 8544W        W24678  10.755  18.463  12.660  0.2070 -0.1615  0.3710
 8545W        W24679  16.641  16.322  14.969  0.0461 -0.1551  0.0196
 8546W        W24680   9.490  12.328   4.494 -0.2981 -0.4147 -0.1811
 8547W        W24681  16.191  11.545  11.966 -0.0052 -0.1505  0.1197
 8548W        W24682  12.532   4.378   3.064  0.3891  0.1335  0.0762
 8549W        W24683   6.108  18.142  12.542 -0.0416  0.0043 -0.1420
 8550W        W24684   4.704   2.976  14.440 -0.0644  0.0316  0.0510
 8551W        W24685   3.034  12.045   3.592 -0.0395  0.0481  0.1049
 8552W        W24686   6.383  10.667   5.119  0.1232  0.1246 -0.1406
 8553W        W24687  17.170   2.178   5.997 -0.0500 -0.1621  0.0654
 8554W        W24688   4.571   5.328   5.647 -0.1417  0.3676 -0.2784
 8555W        W24689  12.860   6.802   2.079  0.0023  0.0821  0.0749
 8556W        W24690  16.450  18.715  10.833 -0.0432 -0.2102  0.0943
 8557W        W24691  16.159  14.708   3.063 -0.1705 -0.1118  0.0536
 8558W        W24692   8.972  13.333  14.728  0.1218 -0.0602  0.2879
 8559W        W24693  12.853   8.362  12.394  0.2033 -0.4503 -0.0874
 8560W        W24694   4.397   7.485   4.931 -0.0081 -0.1478 -0.2927
 8561W        W24695  10.664  18.604  12.205  0.0419 -0.0764  0.1906
 8562W        W24696   6.402   9.662  13.323  0.1102  0.0276  0.3413
 8563W        W24697  14.258  10.878  11.888 -0.3031 -0.2804  0.2092
 8564W        W24698   2.413  11.017   4.753  0.0076 -0.3069 -0.0741
 8565W        W24699   6.100  12.432   5.099 -0.0122 -0.4157  0.1262
 8566W        W24700  11.877   6.665   0.487  0.0873  0.1634 -0.2130
 8567W        W24701   3.213  11.883   2.104 -0.3044  0.2521 -0.3517
 8568W        W24702   1.392   3.114   1.883 -0.0989 -0.3190 -0.0065
 8569W        W24703   7.873  14.660   1.987  0.0711 -0.0292  0.2505
 8570W        W24704   3.094   2.909  12.842  0.0582  0.4938  0.3840
 8571W        W24705  16.709   6.303   4.470 -0.0963 -0.0208  0.4941
 8572W        W24706  16.875   1.793   3.476  0.1800  0.1221 -0.0394
 8573W        W24707  10.636  10.360   2.469  0.3527 -0.2035  0.2445
 8574W        W24708  14.281   6.551   2.322 -0.1127  0.0064 -0.3131
 8575W        W24709  14.708   0.005  11.313  0.2355  0.1256 -0.1564
 8576W        W24710   9.755   2.358   4.371 -0.1304  0.1797  0.1313
 8577W        W24711  18.322   6.151  15.181 -0.1432  0.0143  0.0932
 8578W        W24712  16.190   3.474   1.582 -0.3777 -0.1863  0.1484
 8579W        W24713  14.551   6.044   4.971 -0.1615 -0.2278  0.1552
 8580W        W24714   8.707  12.907   3.514  0.1946  0.0365 -0.2228
 8581W        W24715   5.549  16.732   3.528  0.0585  0.1148 -0.1648
 8582W        W24716  15.221   8.497   0.848 -0.3882 -0.0826  0.1178
 8583W        W24717   6.923   3.612   4.533 -0.1400  0.1670  0.1809
 8584W        W24718  13.195   2.609   2.617  0.1886 -0.0934 -0.0472
 8585W        W24719   8.715  17.153  11.187  0.0457  0.0789 -0.0339
 8586W        W24720   9.093  17.153  10.770 -0.2480  0.1319 -0.2801
 8587W        W24721   4.277   5.330  12.086 -0.1658  0.1656  0.1671
 8588W        W24722  18.255  17.114  12.347  0.0445  0.2013 -0.0162
 8589W        W24723   1.444  10.926  12.821  0.0403 -0.2619 -0.2340
 8590W        W24724  16.532   1.202  12.703 -0.0084  0.0568 -0.1304
 8591W        W24725  16.786  18.052  12.275 -0.0883 -0.0683  0.1454
 8592W        W24726  12.105  15.877  14.743 -0.1599 -0.2157 -0.0602
 8593W        W24727   1.310   6.137   1.683  0.1243  0.1477 -0.0268
 8594W        W24728   9.976   7.347   4.886  0.0209 -0.0615 -0.0432
 8595W        W24729  14.982   2.085   4.174  0.2527  0.0908 -0.0239
 8596W        W24730   9.851  14.487  11.714 -0.1030  0.1467 -0.3550
 8597W        W24731  15.462   5.856  14.643 -0.2318  0.0180  0.0771
 8598W        W24732   9.347   2.272  11.863  0.2244  0.0954 -0.0933
 8599W        W24733   4.407   1.309  11.019  0.1203 -0.3012 -0.1697
 8600W        W24734  12.450   6.107   4.563 -0.1897  0.2227 -0.0894
 8601W        W24735  15.643  11.425  11.742  0.1005 -0.2806 -0.1863
 8602W        W24736   8.696  10.774   0.989  0.1443  0.0518  0.1832
 8603W        W24737  17.985   9.048   4.814 -0.3590  0.0654  0.1308
 8604W        W24738  13.219  17.569   5.372 -0.1305 -0.0443  0.3056
 8605W        W24739  17.665  13.752   0.333 -0.0960 -0.1290 -0.1640
 8606W        W24740  13.591   1.424   0.487 -0.1900 -0.1863 -0.0090
 8607W        W24741  18.253   1.147   2.285 -0.1040 -0.2040  0.0758
 8608W        W24742  17.717   3.645   9.655  0.3612 -0.0572  0.0966
 8609W        W24743  14.391   8.166   5.531 -0.2070 -0.0704 -0.1125
 8610W        W24744   4.473   5.106  15.372 -0.1871 -0.2531 -0.0194
 8611W        W24745  16.045   5.656   2.605  0.1865  0.0333 -0.0676
 8612W        W24746   2.483   4.204  13.734  0.0747 -0.2137 -0.3777
 8613W        W24747   5.928  10.017  11.112  0.0930  0.2103  0.0059
 8614W        W24748  14.021   9.881  15.108  0.2146  0.0187 -0.1287
 8615W        W24749  14.896   0.619   3.976 -0.0614  0.0699  0.1906
 8616W        W24750  14.763   3.839   0.994  0.3620 -0.1629  0.0283
 8617W        W24751   9.452  14.847   4.035  0.0555 -0.1347 -0.2717
 8618W        W24752   7.631   6.767  12.998 -0.2273  0.3295 -0.0467
 8619W        W24753   9.054   0.294   3.748 -0.0313 -0.1042  0.0181
 8620W        W24754  16.256  12.355  14.379  0.0340 -0.1712 -0.1838
 8621W        W24755   0.310  14.975   1.567  0.0364  0.2929 -0.1220
 8622W        W24756   4.334  17.700  11.122  0.2130  0.0328 -0.0205
 8623W        W24757  16.392  12.940  15.119  0.3185 -0.0361  0.3557
 8624W        W24758  17.872  16.803  13.614 -0.2425  0.1908 -0.0691
 8625W        W24759  17.646  18.188   4.141  0.0657 -0.1144  0.0711
 8626W        W24760  16.000  15.040   3.982 -0.0283  0.1890  0.1636
 8627W        W24761   1.711  11.683   1.103 -0.5081 -0.0943  0.0436
 8628W        W24762   7.086  13.907   3.849 -0.1311  0.0990 -0.3297
 8629W        W24763   8.019  13.293  12.058  0.5165  0.1148  0.0453
 8630W        W24764   6.939   7.304  12.331  0.0496 -0.0621  0.3358
 8631W        W24765   1.092  18.410   1.554 -0.1740  0.1221  0.1218
 8632W        W24766  18.454   6.976  11.002  0.2403  0.2664  0.0454
 8633W        W24767  13.684   5.358   1.419 -0.0412 -0.4309  0.0296
 8634W        W24768   8.298   9.499   2.972 -0.0847 -0.1605 -0.0847
 8635W        W24769  13.834  16.831  13.298  0.2317 -0.1020 -0.1503
 8636W        W24770   3.205   0.204   0.976  0.0543  0.0155  0.1741
 8637W        W24771  10.556   0.682   4.003 -0.2811 -0.0193  0.0954
 8638W        W24772  14.303  17.717   4.026 -0.3258  0.0594  0.1342
 8639W        W24773  16.919   0.972   3.863 -0.0240 -0.0471 -0.2999
 8640W        W24774  15.873  16.983   0.802  0.0885  0.1363  0.0844
 8641W        W24775  17.266  12.673  10.861 -0.3008  0.1277  0.0049
 8642W        W24776   6.818   2.947   2.654  0.0137 -0.0473 -0.3143
 8643W        W24777   2.201  17.107  14.989 -0.1714  0.1409 -0.4894
 8644W        W24778  16.192  15.963   0.926 -0.0144 -0.0810  0.4193
 8645W        W24779  12.327   5.708   5.847  0.0372  0.4026 -0.3187
 8646W        W24780  13.673   2.155   3.923 -0.0688  0.2186  0.1144
 8647W        W24781  11.054   5.947  10.028 -0.0746  0.2759  0.0823
 8648W        W24782  15.647  14.714  13.724 -0.0298  0.1843 -0.0386
 8649W        W24783   7.165   7.552  13.913  0.0687 -0.4488  0.1560
 8650W        W24784  10.147   9.706   0.891  0.0770  0.1895 -0.1489
 8651W        W24785   9.020  12.927  12.535 -0.0549  0.1575  0.0319
 8652W        W24786   3.256   6.515   3.609  0.2120  0.0311  0.2675
 8653W        W24787  15.004  14.177  12.063 -0.1393  0.1117 -0.0495
 8654W        W24788   3.553   0.184   1.357 -0.0696 -0.2916 -0.0709
 8655W        W24789  11.560   0.436   1.345 -0.0917  0.3590 -0.1044
 8656W        W24790  14.337   4.211  12.732 -0.0725  0.0833  0.1996
 8657W        W24791  10.772   5.218   1.620 -0.0686 -0.2954 -0.4251
 8658W        W24792   9.901   6.490   5.263  0.1522 -0.0026 -0.3767
 8659W        W24793  12.106  13.429  11.668  0.2172 -0.1702  0.0910
 8660W        W24794  17.757  18.215  13.222  0.4128  0.0641 -0.2190
 8661W        W24795   5.625  16.022   1.758 -0.1102  0.0144  0.0758
 8662W        W24796   1.612   7.344   4.163  0.3014  0.0604  0.4756
 8663W        W24797  10.771   6.728  12.784 -0.0403 -0.0476 -0.0538
 8664W        W24798  10.162  17.853   3.239 -0.0487  0.4123 -0.2699
 8665W        W24799   0.158   5.109   4.926  0.1874 -0.2267  0.0475
 8666W        W24800   2.993  12.990  14.727  0.2126  0.1344 -0.0333
 8667W        W24801  18.161   1.524  11.113  0.1513  0.3437  0.1890
 8668W        W24802   6.429  18.030  13.460 -0.2366 -0.4178 -0.2641
 8669W        W24803   4.783   5.553  12.666 -0.2106 -0.0482  0.0563
 8670W        W24804  14.573   3.578  14.731 -0.0405 -0.1080  0.3792
 8671W        W24805  15.939  13.565   0.608  0.1104 -0.2274  0.3682
 8672W        W24806  12.132   8.063   5.701  0.2887 -0.1306  0.0521
 8673W        W24807  17.706  10.153   2.842 -0.1292 -0.0014 -0.0564
 8674W        W24808  14.096   7.421  14.674 -0.0282  0.0421  0.3948
 8675W        W24809   4.072   3.426   0.379  0.0343 -0.0524  0.1380
 8676W        W24810   0.956   5.165   3.524  0.0531 -0.5323  0.3425
 8677W        W24811   6.686  15.042  12.622 -0.0275 -0.0296 -0.2120
 8678W        W24812   8.387   3.551  11.610  0.1867  0.3156 -0.0048
 8679W        W24813   3.643  13.638   3.320  0.0705  0.0349  0.3353
 8680W        W24814   6.826   9.958   0.086  0.1924 -0.1120 -0.0573
 8681W        W24815   7.134  12.267  12.284 -0.0935 -0.3664  0.0516
 8682W        W24816   8.641   9.503   3.462 -0.0143  0.0643 -0.2794
 8683W        W24817   7.508  16.991  13.079 -0.1581 -0.1603 -0.2033
 8684W        W24818  12.427  12.392  14.127  0.1178  0.0962 -0.3916
 8685W        W24819  10.652   9.382   3.864  0.0489  0.0574 -0.1357
 8686W        W24820   1.530   1.354   1.805  0.1688  0.1135  0.0599
 8687W        W24821  13.129   2.480  12.302  0.4293  0.0103 -0.0228
 8688W        W24822   3.413   2.697  12.497 -0.1373 -0.3275  0.0552
 8689W        W24823  13.269   4.435   3.489  0.2015  0.0947 -0.2166
 8690W        W24824  18.414  10.189   1.518 -0.1368 -0.2662  0.0290
 8691W        W24825  18.547   3.220   9.972  0.1515  0.0300 -0.2744
 8692W        W24826   0.234  18.185   2.229 -0.2803  0.0564  0.0398
 8693W        W24827   6.686  11.345  14.195 -0.0528  0.1318 -0.3061
 8694W        W24828   6.613  13.815   5.110 -0.2826  0.2231 -0.4109
 8695W        W24829   5.195  18.146  14.377  0.0735 -0.2033  0.2120
 8696W        W24830   6.787   8.900  12.775 -0.0615  0.3871  0.0486
 8697W        W24831  11.539  11.446  11.323 -0.1913 -0.1689  0.2529
 8698W        W24832  15.129   5.962  15.515 -0.0691 -0.0151 -0.2516
 8699W        W24833  11.220  16.068  10.864 -0.1829 -0.0210 -0.2465
 8700W        W24834   4.656  16.246  14.291  0.2407  0.1334 -0.0284
 8701W        W24835  16.193  18.701  12.153  0.0086 -0.2452 -0.0088
 8702W        W24836   2.992  11.987   4.672  0.0114 -0.0355  0.0868
 8703W        W24837   3.510  16.349   3.141 -0.3629 -0.1368  0.0509
 8704W        W24838  13.087  13.347   9.914  0.0732  0.0928 -0.0730
 8705W        W24839   2.303   0.551  10.658  0.1565 -0.0528  0.1757
 8706W        W24840   0.524   3.919   5.290 -0.6033 -0.2464  0.1688
 8707W        W24841   0.825   7.208  11.750 -0.0272  0.2159 -0.0554
 8708W        W24842   9.827   9.753  13.015  0.3233  0.0991  0.0818
 8709W        W24843  10.445   9.159   3.068  0.4678  0.3559 -0.1746
 8710W        W24844   4.624   1.233   3.116  0.0242  0.1530  0.1496
 8711W        W24845   9.833   1.976  12.038 -0.2547 -0.0137 -0.1816
 8712W        W24846   1.638   0.433  13.583  0.1469 -0.2323  0.0531
 8713W        W24847  11.130  12.446  14.847  0.0920 -0.0844 -0.3119
 8714W        W24848  13.081   9.674   1.095  0.2107 -0.3515 -0.0236
 8715W        W24849  18.445   6.933   3.122 -0.2961  0.0907  0.1228
 8716W        W24850  11.135  18.569  13.027  0.0919  0.3328 -0.1028
 8717W        W24851   0.874  16.117   3.366 -0.4490 -0.1804 -0.0146
 8718W        W24852   6.035   0.081   5.978  0.1593 -0.0128 -0.1898
 8719W        W24853  10.581   3.886   3.986 -0.1375 -0.0553 -0.0958
 8720W        W24854   1.696   6.141  12.161  0.1058  0.1763 -0.1470
 8721W        W24855   6.663   4.605   3.709 -0.2532  0.0455  0.0261
 8722W        W24856  10.747  11.888  10.580 -0.0687  0.2359  0.2522
 8723W        W24857   3.166   7.167  10.619 -0.1956  0.0679  0.1772
 8724W        W24858  17.090  12.057   2.747  0.2233 -0.3038 -0.1531
 8725W        W24859  17.045   4.245   4.605  0.1476 -0.1359 -0.0586
 8726W        W24860  17.764  12.169  11.426  0.0279 -0.1464 -0.1673
 8727W        W24861   0.661   2.781   2.325 -0.0057 -0.1317 -0.0875
 8728W        W24862  12.457   1.098  15.129  0.1931  0.0762 -0.1714
 8729W        W24863  13.731   3.529   2.283 -0.1166 -0.0285 -0.3024
 8730W        W24864   8.072   9.761   0.754 -0.1273 -0.0045  0.2582
 8731W        W24865  14.663   7.283   3.396  0.1537  0.1406 -0.2059
 8732W        W24866  15.523   5.954   4.773 -0.2835 -0.1063 -0.0373
 8733W        W24867   5.783   7.382   4.969  0.0023 -0.0794  0.0050
 8734W        W24868  16.728   1.104   0.116  0.1652  0.0556  0.0977
 8735W        W24869  10.374   8.380   1.273 -0.2699  0.0612 -0.3791
 8736W        W24870   9.584   2.615  10.714  0.0767  0.3571 -0.1553
 8737W        W24871  14.861  10.673   2.526 -0.1481  0.2765 -0.2415
 8738W        W24872   4.846   0.903  10.144  0.1715  0.1236 -0.0320
 8739W        W24873  15.054  12.736  13.341 -0.3917  0.0751  0.0807
 8740W        W24874  10.477   3.243  14.757 -0.1498 -0.0671  0.1023
 8741W        W24875   9.864   1.519  15.413 -0.0422  0.1436  0.0552
 8742W        W24876  16.343   3.969  14.760  0.3420  0.0704 -0.0538
 8743W        W24877   4.292   4.073  14.306 -0.0635  0.0295  0.0137
 8744W        W24878  13.056  10.744   3.749  0.0906 -0.1978  0.3977
 8745W        W24879  16.881   8.804   1.402  0.1237  0.0131  0.1486
 8746W        W24880  15.991   7.843   2.632  0.1297  0.0706  0.1716
 8747W        W24881  16.299  10.161   0.043  0.2088 -0.1856  0.1514
 8748W        W24882   2.940  17.446  15.163  0.0208  0.1365 -0.0953
 8749W        W24883   1.151  15.602   3.228  0.0397  0.0227 -0.0691
 8750W        W24884   0.050  16.659   1.652  0.0585 -0.1560  0.2475
 8751W        W24885   2.395  10.694   5.180 -0.1237  0.1924 -0.1893
 8752W        W24886   6.238   4.949  10.992  0.1750 -0.2759 -0.3734
 8753W        W24887   4.166   1.730  11.201 -0.2172  0.3077 -0.1128
 8754W        W24888  13.339   5.334  12.709  0.0843  0.4701 -0.1211
 8755W        W24889   0.710  11.168   1.334 -0.0211 -0.1624  0.2453
 8756W        W24890   2.231  11.854   1.926  0.2117 -0.1433 -0.0677
 8757W        W24891   0.358  14.125  13.273  0.1565  0.0999  0.2113
 8758W        W24892  15.953   2.590  12.348  0.1959 -0.2860 -0.1514
 8759W        W24893  14.573   1.995  12.714 -0.2020  0.1136 -0.0488
 8760W        W24894  15.877   2.573  10.849 -0.0299 -0.0487  0.1169
 8761W        W24895  17.100  17.891   5.109 -0.3818 -0.4053  0.2139
 8762W        W24896   2.331   4.630  14.426  0.2599 -0.0950 -0.1304
 8763W        W24897   8.217   2.402   1.172  0.3467 -0.2217  0.0590
 8764W        W24898  13.629   6.391  14.945 -0.0600  0.2932  0.1094
 8765W        W24899   6.633   7.749  12.295 -0.2647 -0.1590  0.1938
 8766W        W24900  17.748   4.527  14.764 -0.1250 -0.0638  0.3920
 8767W        W24901  11.235   3.568   0.011 -0.1675  0.0197  0.2876
 8768W        W24902   1.339   9.611   4.525  0.0386 -0.0517 -0.2781
 8769W        W24903   3.421  14.663   5.140  0.1037 -0.1733  0.0751
 8770W        W24904   4.182   1.058   3.857 -0.3254 -0.1063 -0.0140
 8771W        W24905  17.580  14.866   0.134  0.3594  0.1215 -0.0864
 8772W        W24906   9.185  12.022  14.491 -0.0511 -0.2405  0.0796
 8773W        W24907  11.127  11.124   2.995 -0.0123 -0.2103 -0.0048
 8774W        W24908   0.753  14.921  12.185  0.1801  0.1471 -0.1341
 8775W        W24909   2.640   0.297   1.913  0.0198 -0.2186  0.2222
 8776W        W24910   5.129   6.502  15.512 -0.0345  0.0916 -0.0036
 8777W        W24911  14.005  13.010   4.666 -0.2748  0.2627 -0.2112
 8778W        W24912   7.843  16.171  12.632  0.0703  0.0296  0.2105
 8779W        W24913  11.453   3.656   4.266 -0.1741 -0.1238  0.1545
 8780W        W24914   3.259  18.452  12.702 -0.2411 -0.0394 -0.1257
 8781W        W24915  17.786  18.620  11.429 -0.1594  0.0522  0.2301
 8782W        W24916   4.653   8.988  14.945  0.1393  0.0240 -0.0020
 8783W        W24917   8.554  16.317   0.416  0.2728  0.2754 -0.0055
 8784W        W24918   9.232   3.470  11.720 -0.1966 -0.4011 -0.1848
 8785W        W24919   4.920   9.365  12.639  0.0293 -0.0366  0.3594
 8786W        W24920   8.240  14.173  13.871 -0.4281  0.1909 -0.0982
 8787W        W24921  15.532  17.383   1.080  0.1635 -0.4232  0.2293
 8788W        W24922   6.269   3.473   4.396  0.2507 -0.1528  0.1235
 8789W        W24923   3.812  11.258   3.685  0.1392  0.4731  0.1652
 8790W        W24924   6.424   8.189  10.230  0.1320 -0.1100 -0.0745
 8791W        W24925  18.328   9.218  14.231 -0.0461  0.3081 -0.0423
 8792W        W24926   5.422   6.754   4.735 -0.0963  0.1621 -0.0245
 8793W        W24927  17.923   8.976   4.328 -0.0919  0.2636 -0.0319
 8794W        W24928  17.247  13.416  14.709  0.1890 -0.2253  0.0639
 8795W        W24929  13.165   0.248   2.134  0.0685 -0.1482  0.2592
 8796W        W24930  14.562   5.035   3.817 -0.2660  0.1529  0.2906
 8797W        W24931   4.022  12.188   3.493  0.0422  0.2995  0.3775
 8798W        W24932   6.135   8.521   3.060  0.0382 -0.2080  0.0566
 8799W        W24933  11.690   1.255   3.376 -0.1354  0.0471  0.0454
 8800W        W24934   6.832  16.942   1.429  0.0154  0.4676 -0.1065
 8801W        W24935  17.192  13.484   5.022  0.1702  0.3980 -0.0851
 8802W        W24936  16.671  14.248   2.133  0.3543 -0.0695 -0.2169
 8803W        W24937   9.741   0.331  15.464  0.4488 -0.0943 -0.1424
 8804W        W24938  16.821  14.926  15.553  0.2463  0.2836 -0.2103
 8805W        W24939  10.972  14.104   3.994  0.3885  0.1101  0.1020
 8806W        W24940   3.368   4.728  11.179 -0.2519  0.2484 -0.0242
 8807W        W24941  16.224   2.197  15.262  0.2147 -0.0432  0.2379
 8808W        W24942   3.563  18.502   3.289  0.0631  0.0466 -0.1007
 8809W        W24943   5.296  12.672  14.024 -0.1525  0.0943 -0.3864
 8810W        W24944  18.364   0.797   3.812 -0.2156 -0.0614 -0.2455
 8811W        W24945  15.983  16.707   1.918 -0.2560 -0.0509 -0.0082
 8812W        W24946  13.379   8.144  10.657 -0.1477  0.2604 -0.1022
 8813W        W24947  15.625  14.193  15.265  0.0938 -0.0185 -0.2167
 8814W        W24948   0.738  15.821   2.321 -0.1487 -0.1879 -0.1416
 8815W        W24949  16.436   1.884  10.777  0.0632  0.1710 -0.0286
 8816W        W24950   8.567   4.948   2.898  0.2215 -0.0024  0.1717
 8817W        W24951  12.962   3.166  12.392 -0.0764  0.1984 -0.1192
 8818W        W24952  15.654  14.319  14.413  0.1513  0.0784  0.0887
 8819W        W24953   3.110  16.769   3.297  0.0034  0.4105 -0.2327
 8820W        W24954  12.667   4.052  11.588 -0.1137  0.2199 -0.1240
 8821W        W24955  13.585  11.024  12.654  0.1325 -0.1866  0.0585
 8822W        W24956   5.477  13.748  15.062 -0.1166  0.0137  0.1341
 8823W        W24957  18.678   3.001  10.455  0.1142  0.0598  0.0360
 8824W        W24958   2.404   3.586   3.844 -0.2255 -0.0467 -0.1885
 8825W        W24959  10.552  13.619  10.374 -0.2442  0.1489 -0.0614
 8826W        W24960   1.373  12.024  12.448 -0.1416  0.0450  0.1073
 8827W        W24961   1.409   0.583   1.384  0.5381  0.1651  0.1636
 8828W        W24962   8.829   9.588  11.967  0.2849 -0.1618  0.1050
 8829W        W24963  10.393  18.225  12.299  0.2188  0.0624 -0.1616
 8830W        W24964  14.754  12.145  11.913  0.2470 -0.0712  0.0291
 8831W        W24965   1.879   2.567   4.444 -0.1787 -0.2514  0.1582
 8832W        W24966   3.709   1.714   0.816  0.1829  0.0290  0.2129
 8833W        W24967   4.263  16.674  10.914  0.4681 -0.2278 -0.2023
 8834W        W24968   7.493   1.605   3.910 -0.1626 -0.1724 -0.0408
 8835W        W24969  16.152   8.101  15.304  0.1857  0.0055  0.0614
 8836W        W24970   9.779  11.803  13.756  0.0928 -0.3362  0.2470
 8837W        W24971   7.070  18.157   3.184  0.2027 -0.2468  0.1894
 8838W        W24972  13.413  13.345   4.697  0.1019 -0.0911 -0.0363
 8839W        W24973  15.625   6.818  15.512  0.0216 -0.3813  0.0393
 8840W        W24974  12.877   8.632  13.671  0.1602 -0.2654 -0.0391
 8841W        W24975   6.389  13.135   0.818 -0.3514  0.0155  0.4500
 8842W        W24976  15.952   7.337  13.157  0.0740  0.0105 -0.0935
 8843W        W24977   5.721  11.485  13.936 -0.1384 -0.3126 -0.1440
 8844W        W24978  17.201   6.916   2.890 -0.1920  0.0350 -0.0137
 8845W        W24979   0.072   0.401  14.556  0.0762  0.1605  0.1251
 8846W        W24980  12.034   9.586   0.050  0.1092 -0.2139 -0.0407
 8847W        W24981  18.053   3.504  12.978  0.4131  0.0148  0.0398
 8848W        W24982  11.675  14.287   9.687  0.0549 -0.0038  0.0711
 8849W        W24983   2.844  12.832   2.585  0.2701  0.2784 -0.4145
 8850W        W24984   8.483  13.422  11.825 -0.1241  0.0675 -0.1960
 8851W        W24985   3.785   2.192   0.756 -0.0897 -0.1011 -0.1725
 8852W        W24986  14.132  12.782   2.681  0.1404  0.0962 -0.2921
 8853W        W24987   5.147  14.784   0.120 -0.0025 -0.1051  0.2507
 8854W        W24988  18.527   7.616  14.643 -0.0894  0.0096  0.2897
 8855W        W24989   6.009   1.939  10.640 -0.0557  0.0500 -0.1502
 8856W        W24990   2.237  11.660   0.640  0.2482 -0.1428 -0.0156
 8857W        W24991  15.509  11.199   1.914  0.0665  0.4207 -0.2095
 8858W        W24992  11.070   2.196   0.465 -0.3188  0.0237 -0.0664
 8859W        W24993  16.361  13.589  14.931  0.3368 -0.1028  0.1711
 8860W        W24994   5.664  15.136  14.000 -0.0452  0.0871  0.0285
 8861W        W24995  13.150   7.045   4.538 -0.0736 -0.0528  0.0426
 8862W        W24996   6.450   6.267   2.532  0.0635 -0.2486 -0.1339
 8863W        W24997  13.771  17.931  12.447  0.1352  0.1311  0.0026
 8864W        W24998   9.197  17.482   3.483  0.3437  0.2599  0.0952
 8865W        W24999  13.951  12.337   0.376 -0.0665 -0.1845 -0.1825
 8866W        W25000   1.519   0.632  15.119  0.0146  0.0559  0.1518
 8867W        W25001   5.256  14.633   0.978 -0.4126 -0.3518  0.4777
 8868W        W25002   7.144   0.208  13.971 -0.4248 -0.0350  0.1057
 8869W        W25003  18.074  14.066   3.367 -0.1329  0.0536 -0.1856
 8870W        W25004  15.456   6.354   2.393 -0.2109 -0.2711  0.1571
 8871W        W25005   0.034  12.193   0.479 -0.3321 -0.2091 -0.0861
 8872W        W25006   6.266   3.876   0.387 -0.1982  0.2379 -0.1792
 8873W        W25007   2.306   4.697   3.921 -0.0205  0.0526 -0.1061
 8874W        W25008   6.330  14.107  13.598  0.1461  0.0927  0.0618
 8875W        W25009  13.445  16.424   0.875 -0.1933  0.1464 -0.0421
 8876W        W25010   7.065   0.531  11.550  0.3228  0.0367 -0.1207
 8877W        W25011   0.249  11.885   1.770  0.0418  0.1212  0.0167
 8878W        W25012  15.547   5.406  12.639 -0.1205 -0.0082  0.2005
 8879W        W25013   3.902   0.792   0.732 -0.0421  0.1210  0.1101
 8880W        W25014  10.753  16.777  12.765 -0.2398 -0.0462 -0.0430
 8881W        W25015   6.779   3.982   2.831  0.2736  0.0511  0.2062
 8882W        W25016  13.901  15.834  10.908 -0.2904  0.2957 -0.4845
 8883W        W25017   5.705   6.491  11.098  0.0040  0.1106  0.0617
 8884W        W25018  12.188  12.169   0.070 -0.0825  0.1735  0.0049
 8885W        W25019   0.495  11.504  14.101  0.1128  0.1568 -0.0100
 8886W        W25020  10.395  13.981  14.944  0.0552 -0.0476 -0.1146
 8887W        W25021   6.575  16.713  10.653 -0.1345 -0.2384 -0.1866
 8888W        W25022  14.129   3.378   0.071  0.0071 -0.2403  0.1188
 8889W        W25023   7.749  15.395   0.342 -0.3863  0.1511  0.3315
 8890W        W25024   0.917   2.889  14.505  0.1710  0.0620 -0.2772
 8891W        W25025  13.325  12.502  15.233 -0.0866 -0.0694  0.0678
 8892W        W25026   7.609   9.333   0.305 -0.0800  0.3602  0.0488
 8893W        W25027  13.946  14.081  12.744 -0.3949 -0.0340  0.2705
 8894W        W25028   7.939   1.791   0.614 -0.3378  0.0992  0.0914
 8895W        W25029   1.627  15.025  11.949 -0.0009  0.1567 -0.0642
 8896W        W25030  14.674  14.343  13.380  0.2202 -0.0541  0.1214
 8897W        W25031   4.957   6.736   3.410  0.0949  0.0581 -0.1059
 8898W        W25032  17.994  12.229  12.670  0.2442 -0.2537 -0.0962
 8899W        W25033  10.790  11.689   0.680  0.0467 -0.0842  0.0911
 8900W        W25034   6.592   7.336   4.503 -0.2597 -0.0139  0.5363
 8901W        W25035   2.421  10.533   3.859 -0.0122  0.4637 -0.1448
 8902W        W25036   3.421  13.335   3.712  0.0211 -0.0571 -0.1186
 8903W        W25037   5.992   9.642   1.592  0.2097 -0.0363 -0.0802
 8904W        W25038  14.323  18.546   4.799 -0.0384 -0.1686 -0.0462
 8905W        W25039  14.212  13.585  11.348 -0.0095 -0.1195  0.2018
 8906W        W25040   0.777  13.371   1.948 -0.0861  0.3688 -0.2287
 8907W        W25041  14.860  15.692   1.988  0.3682 -0.1117  0.2649
 8908W        W25042   8.128  14.497   2.876  0.1109 -0.0193  0.0399
 8909W        W25043   6.577  17.792  10.658 -0.1806 -0.0483 -0.0568
 8910W        W25044   2.364  14.007  11.546  0.1862  0.0058 -0.3259
 8911W        W25045  10.315  12.331  11.196 -0.1899  0.1041 -0.0984
 8912W        W25046   6.024   1.962   2.861 -0.0286 -0.0404  0.2342
 8913W        W25047  16.589  10.494  14.725 -0.0401 -0.1110  0.0646
 8914W        W25048  11.149   9.358  14.028 -0.0492  0.2616  0.4849
 8915W        W25049  17.673   2.441  13.446 -0.0088  0.2535  0.0127
 8916W        W25050   3.198  15.281   4.358  0.3480  0.2486 -0.0514
 8917W        W25051  14.493  10.861  11.251  0.2636 -0.0893  0.1049
 8918W        W25052   6.825   1.300  14.438 -0.0585  0.2256  0.3558
 8919W        W25053  17.998  12.514   1.199 -0.0394  0.1545  0.2094
 8920W        W25054   0.014   5.000   3.721 -0.2043 -0.2089 -0.1597
 8921W        W25055   4.592  11.792   4.764  0.1415  0.0556 -0.0520
 8922W        W25056   7.965  17.073   4.190 -0.0959  0.0133 -0.1483
 8923W        W25057   5.596   8.887  12.203 -0.1258  0.1176  0.3783
 8924W        W25058   5.501   2.808   1.866  0.0078 -0.2032 -0.2121
 8925W        W25059   4.007  10.800   3.364  0.1063  0.1088 -0.1947
 8926W        W25060   5.297  17.293  10.586 -0.0568  0.0303 -0.2674
 8927W        W25061   6.188   5.789   2.398 -0.1520  0.2233 -0.0158
 8928W        W25062   2.270   2.719   4.192 -0.0451  0.0448 -0.2271
 8929W        W25063  18.258   8.537   2.798 -0.0334  0.2137  0.0017
 8930W        W25064   8.389   4.561   0.481 -0.1606 -0.2202  0.1051
 8931W        W25065   8.839  16.826   4.143  0.2293  0.3385 -0.6590
 8932W        W25066  16.771  18.195  13.562  0.0866 -0.2175 -0.0084
 8933W        W25067   1.562   2.218   5.393 -0.2537  0.5470  0.1659
 8934W        W25068   5.930  17.976   0.202  0.1494  0.2801  0.4543
 8935W        W25069  13.715   1.103  11.928  0.0728 -0.2496  0.0791
 8936W        W25070   4.406  15.440   3.701  0.0222 -0.1791  0.3929
 8937W        W25071   6.929  15.787   3.554 -0.1211  0.1552  0.2447
 8938W        W25072   1.752  10.234  11.326  0.1149 -0.3610  0.1639
 8939W        W25073   4.841   9.750  11.189  0.2638  0.0290  0.0923
 8940W        W25074  11.886  17.993  12.272  0.1219  0.1022  0.0112
 8941W        W25075  16.799  16.975   2.236  0.2436 -0.1699 -0.0178
 8942W        W25076  17.465  13.376  13.275  0.1575 -0.0162  0.1590
 8943W        W25077  13.496   9.867  12.425  0.0387  0.0926  0.1180
 8944W        W25078  10.646  14.013  13.025 -0.0413  0.1053 -0.1186
 8945W        W25079   1.221  16.800  13.981 -0.2035  0.1401  0.0573
 8946W        W25080   5.081   0.883  14.275 -0.2584  0.2797 -0.1892
 8947W        W25081  17.050   6.591  12.991 -0.4103  0.3016 -0.0500
 8948W        W25082  17.948  10.086  11.271 -0.2539  0.0928  0.0331
 8949W        W25083   1.480   1.222   3.676 -0.0581  0.2767  0.0201
 8950W        W25084   5.704   8.748   2.840  0.1294  0.0387 -0.2880
 8951W        W25085   2.647  18.220  13.508 -0.5391  0.0428 -0.0191
 8952W        W25086   1.809  13.837  14.940  0.1351 -0.2075  0.1998
 8953W        W25087  13.867  14.732   5.257 -0.1640 -0.0522 -0.0684
 8954W        W25088  14.277  16.936  10.758 -0.1552  0.3182 -0.2076
 8955W        W25089  17.837   3.083   1.159 -0.0475  0.1246  0.1480
 8956W        W25090   9.952  16.075   3.257 -0.2391  0.3033  0.0385
 8957W        W25091  14.536  18.455   3.584 -0.2608 -0.1338 -0.3033
 8958W        W25092  16.625  16.146   2.993 -0.5320 -0.1054  0.1476
 8959W        W25093   7.104  10.955   1.083  0.1793 -0.2400 -0.0689
 8960W        W25094  16.141   9.140  14.729 -0.1107  0.1272 -0.1439
 8961W        W25095  18.426  18.213   0.085  0.1810  0.0298  0.4064
 8962W        W25096  17.373  15.869   4.937 -0.1193  0.3398  0.0791
 8963W        W25097   3.661  15.729  13.656  0.1898 -0.2258  0.3655
 8964W        W25098   7.513   4.389  12.661  0.2619  0.0206  0.0116
 8965W        W25099  10.711  16.145  14.528  0.0909 -0.1208 -0.1018
 8966W        W25100   7.297  14.764   0.921 -0.0609  0.3456 -0.0336
 8967W        W25101   6.545   9.392   2.703 -0.2006  0.1217  0.3477
 8968W        W25102  10.667   9.034  11.650  0.4344  0.0505 -0.1118
 8969W        W25103   3.919  17.381   4.862  0.0471 -0.5479 -0.1924
 8970W        W25104  12.574  13.012  11.763  0.3218 -0.2056 -0.1742
 8971W        W25105  18.089   5.001   0.513 -0.1985  0.0730 -0.0589
 8972W        W25106   0.540  11.941  13.478 -0.0564  0.0548  0.1172
 8973W        W25107   5.930   5.846  15.370  0.0706 -0.0323  0.1463
 8974W        W25108   4.143  17.315   1.524  0.1658  0.1620  0.4564
 8975W        W25109   2.183   4.108   0.590  0.3810 -0.2715 -0.0574
 8976W        W25110   7.275   6.377   2.229  0.2075  0.0991 -0.0447
 8977W        W25111  14.740   9.846  12.968 -0.2799 -0.2195 -0.1143
 8978W        W25112  15.068   1.448  14.721 -0.0815 -0.0206  0.1235
 8979W        W25113  16.526  17.297  15.051 -0.0864 -0.2682  0.0189
 8980W        W25114   0.572   7.239   4.253 -0.0354 -0.4260 -0.0621
 8981W        W25115   9.855  10.499   3.396 -0.1750  0.1704  0.1233
 8982W        W25116  18.237   7.842  12.443 -0.1301  0.3081  0.1084
 8983W        W25117   7.013   8.845  12.302  0.3813  0.2609  0.3000
 8984W        W25118   5.319   6.255   5.133  0.0909 -0.1598  0.0912
 8985W        W25119   2.774  12.197  11.890  0.0092  0.3632 -0.0791
 8986W        W25120   3.522   1.035   2.921  0.1169 -0.0152  0.1112
 8987W        W25121   4.927   8.996  15.380  0.1646  0.2678  0.2212
 8988W        W25122   6.057   1.623  12.465  0.0717 -0.3398 -0.0550
 8989W        W25123   8.535  12.779  14.325  0.1629 -0.0477  0.2395
 8990W        W25124  14.482   5.556  11.146  0.2940 -0.0200 -0.2323
 8991W        W25125  13.363  12.178  11.014  0.0022 -0.0009  0.1295
 8992W        W25126   7.700   1.516  11.784  0.3028 -0.2434 -0.1308
 8993W        W25127   3.474  16.560  12.839  0.0308  0.1692 -0.0923
 8994W        W25128  10.964  10.018   2.131  0.0256  0.1896 -0.2280
 8995W        W25129  11.328  17.430   1.182  0.2658  0.2055 -0.0306
 8996W        W25130   9.944   5.617  12.589  0.0553  0.1153 -0.0284
 8997W        W25131   3.698  16.982   0.268 -0.0860  0.1442  0.0766
 8998W        W25132   9.678  14.550  11.083 -0.2026  0.1637 -0.1672
 8999W        W25133  10.773   9.205   4.438  0.2646  0.1520  0.0519
 9000W        W25134   5.031  13.127   3.056  0.1879  0.0620 -0.3735
 9001W        W25135  12.699   2.836  15.213  0.1525  0.1644 -0.0944
 9002W        W25136  17.962  12.654   2.856  0.2614  0.2384  0.1677
 9003W        W25137   6.488  12.696  14.134  0.4171  0.0005  0.0205
 9004W        W25138  10.843  18.480   0.657 -0.1053  0.1858 -0.3094
 9005W        W25139  12.205   0.685   2.241  0.1634  0.1401 -0.0718
 9006W        W25140   6.038   6.420   2.737  0.0690 -0.1892  0.0016
 9007W        W25141  16.433   5.627  14.108 -0.0781 -0.1840  0.1446
 9008W        W25142   1.440   7.279   0.095  0.1671  0.2165 -0.1931
 9009W        W25143  15.487  15.681   3.347 -0.2024  0.2023 -0.0265
 9010W        W25144  18.696  11.018  12.938  0.1223 -0.1184 -0.0091
 9011W        W25145  16.682   8.009  11.957  0.3577  0.1099 -0.0892
 9012W        W25146  18.605   4.386  11.296  0.0044 -0.0259 -0.1241
 9013W        W25147  14.199  11.889  11.422  0.0407 -0.2846 -0.2976
 9014W        W25148   1.254   6.043  12.385  0.1703  0.0636 -0.0792
 9015W        W25149  15.330   8.277  10.834  0.0370 -0.3667  0.1877
 9016W        W25150   6.636   9.410  10.929  0.4894 -0.1742 -0.2061
 9017W        W25151  13.364  10.885  11.881  0.0142 -0.2518 -0.1623
 9018W        W25152  15.585   1.645   4.139 -0.1522 -0.0197 -0.2263
 9019W        W25153  17.857   7.965   1.039  0.0527 -0.2466  0.3082
 9020W        W25154  13.394   4.010  12.453  0.0010 -0.2033  0.1000
 9021W        W25155   5.086   1.057  10.613  0.0245  0.1328 -0.0232
 9022W        W25156  11.649   5.699  12.711  0.0740 -0.0744  0.1028
 9023W        W25157   6.963  18.505  12.172  0.0885 -0.2029  0.1500
 9024W        W25158  18.452   0.386   4.047  0.1000  0.0375  0.1169
 9025W        W25159   7.448   8.863   1.199  0.0142 -0.1700 -0.2879
 9026W        W25160  10.919   4.523  15.520  0.2208 -0.0345 -0.2374
 9027W        W25161  13.070  15.978  13.024 -0.4501 -0.1822  0.1629
 9028W        W25162  16.144  17.827  13.698 -0.0600 -0.0341  0.0395
 9029W        W25163  18.697   1.784  15.451  0.2639 -0.0867 -0.1489
 9030W        W25164  12.421   6.166  14.439 -0.0628 -0.1019  0.1248
 9031W        W25165   9.677   8.708   3.130 -0.3656  0.2439  0.1288
 9032W        W25166  15.161   3.124  15.206  0.1957  0.2381  0.0266
 9033W        W25167   9.452  15.188  15.140  0.1613  0.0423  0.1254
 9034W        W25168   7.828  12.565  14.275 -0.2762 -0.0291  0.4523
 9035W        W25169  18.160  14.226  15.336  0.0154 -0.0786 -0.1184
 9036W        W25170   3.663  18.381   5.651 -0.0281  0.2653  0.0356
 9037W        W25171   2.884  10.314   4.280  0.3799  0.0849  0.1929
 9038W        W25172  18.137   2.942  12.257 -0.2425 -0.1784  0.1856
 9039W        W25173   2.066  10.260  14.667 -0.2780 -0.0716  0.0704
 9040W        W25174  13.185  17.108   5.116  0.1141  0.1411  0.0519
 9041W        W25175   8.059  17.706  12.310  0.1554  0.1707  0.3115
 9042W        W25176  15.296   3.402  11.944  0.2491 -0.1617 -0.2519
 9043W        W25177   5.949   3.340  10.791  0.0472  0.1844 -0.2493
 9044W        W25178   0.116  14.059   2.129 -0.0066  0.0473 -0.1602
 9045W        W25179   3.634  12.633   2.057 -0.0798  0.1756  0.1353
 9046W        W25180   0.705  16.286  11.016  0.3760  0.0647 -0.2927
 9047W        W25181   0.814   1.460  10.171  0.0186  0.1587  0.1065
 9048W        W25182   1.548   5.622   4.765  0.0942 -0.3478 -0.1989
 9049W        W25183   5.631  14.915   4.133  0.2544  0.0753  0.2518
 9050W        W25184  17.708   9.086  14.796  0.2389 -0.1528 -0.1345
 9051W        W25185   2.685  17.101  13.163  0.0457 -0.6264  0.1513
 9052W        W25186  16.181   1.943   3.522  0.0555  0.1461 -0.1893
 9053W        W25187  17.299   6.045  12.918  0.0519  0.1399  0.1390
 9054W        W25188  18.023  14.243  14.431  0.1541 -0.1732  0.1929
 9055W        W25189  12.635   0.961   3.730 -0.1621 -0.1453 -0.4895
 9056W        W25190   9.291  15.891   9.973 -0.2930 -0.1851  0.1551
 9057W        W25191   0.583   3.991  12.428 -0.0398  0.2165 -0.0837
 9058W        W25192   7.463   0.645  10.458 -0.2447 -0.0546  0.0483
 9059W        W25193  12.949   3.704  14.254 -0.0673 -0.3130 -0.0343
 9060W        W25194   3.504  15.820  15.269 -0.1434 -0.3509 -0.0221
 9061W        W25195  13.324  14.854   2.970 -0.1388 -0.1253 -0.0787
 9062W        W25196  13.810   0.495  11.249 -0.2954  0.2566  0.1558
 9063W        W25197   0.848  18.308   3.671  0.1849  0.3213 -0.0664
 9064W        W25198   6.007   2.080  14.429 -0.2273  0.1028  0.0624
 9065W        W25199   2.088   0.703  13.075  0.1239  0.0311  0.0301
 9066W        W25200  12.851   7.293   0.643  0.1537 -0.2673  0.0313
 9067W        W25201  13.347   7.700  11.859 -0.3115 -0.1019  0.3159
 9068W        W25202  17.289   3.533  14.490 -0.0651 -0.1146  0.1334
 9069W        W25203  12.449  17.862  12.591 -0.0101 -0.3404  0.0309
 9070W        W25204   8.090   6.615  11.443 -0.1113 -0.3078  0.0952
 9071W        W25205  14.070   2.677   4.483 -0.1995 -0.1643 -0.2558
 9072W        W25206   6.714   2.636   3.094  0.1967  0.1268 -0.1040
 9073W        W25207  17.927   5.950   3.807 -0.1450  0.1701 -0.1749
 9074W        W25208   9.126   9.017   5.384  0.0992  0.2634 -0.2672
 9075W        W25209  15.382  11.290   0.437  0.5363 -0.1378  0.0523
 9076W        W25210   8.180  16.549  11.764  0.0790 -0.1495  0.0135
 9077W        W25211  17.458  13.382  11.399  0.1050  0.3224 -0.3140
 9078W        W25212   3.491   7.213  14.410 -0.1625  0.0920 -0.3596
 9079W        W25213  12.894   5.966  12.537 -0.2993  0.0815  0.0945
 9080W        W25214  10.433   3.143  14.245  0.1968 -0.1569  0.0570
 9081W        W25215  13.866   2.411   9.949  0.0942  0.1049  0.0542
 9082W        W25216   0.045   1.253   4.573 -0.0203 -0.2108 -0.1404
 9083W        W25217   7.391   7.896   3.643 -0.1791 -0.0191 -0.3973
 9084W        W25218  16.403  14.528  14.698 -0.0176  0.0446 -0.7045
 9085W        W25219   0.634   9.821   2.902 -0.1648 -0.2194 -0.2040
 9086W        W25220   8.798   5.356   4.772 -0.2161 -0.2393  0.0227
 9087W        W25221   1.077   1.557  15.187 -0.2651  0.0310 -0.0629
 9088W        W25222   7.730  14.470  11.831 -0.0665 -0.4493 -0.0215
 9089W        W25223  15.098   5.449  12.348  0.1385  0.0439  0.0928
 9090W        W25224  16.397  18.051  13.290 -0.2038 -0.1145 -0.0433
 9091W        W25225  17.080   0.267  13.700 -0.1531  0.1535 -0.0450
 9092W        W25226   0.761   6.478   2.243 -0.0199 -0.1094 -0.1450
 9093W        W25227   1.568  18.033   2.740 -0.0458  0.1751  0.2856
 9094W        W25228  13.529  18.268  13.132 -0.0031  0.3384 -0.0204
 9095W        W25229  14.087   2.432  13.221  0.3609  0.0011  0.2679
 9096W        W25230   2.184  10.132  12.254  0.0298 -0.3033  0.1027
 9097W        W25231   6.951   0.192  14.438 -0.0638 -0.0094  0.1245
 9098W        W25232  11.300  18.078  10.577 -0.0175 -0.3694  0.1839
 9099W        W25233   6.513  18.675   4.780  0.3344 -0.1162  0.1514
 9100W        W25234   6.288   5.029   5.369  0.1152  0.0216  0.0263
 9101W        W25235  13.533  12.849  12.992  0.0548 -0.1813  0.0434
 9102W        W25236  17.684  16.228   4.645 -0.0194  0.2249  0.0070
 9103W        W25237   9.242  16.916  13.163  0.0152  0.0214 -0.1049
 9104W        W25238   2.898   8.376   0.816 -0.1868  0.0073  0.0829
 9105W        W25239  15.192  16.410   4.679  0.1256 -0.3898  0.1341
 9106W        W25240   1.892   5.355  10.375  0.1340 -0.0309  0.2793
 9107W        W25241   2.982   2.604   0.230 -0.0372 -0.0118 -0.1863
 9108W        W25242   9.859   2.891   2.281 -0.0683 -0.2268  0.2373
 9109W        W25243   6.834  16.581  12.335  0.1293  0.2852 -0.1607
 9110W        W25244   7.800   1.728   4.455 -0.0441  0.0665 -0.1350
 9111W        W25245   4.597   7.909  15.161 -0.3996 -0.0411 -0.1458
 9112W        W25246  10.240   3.500  11.452 -0.2537 -0.0715  0.0237
 9113W        W25247  15.527  16.454   4.267 -0.0969  0.1708  0.1848
 9114W        W25248  14.495   2.399  10.601  0.3720  0.0089  0.1890
 9115W        W25249   3.414  10.674  10.866  0.0171 -0.1364 -0.2179
 9116W        W25250   9.735   2.485  13.845 -0.0366  0.0530 -0.2571
 9117W        W25251   8.548   9.872   1.093 -0.0528  0.1101  0.0680
 9118W        W25252   0.341   9.243   3.546 -0.0148  0.1382 -0.3201
 9119W        W25253  15.927   8.825   1.549 -0.5212  0.2744 -0.1047
 9120W        W25254   4.718  10.327  13.569  0.0279  0.0663  0.0491
 9121W        W25255   5.361   6.993   0.907 -0.1622 -0.2541 -0.0554
 9122W        W25256   3.682   0.292   0.885 -0.1172  0.1531 -0.1654
 9123W        W25257   0.272   7.914   0.254  0.0936 -0.4133 -0.0585
 9124W        W25258  18.476   4.060  13.561 -0.2391  0.0214  0.0495
 9125W        W25259  14.526  12.552   1.193  0.0822  0.2548  0.0328
 9126W        W25260   9.611   2.461   3.483  0.3006  0.0655 -0.0984
 9127W        W25261   8.907   6.866   0.691 -0.1416 -0.2265  0.0593
 9128W        W25262  16.748  15.477   2.031 -0.0521  0.0024 -0.0815
 9129W        W25263  14.055   9.308   2.631 -0.0053  0.0063  0.1510
 9130W        W25264  18.672  10.678   1.046 -0.3589 -0.1142 -0.2999
 9131W        W25265  18.399   7.644   3.086 -0.0828 -0.3416 -0.0252
 9132W        W25266   8.647  17.047   9.597 -0.0905  0.3503 -0.0002
 9133W        W25267  11.383   7.929   1.327  0.5255 -0.0429  0.0695
 9134W        W25268  12.898   9.007   5.832 -0.0186 -0.0401 -0.1362
 9135W        W25269  13.205   6.861   0.600  0.0033  0.0816 -0.1887
 9136W        W25270  14.186   8.771  15.547  0.2743  0.1264 -0.3372
 9137W        W25271  11.329  12.344   0.036 -0.1848  0.2260  0.2194
 9138W        W25272   1.702  16.186   0.998  0.0245 -0.0516  0.1477
 9139W        W25273   8.160  14.183  12.095  0.2408 -0.2338 -0.0626
 9140W        W25274  12.638  17.386   0.725 -0.2176  0.0974  0.3844
 9141W        W25275   2.681   1.195   1.263  0.2055  0.3400  0.1342
 9142W        W25276   6.235   4.059   1.954  0.1244  0.0083 -0.2872
 9143W        W25277   6.763  14.911  14.044  0.3770 -0.0604 -0.0489
 9144W        W25278  11.811   6.282   2.881 -0.3826 -0.3547 -0.1803
 9145W        W25279  14.137  14.384   0.483  0.1913  0.0240 -0.1890
 9146W        W25280   6.332   9.738  15.550  0.3143  0.0799 -0.3337
 9147W        W25281  18.488  11.052   9.805  0.1054  0.1891 -0.3818
 9148W        W25282  13.323   2.833  13.331 -0.1367 -0.1980 -0.3428
 9149W        W25283  12.373  17.829   0.466  0.0799 -0.0725  0.0651
 9150W        W25284   1.842   0.834  13.818 -0.2966  0.1110  0.4254
 9151W        W25285  11.929  11.681   5.096 -0.1202 -0.0488 -0.2772
 9152W        W25286  17.863  14.609   0.496 -0.1007 -0.0725  0.1738
 9153W        W25287   1.074   8.669   6.179  0.2553 -0.0684 -0.3105
 9154W        W25288  17.121   0.687  14.025  0.3050  0.0640 -0.0711
 9155W        W25289  13.966   0.449   1.018 -0.0112 -0.1789  0.2015
 9156W        W25290   8.283   7.084  14.843 -0.1942  0.1241  0.1138
 9157W        W25291   5.451   4.298  14.049  0.0689 -0.1339 -0.0661
 9158W        W25292  16.348  12.249   1.530 -0.0383 -0.3173  0.2202
 9159W        W25293   2.908   0.933   5.018  0.0983 -0.1944  0.0656
 9160W        W25294  18.246   5.258   1.451 -0.1958  0.0485  0.2760
 9161W        W25295  12.459   4.065  13.916 -0.0861 -0.1242  0.0042
 9162W        W25296  12.413   8.677  11.928 -0.0589  0.1822 -0.0953
 9163W        W25297  11.207   4.544  11.362 -0.1355  0.1610 -0.1298
 9164W        W25298   8.468  16.839  12.866  0.0528  0.4371 -0.2761
 9165W        W25299   5.643  14.245  14.536 -0.0235  0.2326 -0.1518
 9166W        W25300   5.217   1.125   3.391  0.2728  0.2697 -0.1380
 9167W        W25301  16.786  17.147  12.681 -0.1692  0.2735  0.1118
 9168W        W25302   6.561  16.095   1.468  0.3045  0.1794  0.2179
 9169W        W25303   4.354  10.083   0.783 -0.0762  0.0274 -0.0931
 9170W        W25304  10.348  17.497   2.191  0.1016  0.1426  0.1605
 9171W        W25305  10.514   3.770  15.253 -0.1444  0.0823  0.1695
 9172W        W25306   8.830  17.848  10.144  0.2694  0.2628  0.0885
 9173W        W25307   5.255  13.780   4.919 -0.0269  0.0905  0.1073
 9174W        W25308   0.147  17.216  14.198  0.0193 -0.1505 -0.2851
 9175W        W25309   8.293   3.373  12.106 -0.0767 -0.0149  0.1502
 9176W        W25310  18.299   5.257   3.085  0.1747  0.2975  0.0909
 9177W        W25311   2.601  16.454  10.960 -0.0988 -0.0512  0.0893
 9178W        W25312   3.661  12.896   1.627  0.0592  0.0127 -0.0562
 9179W        W25313  13.522   2.007  12.998 -0.0165 -0.1826  0.2980
 9180W        W25314   2.237  12.673   2.618 -0.0580  0.3842 -0.1842
 9181W        W25315  14.943   9.378  14.295  0.0692  0.1125  0.1015
 9182W        W25316  15.963   7.209  11.101  0.0218 -0.1146  0.3650
 9183W        W25317  12.594   9.333  14.295  0.3427 -0.3652  0.0571
 9184W        W25318  17.048  15.834  13.725 -0.4961 -0.0393 -0.0417
 9185W        W25319   1.981   5.729   1.001 -0.1859  0.0590  0.0139
 9186W        W25320   6.095  15.090   5.875 -0.2614  0.4270  0.0714
 9187W        W25321  15.422  17.034   0.559 -0.1152  0.0289 -0.1087
 9188W        W25322   2.038   1.732  13.585 -0.0284  0.0508 -0.3439
 9189W        W25323   1.819   1.694  14.081  0.5686 -0.1832 -0.0231
 9190W        W25324  13.276   8.632   5.537 -0.1605 -0.2143 -0.3093
 9191W        W25325   4.101  13.796   4.852 -0.1909 -0.2665 -0.0282
 9192W        W25326  15.414  11.023   1.176 -0.1568  0.3196  0.2183
 9193W        W25327  14.586  12.497  15.444  0.0204 -0.2917  0.2180
 9194W        W25328  17.353   5.025  12.114  0.1585 -0.0997  0.1557
 9195W        W25329   4.969   3.319  13.224 -0.0201 -0.0422  0.0561
 9196W        W25330   6.273  13.717  15.276  0.2478 -0.3044 -0.3382
 9197W        W25331   6.956  16.931  14.228 -0.0797  0.0832  0.0537
 9198W        W25332  15.980   8.983   5.313 -0.0270 -0.0094  0.0533
 9199W        W25333   9.398  18.097   4.500 -0.5249 -0.2406 -0.1167
 9200W        W25334  12.749   8.442   2.118 -0.1096  0.0063 -0.0657
 9201W        W25335  18.205  18.630  13.948 -0.1014 -0.0394 -0.0266
 9202W        W25336   6.058   0.639   3.427  0.1568  0.3287  0.1504
 9203W        W25337  15.940  16.503   3.365 -0.1840 -0.0544 -0.1873
 9204W        W25338  14.928   7.495  14.674 -0.2569  0.0294  0.1532
 9205W        W25339  12.169  18.314  15.427 -0.4135  0.1937 -0.0720
 9206W        W25340   3.448  16.781  12.327 -0.1375 -0.1176 -0.1222
 9207W        W25341  16.898  12.958   4.836 -0.1992 -0.1526  0.2149
 9208W        W25342   8.924   7.980   5.401  0.0070 -0.1650  0.0312
 9209W        W25343   8.961  16.845  12.696  0.1405  0.2468 -0.0059
 9210W        W25344  17.450   5.386   5.764  0.0085  0.1053 -0.1252
 9211W        W25345   8.499   7.976   0.703 -0.0129  0.0663  0.0822
 9212W        W25346   0.852  17.821   0.772  0.0667 -0.3294  0.0411
 9213W        W25347  13.676   1.380   2.005  0.0414 -0.0496  0.2650
 9214W        W25348   3.917   3.902   0.140 -0.0440 -0.0624 -0.1021
 9215W        W25349  17.790   4.394  11.812  0.1526  0.2293 -0.1406
 9216W        W25350  10.920  15.468  13.983 -0.0123  0.0313  0.1214
 9217W        W25351  16.655   8.283  11.499  0.1454  0.1303  0.1916
 9218W        W25352   0.492   6.885   2.362  0.1180 -0.0240  0.1598
 9219W        W25353   4.020   7.759   4.519 -0.0767  0.2849  0.0902
 9220W        W25354   3.290   4.511  10.704 -0.1933  0.3157  0.0211
 9221W        W25355   2.302   9.207  12.758  0.0170  0.1543  0.1280
 9222W        W25356   0.633   3.883  13.534 -0.1899 -0.2551  0.2887
 9223W        W25357  12.220   7.550  12.660 -0.0818  0.2037 -0.0479
 9224W        W25358  15.217   9.607  11.464  0.3085  0.0969 -0.1959
 9225W        W25359   8.923   0.308   0.565  0.0152  0.1401 -0.1634
 9226W        W25360   4.473   4.185  12.357  0.1183 -0.1238  0.0802
 9227W        W25361  15.548   9.053  13.799 -0.1722  0.1613  0.0679
 9228W        W25362   5.099  14.467  14.355  0.1903 -0.0323  0.3471
 9229W        W25363  17.448   9.767   3.057  0.0338 -0.0295  0.0613
 9230W        W25364   6.874  18.362  12.668 -0.0254 -0.1458  0.2051
 9231W        W25365   1.083   8.895  14.666 -0.0119  0.2099 -0.3259
 9232W        W25366   7.212  15.090  10.039 -0.0888 -0.0645  0.0510
 9233W        W25367   5.360   9.603  12.866  0.2014  0.3554  0.2072
 9234W        W25368   9.224   8.879   1.107  0.2277  0.1179 -0.0196
 9235W        W25369  15.139  11.058   4.884 -0.0521 -0.2561 -0.2045
 9236W        W25370   8.260  15.556   0.192  0.0515 -0.2381  0.1731
 9237W        W25371  13.315   4.892  13.594 -0.0397 -0.0610  0.0721
 9238W        W25372   6.785   9.967   4.133  0.2073  0.1049  0.0820
 9239W        W25373  10.195  18.728  12.141  0.2598 -0.0731 -0.1255
 9240W        W25374   3.617   6.740  11.201  0.2332 -0.3204 -0.0663
 9241W        W25375   0.270   8.660  14.725 -0.2373  0.4724 -0.1443
 9242W        W25376   7.727   8.000  12.404  0.0004  0.0945  0.0575
 9243W        W25377   4.320   6.675  13.302  0.0531 -0.0284 -0.1127
 9244W        W25378  17.086  13.666  13.320 -0.1032 -0.1184 -0.0378
 9245W        W25379   7.866   3.240  11.349 -0.4694 -0.2207  0.0674
 9246W        W25380   1.406  14.632   1.122 -0.3700 -0.3012  0.1844
 9247W        W25381  14.486  11.472   3.676  0.3610 -0.1031 -0.3620
 9248W        W25382  13.355  15.507  11.151 -0.0541  0.1153 -0.1081
 9249W        W25383   6.040  17.125   3.162  0.1023  0.1661  0.0527
 9250W        W25384   3.827   1.301   2.589 -0.2658  0.0051  0.0647
 9251W        W25385   9.117   1.601   2.509 -0.1551 -0.0547  0.4228
 9252W        W25386   7.394   8.616  15.150 -0.1632 -0.2774 -0.0905
 9253W        W25387  11.705   0.651  12.134 -0.1005 -0.1540  0.2189
 9254W        W25388   1.078   9.455   1.756 -0.1041  0.1865  0.0044
 9255W        W25389  14.951   8.374  15.508 -0.0026 -0.1579  0.1852
 9256W        W25390  17.604  16.994  12.042  0.5437  0.0601 -0.0374
 9257W        W25391   0.654   4.605  12.547 -0.1621  0.0879 -0.0718
 9258W        W25392   6.920   6.791   4.548 -0.0357  0.2659  0.3451
 9259W        W25393  14.983   7.277  12.188 -0.0199 -0.2630  0.3091
 9260W        W25394  15.352   9.171   9.761 -0.4392 -0.1851 -0.0470
 9261W        W25395   7.816  17.244   3.275 -0.1274 -0.3310  0.1316
 9262W        W25396   0.026  17.489   3.434 -0.3031  0.2322 -0.2437
 9263W        W25397  13.276   6.875  12.128  0.0048  0.0059 -0.1756
 9264W        W25398   1.038   8.144  11.787  0.1363  0.0077 -0.0886
 9265W        W25399  13.410   0.616  12.075 -0.2858  0.0195  0.1975
 9266W        W25400  11.247  11.429  10.850 -0.1082  0.3906 -0.2252
 9267W        W25401   5.712  10.459   2.026  0.1413 -0.0788 -0.0645
 9268W        W25402   7.795  18.639   1.760  0.1310 -0.3122 -0.0891
 9269W        W25403  14.134  16.151   1.869  0.1162  0.2503 -0.0253
 9270W        W25404   1.205  15.057   0.213 -0.2755 -0.0087  0.0414
 9271W        W25405   6.046  15.708  12.233 -0.0149  0.1310 -0.0967
 9272W        W25406  16.483   3.159   3.765  0.1324 -0.0882 -0.0538
 9273W        W25407  10.477  13.505   3.629 -0.0228 -0.3136 -0.2220
 9274W        W25408  16.990  12.872   1.677  0.0373 -0.0340  0.1912
 9275W        W25409  14.328  14.980  11.201 -0.2369  0.4367  0.1219
 9276W        W25410   2.881  17.219   3.370 -0.0415  0.0302  0.0759
 9277W        W25411  12.035   3.284   4.750  0.0263  0.2281  0.1691
 9278W        W25412   6.907   4.250   0.340 -0.2752  0.4387 -0.0249
 9279W        W25413   9.907  15.291   5.192 -0.0583  0.0043  0.1150
 9280W        W25414  11.801   2.802   5.000 -0.0077  0.1544  0.1318
 9281W        W25415  14.473  15.523   4.114  0.3071  0.1527  0.1027
 9282W        W25416  14.476   5.152  14.133 -0.3188 -0.0104 -0.1461
 9283W        W25417  13.940  17.324  10.310 -0.0500  0.0378 -0.0172
 9284W        W25418   8.152   9.762  14.873 -0.0242 -0.0526 -0.0462
 9285W        W25419   2.558  12.717   3.037 -0.4290  0.0741  0.0431
 9286W        W25420   0.707  15.978   2.837 -0.2572 -0.1367 -0.1406
 9287W        W25421  18.698   7.329  11.931 -0.2664 -0.5445 -0.0356
 9288W        W25422   1.582   9.139  13.301 -0.0036 -0.0656  0.1495
 9289W        W25423   0.392   8.452   4.530  0.0824 -0.3742  0.3183
 9290W        W25424   8.046  11.271  11.387 -0.0297 -0.0612  0.0877
 9291W        W25425  18.338  15.313   0.453 -0.3344 -0.3410  0.3896
 9292W        W25426  18.036  18.048   3.304 -0.1235 -0.1791 -0.2462
 9293W        W25427  14.369  10.780   4.455 -0.0681  0.0707 -0.0920
 9294W        W25428  15.767   2.607  11.843 -0.1581  0.2713  0.1729
 9295W        W25429  10.320  18.432   4.218  0.3517 -0.6167  0.0580
 9296W        W25430  15.942   5.065  12.354 -0.0016  0.0862 -0.2302
 9297W        W25431   5.539   9.999   2.242  0.2411 -0.2192  0.2788
 9298W        W25432  13.664  17.085  11.379  0.0163 -0.0355 -0.1537
 9299W        W25433  10.734   1.526   1.279  0.2447 -0.1173  0.0772
 9300W        W25434  13.712   5.412  14.915  0.0175  0.0130 -0.0490
 9301W        W25435  18.659   9.539  11.463  0.0124  0.4076 -0.2371
 9302W        W25436   0.378  16.930   0.857 -0.0303  0.0252 -0.1485
 9303W        W25437  17.953  15.786   1.194 -0.2951  0.0569 -0.3778
 9304W        W25438  14.286  14.820   4.492  0.1000  0.1381 -0.0247
 9305W        W25439  16.258   8.052  12.193  0.1418 -0.3233 -0.2956
 9306W        W25440  10.528   7.767  11.597  0.1627  0.2217 -0.0204
 9307W        W25441  13.580   2.151  13.825 -0.2053 -0.0163 -0.3463
 9308W        W25442   1.135  16.405  10.777  0.0106 -0.1060 -0.2630
 9309W        W25443   5.375   9.274  12.469  0.0875 -0.0301 -0.0833
 9310W        W25444  14.150   7.775   4.400 -0.1166 -0.0397 -0.0096
 9311W        W25445   5.059   3.136   3.256  0.0028  0.0062 -0.0594
 9312W        W25446  15.174  13.073   3.707 -0.1259 -0.1119 -0.1672
 9313W        W25447  16.357  17.255  13.593 -0.0799  0.0626  0.0840
 9314W        W25448  10.893  10.417   0.038 -0.2094 -0.2887 -0.0901
 9315W        W25449  12.256  18.721   5.078 -0.0704 -0.1530  0.2340
 9316W        W25450   6.013   3.008  13.445 -0.1535 -0.0742 -0.0088
 9317W        W25451   4.193   5.524  11.140 -0.3162 -0.2098 -0.1520
 9318W        W25452   8.937   4.054   1.144  0.1911 -0.1590  0.3223
 9319W        W25453   4.849  11.750   3.837 -0.1293  0.2203 -0.1950
 9320W        W25454  18.608   8.893  15.189  0.3507 -0.4150  0.0756
 9321W        W25455  17.804   9.638  12.336 -0.2403  0.1852  0.1447
 9322W        W25456   9.308   4.063  13.890  0.2937 -0.1179 -0.0553
 9323W        W25457   3.705   4.426   0.209  0.2128  0.1283 -0.1569
 9324W        W25458  14.025  17.486  13.999  0.1261 -0.1746  0.1093
 9325W        W25459   0.274   1.414  13.166 -0.2215 -0.0191 -0.3619
 9326W        W25460  11.662  13.464   2.233  0.1418 -0.2178  0.2087
 9327W        W25461   6.014   0.119  15.493 -0.0934 -0.1883  0.2281
 9328W        W25462  13.915  12.466   4.754  0.2253 -0.1784  0.0051
 9329W        W25463   8.098  12.292   2.580 -0.1453 -0.1326  0.1057
 9330W        W25464  13.449   0.246  15.344 -0.0550  0.2065  0.2231
 9331W        W25465   8.826   6.920  12.388 -0.3273 -0.1409  0.1297
 9332W        W25466   6.624   1.057  13.621  0.0180 -0.0069  0.2027
 9333W        W25467   4.316   0.082  11.707  0.0338  0.1034  0.1849
 9334W        W25468  16.445  15.645   0.681  0.1762  0.0109  0.1843
 9335W        W25469   4.452  11.916   2.601 -0.0026 -0.2310  0.1448
 9336W        W25470  13.740  10.357   1.381  0.0975  0.0202  0.1628
 9337W        W25471   9.643  14.279   4.596  0.3798 -0.1530 -0.0623
 9338W        W25472   8.630  15.670  14.944 -0.1468 -0.2073 -0.0642
 9339W        W25473   0.897   3.290  11.321 -0.0640 -0.0293  0.1016
 9340W        W25474  18.588   2.047  13.507 -0.2191  0.0676  0.1550
 9341W        W25475  11.772   5.300  13.407  0.0603 -0.1050  0.0362
 9342W        W25476  15.695  17.663   4.067  0.0669 -0.0272  0.1202
 9343W        W25477   1.559   5.554  14.711  0.2464  0.0250 -0.2830
 9344W        W25478  15.046   5.014   4.047  0.1111  0.0687  0.3267
 9345W        W25479   0.154   0.993   1.300  0.1923 -0.0785 -0.1940
 9346W        W25480  11.575   8.927   1.092  0.0062  0.2405 -0.3750
 9347W        W25481   1.733  12.284   3.273  0.2296  0.0431 -0.1061
 9348W        W25482  12.504  13.072   0.858 -0.2051 -0.1786 -0.0867
 9349W        W25483  13.200   2.115   2.829  0.0564  0.1796 -0.0428
 9350W        W25484  17.238  18.418   4.320 -0.1591  0.4770 -0.1188
 9351W        W25485   8.702   6.849   3.356 -0.1286 -0.2072  0.0091
 9352W        W25486   6.238  18.276  11.884  0.3370 -0.0038 -0.1993
 9353W        W25487   9.989  11.177   3.990  0.0511 -0.0490 -0.0551
 9354W        W25488   8.040   8.263   0.809 -0.0352 -0.1440 -0.2870
 9355W        W25489   3.937   5.734   2.247  0.0200 -0.2721  0.0851
 9356W        W25490   0.418   3.432   5.083  0.2389 -0.1804 -0.0809
 9357W        W25491  18.173   6.030   1.621 -0.0678 -0.2248 -0.1071
 9358W        W25492   6.115   8.469  12.136 -0.3403 -0.2634  0.0411
 9359W        W25493  11.818   4.511  15.257  0.1116  0.2662  0.1707
 9360W        W25494  15.807   3.610   0.592 -0.0821 -0.0436  0.3676
 9361W        W25495   0.840  18.544   4.379  0.1414 -0.0406 -0.0321
 9362W        W25496   3.041  14.810  10.054 -0.0413  0.1871  0.1801
 9363W        W25497  14.672   5.455   5.640  0.0733  0.1574  0.2556
 9364W        W25498  12.865  12.335   1.875  0.0423 -0.2826 -0.1191
 9365W        W25499  12.635  15.932  12.626 -0.1123  0.0680  0.3341
 9366W        W25500   1.351  16.207   0.129  0.2788 -0.2061 -0.2168
 9367W        W25501   1.168   2.488  11.830 -0.0726 -0.1552  0.2162
 9368W        W25502  12.341   7.857   0.290 -0.0461  0.4667 -0.0800
 9369W        W25503  12.227  13.035  13.209  0.2507  0.2569  0.1183
 9370W        W25504   2.860   3.847   2.701 -0.1622 -0.0986 -0.0510
 9371W        W25505  10.676   7.675  12.509 -0.0664 -0.0103  0.1197
 9372W        W25506  16.060   0.964   1.377 -0.0242  0.1275 -0.0939
 9373W        W25507   5.446   7.395  11.080  0.0083 -0.1762  0.1147
 9374W        W25508   9.910  16.498  15.329 -0.2295 -0.2525 -0.3142
 9375W        W25509   0.076   9.168   5.389  0.0998 -0.2652  0.1959
 9376W        W25510   5.103   6.025  11.791 -0.3252 -0.1261  0.1539
 9377W        W25511   3.334   7.742   3.804 -0.1316 -0.0195  0.2245
 9378W        W25512   3.608   4.574   4.150 -0.3296  0.0836 -0.1413
 9379W        W25513  10.226   0.158  13.138  0.1643  0.2159 -0.0001
 9380W        W25514   0.734  14.099   3.548  0.0244  0.2225 -0.0746
 9381W        W25515   5.705   2.792   1.425  0.1074 -0.2480  0.1330
 9382W        W25516   7.829  18.479   1.231 -0.3727 -0.0601 -0.1666
 9383W        W25517  16.965   2.385  14.358  0.0181  0.0465 -0.1780
 9384W        W25518   5.900   0.744   1.153  0.2001 -0.0159  0.1543
 9385W        W25519  18.447  12.520  11.868  0.3663  0.0644 -0.3434
 9386W        W25520   5.146   1.726  14.153  0.3508 -0.3615  0.0290
 9387W        W25521  18.168   3.965   0.683 -0.2791 -0.1863 -0.0030
 9388W        W25522   8.158   7.458   2.011 -0.0859 -0.0235 -0.1025
 9389W        W25523   2.648   0.179  13.245  0.1428 -0.1704 -0.1807
 9390W        W25524  10.677   8.701  14.524 -0.0198 -0.2967  0.0136
 9391W        W25525   7.991   1.066   4.650  0.2309 -0.1407  0.1926
 9392W        W25526   2.899   6.735   3.927  0.2736  0.2688  0.0487
 9393W        W25527   1.865   5.277  14.995 -0.0532  0.0001 -0.1077
 9394W        W25528   9.854   9.482   1.281  0.3246 -0.0129  0.2125
 9395W        W25529  14.560  11.361   2.217 -0.1684  0.1652 -0.0841
 9396W        W25530  11.914   8.857  14.383  0.0865 -0.2781 -0.2130
 9397W        W25531   5.984  10.070   2.131 -0.2220  0.2240 -0.1250
 9398W        W25532   6.778   6.750  13.900  0.1974 -0.0383  0.1163
 9399W        W25533   1.726  14.615  11.099  0.0125  0.0903  0.1215
 9400W        W25534   5.665   5.437   3.987 -0.1917 -0.3765 -0.3246
 9401W        W25535  14.807   9.376  13.058  0.1604  0.0054 -0.0297
 9402W        W25536  12.576   0.029   2.454 -0.1923 -0.0546  0.1316
 9403W        W25537   8.199  18.012   4.254  0.1436  0.0261 -0.0036
 9404W        W25538  10.083  17.200   4.604 -0.0091 -0.2390 -0.0032
 9405W        W25539   3.468  15.485   2.328 -0.1356 -0.0123 -0.0372
 9406W        W25540  17.116  12.766   5.364 -0.1046 -0.0258 -0.0126
 9407W        W25541   7.432   1.772   4.905  0.0631 -0.0136  0.0344
 9408W        W25542   9.646   7.139  13.352 -0.1284  0.0574 -0.0786
 9409W        W25543  17.295   0.162  14.939  0.1482  0.0728 -0.0487
 9410W        W25544   7.462  11.261  15.411 -0.1098  0.2082  0.1680
 9411W        W25545   1.990  18.444   2.953  0.0435  0.1570  0.3282
 9412W        W25546   1.376  11.315   4.906  0.2385  0.1353 -0.0494
 9413W        W25547  17.654   5.510  13.771  0.0902  0.2213 -0.0055
 9414W        W25548  17.234  17.403  11.854 -0.0444 -0.1200 -0.2159
 9415W        W25549  11.112  15.967  12.761 -0.1004  0.1062 -0.0363
 9416W        W25550   1.606  13.470   0.308  0.0161  0.0228  0.2985
 9417W        W25551   5.843   1.043   9.846  0.0943  0.0949 -0.5336
 9418W        W25552  14.734   1.690  10.461  0.0372 -0.0180 -0.1395
 9419W        W25553   8.059   3.047   2.788 -0.0132  0.0535  0.1434
 9420W        W25554  11.604  16.288   2.587 -0.3358  0.2217  0.2598
 9421W        W25555   0.883   4.559  14.276  0.1231  0.1633 -0.1015
 9422W        W25556  18.576   6.271   4.377  0.1350 -0.0337  0.3443
 9423W        W25557   7.540  17.892  13.653 -0.2148 -0.2665  0.2827
 9424W        W25558   4.787   3.046  15.260  0.2924  0.1316  0.2143
 9425W        W25559   5.931   7.476  11.191 -0.1141  0.0997  0.3557
 9426W        W25560  15.350  15.814  13.313  0.3241  0.0605 -0.1272
 9427W        W25561  15.989  14.971   5.014  0.2362  0.1133  0.0434
 9428W        W25562   2.201  10.979   3.074  0.1042 -0.1026 -0.0374
 9429W        W25563   1.657  15.450  11.354 -0.0162  0.0525 -0.0308
 9430W        W25564  17.897  12.241   3.778  0.0323  0.0655  0.1689
 9431W        W25565  14.340  14.801   0.754  0.1181 -0.3419 -0.2733
 9432W        W25566  18.260   1.267   4.454 -0.1169 -0.0675 -0.1661
 9433W        W25567  15.269   8.705   9.570  0.4106  0.2796 -0.1385
 9434W        W25568  11.336   0.920   0.567 -0.1804 -0.0982  0.0142
 9435W        W25569   6.968   4.035  14.372  0.0257  0.1107 -0.1857
 9436W        W25570  10.983   5.762  14.944  0.0437  0.1352 -0.1375
 9437W        W25571  15.883   7.871  13.131  0.1749 -0.1822  0.1691
 9438W        W25572  10.600  10.835  14.302  0.3039 -0.0872  0.2298
 9439W        W25573  17.573  10.134  13.692 -0.1968  0.0677 -0.4007
 9440W        W25574  14.583   2.777   4.746  0.1123  0.0909 -0.0972
 9441W        W25575   9.381   4.939   2.744 -0.1657 -0.1518  0.0542
 9442W        W25576   5.193  13.618  15.529  0.0291 -0.0010  0.0571
 9443W        W25577   6.302  14.836  11.168  0.0633  0.1628  0.1880
 9444W        W25578  10.948   4.166  11.203  0.0771 -0.0761  0.2054
 9445W        W25579  14.462   0.124  13.745 -0.0364 -0.1376  0.3618
 9446W        W25580   2.346   1.070  13.131 -0.1667 -0.2468  0.1877
 9447W        W25581   9.092   7.511   5.351 -0.1314  0.0980 -0.2278
 9448W        W25582   8.060   7.183   1.043  0.1185  0.0210  0.4046
 9449W        W25583   0.026   4.326   0.038  0.1991 -0.0376 -0.1592
 9450W        W25584  10.181  10.325  13.408  0.0172 -0.2245  0.0194
 9451W        W25585  17.452  17.723   4.229  0.2442 -0.1818 -0.0932
 9452W        W25586   7.275  17.550   9.460 -0.0173 -0.1576  0.1954
 9453W        W25587  13.520  17.023   4.627 -0.0075  0.2501 -0.1380
 9454W        W25588   5.551  11.677   2.183 -0.0752  0.1716  0.0153
 9455W        W25589  16.836   1.345   1.080 -0.3510  0.1368 -0.1067
 9456W        W25590   1.186   1.951   4.628  0.0017  0.1044 -0.4923
 9457W        W25591  12.135  11.402   3.122  0.0811  0.1867  0.1633
 9458W        W25592  14.524   4.730   0.318  0.0039  0.0219 -0.0690
 9459W        W25593  12.570  16.925  10.751 -0.0208  0.0233 -0.2883
 9460W        W25594  11.572  14.695   2.808 -0.1534  0.2050 -0.0961
 9461W        W25595   6.003   5.955   4.578  0.1591  0.0102  0.1101
 9462W        W25596  17.465  16.566   0.135 -0.4168 -0.0216 -0.2359
 9463W        W25597  16.502  11.134  11.061  0.1812  0.2683  0.1759
 9464W        W25598  10.840  10.681   3.815 -0.1151 -0.2998 -0.0571
 9465W        W25599   1.631  13.346  12.194  0.1330 -0.0016 -0.1169
 9466W        W25600  15.795  13.827  11.801  0.1526  0.0776  0.0655
 9467W        W25601  17.530   0.232  10.591  0.0099  0.0172  0.3305
 9468W        W25602  13.505  17.218   1.668 -0.1865 -0.0318  0.5436
 9469W        W25603  14.389  18.331   0.223 -0.2036 -0.2833 -0.2343
 9470W        W25604  14.064  12.438  10.686 -0.0641  0.3168 -0.3303
 9471W        W25605   7.002  17.243  14.753 -0.0818 -0.1738 -0.0988
 9472W        W25606  17.922   9.572   2.985  0.1233 -0.3419 -0.2333
 9473W        W25607   9.277   8.654  15.576 -0.0664 -0.1157  0.0570
 9474W        W25608  14.245  13.141   3.786 -0.0876  0.1290  0.2097
 9475W        W25609  11.214   1.499  13.883  0.2297 -0.3756 -0.0330
 9476W        W25610   3.340  17.690   2.704  0.2258  0.3374 -0.2864
 9477W        W25611  14.241  12.555   3.734 -0.1409  0.0029 -0.0684
 9478W        W25612  14.123  14.937  14.466  0.1223  0.1769 -0.0863
 9479W        W25613  12.376   0.637  14.890 -0.1079  0.0701  0.0878
 9480W        W25614  12.509   5.272  11.998  0.0740  0.3764  0.1487
 9481W        W25615   5.390   8.737   4.524 -0.0014 -0.0645 -0.1727
 9482W        W25616   4.050  16.204  11.006  0.0566  0.0066  0.1758
 9483W        W25617   8.284   5.044  13.257  0.2373 -0.2835  0.2370
 9484W        W25618   3.515  13.115   0.582  0.0233  0.2490  0.1825
 9485W        W25619  11.971  14.375   3.671  0.0874  0.2651 -0.1794
 9486W        W25620   5.194  16.340   5.402  0.2818 -0.0846  0.1176
 9487W        W25621   5.699  16.602   4.023 -0.0153 -0.1810 -0.1436
 9488W        W25622  11.172   7.036   2.300  0.0133  0.3509 -0.3346
 9489W        W25623  17.233   5.694   4.944 -0.1199 -0.0696 -0.0167
 9490W        W25624   7.275  12.818  14.353 -0.0700  0.2703  0.1865
 9491W        W25625  12.484  17.747   2.202  0.0143  0.0705 -0.0397
 9492W        W25626   9.089  14.065   1.336  0.2996 -0.0437 -0.0579
 9493W        W25627  15.368  16.972   5.057 -0.3739 -0.1714 -0.0249
 9494W        W25628   1.397  14.605   0.180  0.1975 -0.2421  0.0940
 9495W        W25629   3.070   9.877  10.439  0.2165 -0.0704  0.2125
 9496W        W25630  13.918   9.583  13.671  0.2797  0.2575 -0.0028
 9497W        W25631  18.025  15.603   0.639  0.1608 -0.3046 -0.1642
 9498W        W25632   1.165   1.680  13.616 -0.2307  0.1003 -0.0223
 9499W        W25633   9.291  12.973   1.588  0.2549  0.1893  0.0787
 9500W        W25634   7.369  11.440  13.610 -0.1609  0.3606  0.2221
 9501W        W25635  14.671   1.575   1.733 -0.2344 -0.0175  0.0927
 9502W        W25636   1.720   0.826   2.783 -0.2769  0.0317 -0.1004
 9503W        W25637  13.384   7.190   0.900  0.0121  0.0096 -0.3663
 9504W        W25638   4.124  12.173   5.194  0.0135 -0.1868  0.5761
 9505W        W25639  14.913   8.314   3.458 -0.1264 -0.0018 -0.3032
 9506W        W25640  17.529  14.754  10.442 -0.0620  0.0191 -0.0579
 9507W        W25641  10.725   8.086  12.013 -0.1352 -0.0542 -0.0745
 9508W        W25642   8.293   6.627   5.170  0.1819 -0.0950  0.2415
 9509W        W25643  14.286  13.308   1.593  0.1295  0.2922 -0.1175
 9510W        W25644  10.744  18.576  13.924 -0.0159 -0.2204 -0.2537
 9511W        W25645  17.472  15.613  12.100  0.0281  0.2085 -0.0248
 9512W        W25646  10.503   5.098  13.559 -0.0424 -0.0366  0.1831
 9513W        W25647   8.923   4.224   2.940  0.1064 -0.1068  0.2135
 9514W        W25648  16.991   6.838   3.844  0.1222 -0.1236 -0.1331
 9515W        W25649  13.292   9.520   0.650  0.0297 -0.2136 -0.2249
 9516W        W25650  16.406   7.259  13.286  0.0831  0.0370 -0.3067
 9517W        W25651   4.922   4.667   0.264 -0.1090  0.0157 -0.1635
 9518W        W25652   6.946   6.052   3.981  0.1154  0.5142  0.2418
 9519W        W25653   2.554  17.007   0.240  0.1103  0.0437  0.1528
 9520W        W25654  10.216  10.011  10.935  0.2104  0.1103 -0.0225
 9521W        W25655  11.599  17.497   4.295 -0.1334 -0.0361  0.2328
 9522W        W25656  17.622   0.805   4.977  0.0528 -0.0736 -0.2587
 9523W        W25657  13.785   8.434   0.791 -0.2418  0.2580  0.0399
 9524W        W25658  11.007   6.052  15.394 -0.0709  0.2257 -0.0055
 9525W        W25659   3.029  12.522   3.743 -0.0532 -0.0231 -0.0434
 9526W        W25660   5.127  15.198  14.298  0.0834 -0.1664  0.2153
 9527W        W25661  14.516  13.735   2.699  0.1586  0.0458  0.0859
 9528W        W25662   2.055   2.745  12.751  0.0701 -0.0846  0.2138
 9529W        W25663  13.290   6.779   1.171  0.1093 -0.2826 -0.0490
 9530W        W25664   4.061   9.590  13.553  0.0253  0.2044 -0.3129
 9531W        W25665   8.542  12.422   2.816  0.0821 -0.0985 -0.0323
 9532W        W25666   7.751   7.447   1.389 -0.0575 -0.2675 -0.1631
 9533W        W25667  18.693  15.832   3.715  0.0859 -0.3007 -0.0389
 9534W        W25668   1.433  15.605   1.631 -0.2250  0.0760  0.1804
 9535W        W25669   4.720   4.172  14.075  0.0234 -0.0811  0.2371
 9536W        W25670  12.249  17.417   3.834  0.2837 -0.2039 -0.1067
 9537W        W25671   9.517  11.792  12.232 -0.1108  0.0113 -0.0634
 9538W        W25672  11.887   1.878  12.901  0.0416 -0.1377 -0.1548
 9539W        W25673   6.767  12.944   1.211 -0.1720 -0.1440  0.1666
 9540W        W25674  18.553  10.701  15.526  0.1674  0.0122  0.0329
 9541W        W25675   9.185  12.408  10.883 -0.0590  0.3513  0.0095
 9542W        W25676   0.259   8.896  12.545 -0.0203  0.0652 -0.1369
 9543W        W25677  14.329  11.765   4.163  0.1843  0.3140  0.2650
 9544W        W25678   9.494   6.968   2.362 -0.0801 -0.1037 -0.0674
 9545W        W25679  11.781  12.097   1.787 -0.3376 -0.0673  0.1760
 9546W        W25680   5.461  16.356   0.535  0.0962 -0.4923 -0.0092
 9547W        W25681  11.723   6.974  12.725 -0.2059 -0.0367 -0.1572
 9548W        W25682   2.039  11.461  10.931  0.2720  0.1898  0.1616
 9549W        W25683   9.362  17.123  15.559  0.1255 -0.1061 -0.0222
 9550W        W25684  10.989   2.845  14.024  0.3591 -0.1076 -0.1270
 9551W        W25685  15.769  14.126   4.034  0.2017  0.2620  0.0878
 9552W        W25686  13.001   8.719   0.173  0.1344  0.0804  0.4440
 9553W        W25687   2.791  10.762  15.105  0.3123 -0.0397 -0.0269
 9554W        W25688   6.756   3.702   5.802  0.1668  0.2821  0.1263
 9555W        W25689   4.081  13.327  10.193  0.0933  0.6725 -0.2827
 9556W        W25690   2.092   7.571   1.606 -0.1069  0.0792  0.0326
 9557W        W25691   1.195   3.525   3.376 -0.3288  0.1605 -0.1078
 9558W        W25692   0.947   0.828  12.790  0.0945  0.3125  0.3424
 9559W        W25693  11.126   8.983  11.910  0.0084 -0.1889 -0.1525
 9560W        W25694  14.151  16.978  15.407  0.1089  0.0680  0.3991
 9561W        W25695  17.949   9.194  12.573 -0.0160  0.0378 -0.4591
 9562W        W25696   7.566   0.363   0.517  0.3867  0.0330  0.0305
 9563W        W25697  14.590   9.207   3.409 -0.4139  0.2066  0.0725
 9564W        W25698   5.247   2.662  13.681 -0.1591  0.1563  0.0806
 9565W        W25699   4.824   5.089  11.438 -0.4390  0.2661  0.0253
 9566W        W25700  16.687  15.813   5.474 -0.1595 -0.1022 -0.1063
 9567W        W25701  13.547  11.048  13.578  0.3393  0.1195 -0.2872
 9568W        W25702   4.948   1.178   5.802 -0.1957 -0.4229 -0.1841
 9569W        W25703  17.581  16.089   0.350  0.1744  0.0391 -0.1657
 9570W        W25704   7.694  16.120  11.550 -0.2642  0.1096 -0.1019
 9571W        W25705   4.815   7.011  12.096  0.2200  0.0978  0.0992
 9572W        W25706  12.996   5.904   1.561 -0.4399  0.0805 -0.3097
 9573W        W25707  11.850   0.456  12.691  0.1338  0.0444  0.1369
 9574W        W25708   2.883   3.401  12.670 -0.2777 -0.0340 -0.2616
 9575W        W25709  16.459  11.541   3.851 -0.0156  0.2012 -0.1106
 9576W        W25710  13.780  13.124  14.349  0.0693 -0.2045  0.1222
 9577W        W25711   9.101   5.022  15.248  0.0993  0.2740  0.1386
 9578W        W25712   6.895   5.515   1.946  0.3861  0.1512 -0.2284
 9579W        W25713  10.867  16.069   4.142  0.3004  0.0779  0.2741
 9580W        W25714   4.104  17.530  14.648  0.0872 -0.0945  0.2441
 9581W        W25715  18.277  14.947   4.786 -0.0909  0.0214  0.2031
 9582W        W25716  12.437  18.397   6.134 -0.0298 -0.2858 -0.2161
 9583W        W25717  16.471   8.653   3.919 -0.0900  0.1718 -0.2604
 9584W        W25718  18.365  16.132   3.496  0.2445 -0.0203  0.1803
 9585W        W25719  17.404  15.662  13.355  0.1375 -0.1693 -0.1490
 9586W        W25720  17.554  16.010   2.384  0.2872  0.3261  0.1222
 9587W        W25721   2.676   2.550  11.605 -0.0385  0.0830  0.3126
 9588W        W25722   0.032  16.394  12.247 -0.1772  0.2117 -0.0902
 9589W        W25723   7.979   8.477  13.261  0.0658 -0.0797 -0.3488
 9590W        W25724  11.245   4.060  11.623  0.2487  0.0821  0.2981
 9591W        W25725  10.912  17.496  11.239  0.0973 -0.1543 -0.3102
 9592W        W25726  10.312  16.822  13.972 -0.1142  0.1257  0.0380
 9593W        W25727   2.849   0.304   3.959 -0.3029  0.2515 -0.3800
 9594W        W25728  18.359   7.690   1.660 -0.1167 -0.0323 -0.2325
 9595W        W25729   0.989   9.817  14.277  0.1071 -0.0676  0.2153
 9596W        W25730  17.071   4.317  10.904 -0.3220 -0.4205  0.2582
 9597W        W25731   3.308   0.891   1.364  0.0747 -0.2323 -0.0788
 9598W        W25732   1.288  15.151  14.016 -0.2537 -0.0464  0.1527
 9599W        W25733  16.942   3.289   4.148 -0.2952 -0.1292  0.3590
 9600W        W25734  13.411  12.280  10.466  0.2948  0.0299 -0.2914
 9601W        W25735  13.904  12.467  11.234  0.2876 -0.1193 -0.2172
 9602W        W25736   9.380   0.576  13.971 -0.0188  0.0774  0.0945
 9603W        W25737  12.954  13.028   4.589 -0.2162  0.3799 -0.0574
 9604W        W25738   5.683  11.904  15.082  0.2314  0.4796 -0.0561
 9605W        W25739   3.861   6.192   0.294 -0.0828 -0.0344 -0.0045
 9606W        W25740   3.881  12.091  15.230 -0.0657 -0.0384  0.0350
 9607W        W25741   0.667  18.622  15.432 -0.1359  0.0840 -0.0306
 9608W        W25742  13.502   1.093  15.351  0.0062  0.2011  0.0895
 9609W        W25743   0.061  18.302   1.762  0.2446  0.3000 -0.1793
 9610W        W25744  12.413   8.509  12.468 -0.0436  0.0454  0.1407
 9611W        W25745   3.181  10.501  11.256 -0.0511 -0.1974 -0.2820
 9612W        W25746  11.134  15.081  12.701  0.0842  0.4705 -0.0605
 9613W        W25747   9.723   1.642  13.629  0.1396 -0.2299 -0.1363
 9614W        W25748  13.497   8.159  11.570  0.2660 -0.2957 -0.0682
 9615W        W25749  15.656  11.923  13.195  0.1994 -0.0702  0.1993
 9616W        W25750   0.136  10.558  10.557  0.1330  0.4761 -0.4444
 9617W        W25751   3.535   0.450  10.948 -0.0006 -0.3375  0.1781
 9618W        W25752  14.265   0.135   5.193  0.1651 -0.0788  0.0609
 9619W        W25753  10.574   0.763  15.120 -0.1724 -0.1770  0.0595
 9620W        W25754   9.030   5.936  12.508 -0.2916 -0.5846  0.1415
 9621W        W25755  16.113   5.455   0.758 -0.1133 -0.2911 -0.0530
 9622W        W25756   2.879  11.112  14.796  0.1396 -0.1951  0.1195
 9623W        W25757   0.672  16.215   1.966 -0.2038 -0.0460  0.1077
 9624W        W25758  12.211  11.489   0.736  0.0375  0.2695  0.3044
 9625W        W25759   0.989  12.162  11.864  0.3548  0.2605 -0.0856
 9626W        W25760  11.221   9.318   4.207  0.0408 -0.0733 -0.2495
 9627W        W25761   2.162   2.160   4.399  0.0660 -0.2334 -0.1825
 9628W        W25762   5.845   6.477  12.237 -0.0357  0.4467  0.1631
 9629W        W25763  10.512   6.652   1.558  0.3264 -0.0137 -0.0342
 9630W        W25764  14.014   8.500   1.611  0.0385  0.0822 -0.0413
 9631W        W25765   7.321  15.833  11.409  0.1196 -0.1398 -0.0332
 9632W        W25766   8.480  15.025  13.381  0.3138 -0.0746 -0.2718
 9633W        W25767  13.047  15.140  13.334 -0.0690  0.0325 -0.1522
 9634W        W25768   8.128   6.916   0.154  0.0959 -0.3851  0.1323
 9635W        W25769   1.580   3.454  13.753 -0.3363 -0.0466  0.1608
 9636W        W25770  12.495   9.808   1.943  0.0160 -0.1983  0.0611
 9637W        W25771   4.254   1.568   3.875  0.1027  0.1455 -0.4964
 9638W        W25772  13.847   0.165   0.592  0.2369 -0.1540  0.0987
 9639W        W25773   2.583   1.614  14.507  0.0233  0.2696 -0.0588
 9640W        W25774   7.288  15.009   1.373  0.1347 -0.0115 -0.0327
 9641W        W25775   8.885   8.290  14.490  0.0826 -0.1302  0.0191
 9642W        W25776  13.687   9.028  11.689 -0.1360 -0.0182  0.1293
 9643W        W25777  10.680   7.398  10.861  0.3150  0.1061  0.1910
 9644W        W25778   6.585   9.208  11.744 -0.0462 -0.1490  0.1392
 9645W        W25779   4.209  16.993   2.226 -0.1024  0.1285  0.1020
 9646W        W25780   5.470   5.309   0.911 -0.0240 -0.0133 -0.0325
 9647W        W25781   2.091   8.737  11.134 -0.0619 -0.2006 -0.1450
 9648W        W25782  14.661   1.303   0.698  0.3664 -0.0539  0.1725
 9649W        W25783  10.073   8.319  10.327  0.1022  0.2193 -0.2430
 9650W        W25784   3.924  13.749  15.293 -0.1479 -0.1337 -0.2595
 9651W        W25785   8.288   6.000   0.015  0.0514  0.0009  0.2196
 9652W        W25786  17.656  12.009   4.142 -0.1812  0.3373 -0.3077
 9653W        W25787   1.683   4.518  15.053  0.0975  0.1125 -0.1783
 9654W        W25788  10.820  11.269  13.118  0.0370 -0.2332 -0.4529
 9655W        W25789   8.470  13.364   2.065 -0.0344  0.4274 -0.2242
 9656W        W25790  14.533   5.542   0.954  0.0194 -0.1412  0.1925
 9657W        W25791   6.369   3.796  11.449 -0.1667  0.3429 -0.0540
 9658W        W25792  16.871  15.559  15.312  0.0832 -0.2069 -0.0893
 9659W        W25793   3.729  15.858  10.766 -0.1669  0.1479  0.1131
 9660W        W25794  11.779  16.732   3.813 -0.4180 -0.0859 -0.0342
 9661W        W25795   0.813   3.295   4.155 -0.3655  0.2143  0.1480
 9662W        W25796   4.497  12.998   1.528  0.0228 -0.1380 -0.2497
 9663W        W25797  10.869  11.977   2.657  0.0690  0.0533  0.3071
 9664W        W25798  16.183   9.714  14.624 -0.1937 -0.0767 -0.1115
 9665W        W25799   6.734   7.587  14.784  0.0863  0.0462  0.1121
 9666W        W25800  18.126  17.255   5.484  0.0036 -0.2013  0.2809
 9667W        W25801   9.895  16.144   4.435 -0.3549  0.0843  0.1108
 9668W        W25802  14.947  12.267  12.354  0.0091 -0.0077  0.0150
 9669W        W25803  10.069   2.439   1.751  0.0691 -0.0443  0.2275
 9670W        W25804  18.166  13.623   0.474  0.0650  0.2469 -0.0064
 9671W        W25805  12.236  12.978  10.791  0.2292 -0.0240 -0.0878
 9672W        W25806   6.573   4.307  13.688 -0.1817  0.2651 -0.5418
 9673W        W25807  15.783   8.878  12.730 -0.1286  0.1606 -0.1154
 9674W        W25808  11.469   2.478  14.622  0.2274 -0.0945 -0.1975
 9675W        W25809  11.172  12.067   0.415 -0.0668  0.0960  0.0823
 9676W        W25810   2.448   8.887   3.887  0.2202 -0.5299 -0.1976
 9677W        W25811   4.900  10.595   3.435 -0.0351  0.3706 -0.2379
 9678W        W25812   5.229   4.695   4.282 -0.1916 -0.1137  0.1532
 9679W        W25813   9.215   4.100   4.639  0.0385  0.1668  0.1385
 9680W        W25814  16.588   1.510   9.722  0.1857 -0.0184 -0.1221
 9681W        W25815  13.610  15.373   4.829 -0.3123 -0.1223 -0.0212
 9682W        W25816  14.187   4.826   2.521 -0.1462 -0.1931  0.1478
 9683W        W25817   7.372   7.652  14.385 -0.0594 -0.3414  0.0996
 9684W        W25818  18.134  15.774   3.848  0.1640 -0.2719  0.0878
 9685W        W25819   1.837  10.300  14.000 -0.0087 -0.0677 -0.2154
 9686W        W25820   7.361   8.876   5.195  0.0165 -0.1286  0.2545
 9687W        W25821   5.748  18.107  12.918  0.3380 -0.1565 -0.0528
 9688W        W25822  10.970  18.386  14.842  0.1475 -0.4013 -0.0557
 9689W        W25823   5.984   6.045  10.864 -0.1982  0.1253 -0.0154
 9690W        W25824   1.892   5.750  13.502  0.1262 -0.0360  0.3268
 9691W        W25825  10.679  18.138  10.367  0.2806 -0.0576 -0.0601
 9692W        W25826   1.536   9.395   3.978 -0.2372  0.1226  0.1400
 9693W        W25827   1.089   0.017  11.937  0.1530  0.2444 -0.1498
 9694W        W25828   3.325  11.704  11.658 -0.4038 -0.2665  0.0785
 9695W        W25829   4.867  14.515   2.525  0.1415 -0.3044 -0.0824
 9696W        W25830   5.506   2.879   4.002 -0.0410 -0.0914  0.2206
 9697W        W25831  10.850   3.200   3.153  0.0374  0.2066 -0.0171
 9698W        W25832  17.292   2.979  12.008 -0.0680  0.0581 -0.0825
 9699W        W25833  16.269  14.230  12.442 -0.1541  0.3869  0.0819
 9700W        W25834   7.725   3.990   3.243  0.1112  0.4980  0.0810
 9701W        W25835   8.696   7.362  14.961  0.0797  0.0327  0.2442
 9702W        W25836  13.069   2.501  15.392  0.2259 -0.3177 -0.1282
 9703W        W25837  12.233   6.048   0.609 -0.3696 -0.3159 -0.0526
 9704W        W25838   6.231   2.954  13.995  0.0898  0.1017 -0.1049
 9705W        W25839  18.581   4.651  11.816  0.0615  0.4736  0.0348
 9706W        W25840  17.083   7.773   4.836  0.0881 -0.1308  0.3551
 9707W        W25841   5.272   8.496  11.962  0.2135 -0.3274  0.0574
 9708W        W25842   3.046   9.370   4.340 -0.3887  0.3036  0.0083
 9709W        W25843   0.937   6.744   1.002  0.1153 -0.1599 -0.1083
 9710W        W25844   5.345  12.630  10.808  0.1057 -0.0811  0.0834
 9711W        W25845   8.635   6.102  12.107  0.0367  0.2650  0.2036
 9712W        W25846  10.316  11.951   3.415  0.2476 -0.3012 -0.0582
 9713W        W25847   3.961  17.439   1.021  0.0242 -0.1279 -0.2811
 9714W        W25848  11.757  16.893  14.740  0.1458 -0.1373  0.1626
 9715W        W25849   5.386   9.901  14.176 -0.0282  0.0413 -0.2028
 9716W        W25850  11.278   6.029   0.746  0.3076  0.2802  0.0119
 9717W        W25851  17.127  16.447  15.420 -0.0320  0.1694 -0.2134
 9718W        W25852   8.575   9.186   0.320 -0.2123  0.1981 -0.1033
 9719W        W25853  13.096  13.550   2.929  0.2374 -0.2666  0.1303
 9720W        W25854  13.384   2.881  15.298  0.0440 -0.0754 -0.0150
 9721W        W25855  14.263  14.034   3.413  0.1000  0.2390  0.1619
 9722W        W25856  17.510   8.805  13.104 -0.0562 -0.1017 -0.1980
 9723W        W25857   6.331   9.731   1.978 -0.0891 -0.1160 -0.1946
 9724W        W25858   5.345  16.333   4.930  0.0490 -0.2625  0.1577
 9725W        W25859  12.078   8.287   3.847 -0.1162 -0.1415 -0.0844
 9726W        W25860  12.911   1.091  15.342 -0.3136 -0.2713  0.1456
 9727W        W25861  13.743  16.439   3.837  0.0940 -0.2467  0.1462
 9728W        W25862  15.281  16.721  11.560 -0.0336  0.1407  0.2676
 9729W        W25863   7.357   9.491   1.857 -0.2824 -0.2825 -0.0499
 9730W        W25864  13.885   6.403   4.629 -0.0530 -0.0991 -0.2277
 9731W        W25865   2.281  16.598  10.020 -0.2324  0.0617  0.0807
 9732W        W25866  18.038   0.006  10.693 -0.1015 -0.1851  0.0769
 9733W        W25867  15.330  12.420   1.660 -0.0148 -0.0724 -0.2412
 9734W        W25868  11.220   7.778  13.132 -0.1255 -0.1071  0.0697
 9735W        W25869   4.230   9.547   4.385 -0.2154 -0.2123 -0.0042
 9736W        W25870   5.230   5.371  13.960  0.1152 -0.0831  0.1783
 9737W        W25871  12.471   1.182   4.684  0.0798  0.1786 -0.0332
 9738W        W25872  13.767   3.936   2.540  0.0789 -0.0153 -0.0834
 9739W        W25873  11.989  14.696   4.557 -0.0412 -0.1444  0.0909
 9740W        W25874   3.482   3.268   2.815  0.4265  0.4875 -0.3968
 9741W        W25875  16.094   9.411   2.901  0.1121 -0.0683  0.0640
 9742W        W25876   8.366   7.286  15.367 -0.1582 -0.0793  0.1978
 9743W        W25877  18.501   6.748  14.391  0.3098  0.3117  0.0068
 9744W        W25878   9.902   9.890  12.525  0.1247 -0.1803  0.2146
 9745W        W25879   4.733  10.896  14.944 -0.0283 -0.1661 -0.1472
 9746W        W25880  15.158  17.761   3.642  0.0406 -0.0741  0.2710
 9747W        W25881  15.175  11.922   0.597 -0.0743 -0.0516 -0.0277
 9748W        W25882   0.702  14.252   5.070  0.0282  0.0501 -0.0503
 9749W        W25883   0.962  15.167  14.447  0.0933 -0.1845 -0.0441
 9750W        W25884  17.790   6.993  12.801 -0.0677 -0.1451  0.1536
 9751W        W25885   0.378   2.121  15.389 -0.5415 -0.1869  0.1502
 9752W        W25886  18.004   0.385   3.808 -0.0604 -0.3831  0.1877
 9753W        W25887  13.117  11.624   3.466  0.0187  0.3934  0.1594
 9754W        W25888  17.783   8.940   3.218 -0.3245 -0.0130  0.0655
 9755W        W25889  18.177   4.706  15.006  0.0895 -0.0459  0.0688
 9756W        W25890  15.761   1.401  12.174 -0.1863  0.0304 -0.2023
 9757W        W25891   8.371  14.518   4.290  0.0363 -0.0836  0.3820
 9758W        W25892   3.173   7.495   1.766 -0.0717  0.0558 -0.1233
 9759W        W25893  12.232  11.219   0.292 -0.1597  0.1453 -0.1897
 9760W        W25894   3.829   4.562   1.037 -0.3686  0.1316 -0.0759
 9761W        W25895  18.372  11.681   5.621  0.0973  0.0528 -0.1813
 9762W        W25896  13.580  12.030   4.802 -0.4429 -0.0208  0.0877
 9763W        W25897  11.724  10.149   3.829  0.0828  0.2858 -0.3009
 9764W        W25898   9.461  17.758   0.581  0.3772  0.3692  0.0027
 9765W        W25899  11.301   6.185   4.018 -0.1744 -0.0102  0.0494
 9766W        W25900  12.482  17.393   3.394  0.1759 -0.2011  0.0883
 9767W        W25901  10.968   4.719   1.641 -0.0109 -0.0594 -0.3295
 9768W        W25902   7.834   3.065  13.097  0.0765  0.0619 -0.2026
 9769W        W25903   1.280   0.602   2.968 -0.0687 -0.0190  0.0321
 9770W        W25904   1.381  16.772  11.530 -0.1552 -0.0166 -0.3058
 9771W        W25905   7.440   3.488   0.897  0.3641 -0.2192  0.1674
 9772W        W25906   0.257   3.485   0.576 -0.0853 -0.0017  0.0978
 9773W        W25907   3.422  12.709  14.561 -0.1164  0.0829 -0.2155
 9774W        W25908  15.992   5.719  12.963  0.3201  0.2041 -0.1872
 9775W        W25909  10.997  15.021   4.174 -0.0703  0.0987 -0.0039
 9776W        W25910   3.445   4.348  11.576 -0.0500  0.0760  0.0891
 9777W        W25911  11.828  15.187   1.453  0.0111 -0.0380 -0.0075
 9778W        W25912   9.348  14.279  13.969 -0.0250  0.0260  0.0681
 9779W        W25913  15.256   2.383  11.514 -0.0088 -0.1289 -0.1466
 9780W        W25914   0.448   6.979  12.822 -0.1077 -0.3436  0.0769
 9781W        W25915  15.968   4.996  11.306 -0.1308  0.1258 -0.2905
 9782W        W25916  11.886  15.332   3.522  0.0295  0.1159 -0.0011
 9783W        W25917   9.776  14.542   5.401  0.1318 -0.1937 -0.0095
 9784W        W25918   9.691   7.084   0.244  0.2823 -0.1189  0.0869
 9785W        W25919  16.315   7.941  11.624  0.0731  0.1417  0.1909
 9786W        W25920   2.893   1.989  15.416 -0.0272  0.0272 -0.0247
 9787W        W25921   4.450  13.844   2.939 -0.0676  0.0055  0.3767
 9788W        W25922  12.353   8.639   1.033  0.0581  0.1854  0.0284
 9789W        W25923  12.639   1.900  14.073  0.1522  0.1851  0.2968
 9790W        W25924   4.260   8.532  14.120  0.1061  0.3359  0.0577
 9791W        W25925  14.510  13.407   2.015  0.3108 -0.1037 -0.0710
 9792W        W25926   5.222   1.117  12.484 -0.1515 -0.0623  0.2131
 9793W        W25927  12.341  13.900  11.503  0.1090 -0.3646 -0.0848
 9794W        W25928  10.583   3.907   2.725  0.2953  0.1671  0.0082
 9795W        W25929  18.469   4.913   0.844 -0.1352 -0.1155  0.0278
 9796W        W25930  11.379  12.622   4.227 -0.0435  0.1289 -0.2704
 9797W        W25931   9.689   1.145   4.962 -0.0142 -0.1400 -0.0095
 9798W        W25932   7.321   2.561   1.254  0.1468 -0.0009 -0.2505
 9799W        W25933  15.492  10.966   4.554  0.1752 -0.0894 -0.3327
 9800W        W25934  15.454  18.732  14.919 -0.1485 -0.0006  0.2744
 9801W        W25935   1.655  13.172   5.002  0.0432 -0.0249 -0.0746
 9802W        W25936   2.429   2.649  12.372 -0.1568  0.2047  0.1242
 9803W        W25937  12.734  14.594  11.927  0.0636  0.0110 -0.0249
 9804W        W25938   5.487   2.892   9.627 -0.0174 -0.1714 -0.0517
 9805W        W25939   5.388  18.126  10.241  0.0374 -0.0882 -0.0167
 9806W        W25940   0.184  12.261  13.612 -0.0663  0.1455 -0.1772
 9807W        W25941   0.779  16.706  14.702 -0.0908 -0.1371 -0.2507
 9808W        W25942   7.463  12.841  11.550 -0.1429 -0.0257 -0.2977
 9809W        W25943   1.254   2.200   0.207 -0.4180  0.0461  0.1618
 9810W        W25944  12.665   7.825   0.668 -0.0260 -0.2484 -0.3541
 9811W        W25945   1.529  13.011   1.053  0.0456  0.0180  0.2308
 9812W        W25946   1.910  13.606   3.915  0.1183  0.0935 -0.3154
 9813W        W25947   8.367  10.463   1.648  0.3507 -0.0882  0.0054
 9814W        W25948   9.311  15.754   4.117 -0.1193  0.0180 -0.1767
 9815W        W25949  18.682   0.381   2.726 -0.0379 -0.0922  0.1326
 9816W        W25950  13.873   2.302  12.317  0.0516 -0.2401 -0.0075
 9817W        W25951   7.204  13.068   1.728  0.0554 -0.1328  0.1016
 9818W        W25952  14.522  18.255   3.099 -0.0750  0.0813  0.2146
 9819W        W25953   7.979   3.386   0.062 -0.1271  0.0091 -0.0260
 9820W        W25954   8.332   1.557   1.929  0.0450  0.1851 -0.2066
 9821W        W25955  12.176   1.196  11.806 -0.2927 -0.1362 -0.1054
 9822W        W25956  17.831  12.085  13.180 -0.0359  0.1376  0.0205
 9823W        W25957   9.365  14.982  12.112  0.1815 -0.1057  0.0504
 9824W        W25958  13.447  15.582  10.632 -0.0043  0.1002 -0.1878
 9825W        W25959  15.346  13.327   0.078  0.0592  0.3674 -0.0686
 9826W        W25960   7.715  10.418  13.970  0.0575 -0.3798 -0.1397
 9827W        W25961  15.326   9.401  11.874  0.0262 -0.0856 -0.1379
 9828W        W25962   7.250  12.257  11.259 -0.0347 -0.1726 -0.4428
 9829W        W25963  14.835  14.260   3.500 -0.0948  0.2484 -0.0499
 9830W        W25964   1.004   4.217   1.300 -0.1192  0.1920  0.3938
 9831W        W25965   7.062  14.955  11.410  0.0292 -0.1925 -0.2923
 9832W        W25966   3.076   6.725   0.385 -0.0684 -0.0066  0.1437
 9833W        W25967   7.350   6.025  12.878  0.0849  0.0271 -0.2837
 9834W        W25968   6.576   9.739   3.137 -0.3565  0.0678  0.0841
 9835W        W25969  12.179   0.320   0.950  0.1376  0.0916  0.1402
 9836W        W25970   2.487   8.342   0.422  0.0464  0.1273 -0.0991
 9837W        W25971   7.642   6.956   1.286 -0.0041 -0.1020  0.0044
 9838W        W25972  14.075   7.409   0.419 -0.0603  0.1435 -0.1669
 9839W        W25973   2.552  12.578   2.233 -0.4001 -0.1210 -0.0196
 9840W        W25974   5.203   2.328   5.288 -0.0552  0.0873  0.0162
 9841W        W25975  12.497   0.050   1.239  0.0033  0.0957  0.0919
 9842W        W25976  17.107   1.180  14.920  0.2035  0.0218  0.1241
 9843W        W25977  15.412  15.242  12.514  0.0860  0.2251  0.1811
 9844W        W25978   7.290   4.112  10.334  0.0405 -0.3446  0.2771
 9845W        W25979   1.242   7.875   4.858 -0.1112 -0.0522 -0.0411
 9846W        W25980   2.850   3.475  14.303  0.1505  0.1394 -0.2439
 9847W        W25981  14.863  17.409   2.296  0.0707  0.1330 -0.1845
 9848W        W25982   3.435  12.916  12.031  0.0174 -0.2555  0.1208
 9849W        W25983   0.115  14.170   4.377  0.3211  0.1609 -0.1873
 9850W        W25984   8.095  15.458   5.578 -0.3766  0.0065  0.0155
 9851W        W25985  13.850  12.748  11.626  0.3909 -0.1381 -0.1874
 9852W        W25986   6.457   0.293   0.721  0.3324 -0.0551  0.1721
 9853W        W25987   2.164   2.484  15.396  0.2040  0.0019 -0.2289
 9854W        W25988   2.632  11.984   1.143  0.2331  0.0357  0.0032
 9855W        W25989   1.235  13.312   3.794 -0.0293 -0.2337  0.0506
 9856W        W25990  18.600  14.914  14.915  0.3490 -0.0533 -0.0325
 9857W        W25991   0.148   4.020  15.008  0.0082 -0.0359  0.0287
 9858W        W25992   4.239  13.168  13.929  0.3232 -0.0464 -0.0077
 9859W        W25993   8.845   0.217  12.422  0.1784  0.2907  0.0564
 9860W        W25994   2.577  10.599   2.407 -0.0578  0.1561  0.2773
 9861W        W25995   7.201  10.906   2.997 -0.0611 -0.2125 -0.0409
 9862W        W25996  15.371   4.126  14.257 -0.1979 -0.1074  0.1670
 9863W        W25997  16.687   5.703   0.329 -0.2000  0.1211 -0.4792
 9864W        W25998  11.703  12.554   2.696 -0.1294 -0.1447  0.0823
 9865W        W25999  10.718   1.519  14.856  0.2003 -0.1659 -0.1202
 9866W        W26000   3.733   4.360   5.113 -0.0550  0.2069  0.1930
 9867W        W26001   5.533   6.824   4.212  0.0672  0.2807 -0.1245
 9868W        W26002   5.854  18.327   4.431  0.1238  0.1012  0.3175
 9869W        W26003   2.826  18.421   1.908  0.0727 -0.0018  0.2187
 9870W        W26004   3.996  10.411  12.991  0.2401  0.0869  0.0457
 9871W        W26005   8.255   7.926  13.288  0.2347  0.1927 -0.1090
 9872W        W26006  15.167   9.068  13.381  0.0254  0.0666  0.1128
 9873W        W26007   0.187   4.532   3.690  0.3625 -0.1013  0.0862
 9874W        W26008   8.725  16.436  14.662 -0.0348 -0.0298  0.1592
 9875W        W26009   8.137  14.795  14.612  0.0241  0.2332 -0.2029
 9876W        W26010  16.407   6.144  14.086 -0.1384 -0.0146 -0.1744
 9877W        W26011  12.934  16.870  14.264  0.2406  0.1961  0.0200
 9878W        W26012   7.216   7.664  11.442 -0.0400  0.2293 -0.1548
 9879W        W26013   3.872  14.779   0.448 -0.0363 -0.4477 -0.1255
 9880W        W26014   5.039  18.350   1.636  0.0337 -0.1750  0.2168
 9881W        W26015  16.235   5.901  12.516 -0.0453  0.1403  0.1451
 9882W        W26016   7.926  15.908   2.025  0.1187 -0.1263  0.5213
 9883W        W26017  10.549  13.814  14.124 -0.0160  0.2230 -0.4169
 9884W        W26018   7.120  17.862  11.791  0.1195  0.2238 -0.0309
 9885W        W26019  15.481  17.512  12.739 -0.1063 -0.0423  0.2627
 9886W        W26020   1.667   4.881  11.242 -0.1601  0.0424 -0.0689
 9887W        W26021   2.976   9.080  14.203  0.0103  0.2002 -0.1351
 9888W        W26022  10.647  15.106  12.207  0.1823 -0.0140  0.0972
 9889W        W26023   0.044   0.966  13.202  0.2243 -0.1463  0.1842
 9890W        W26024   7.800  16.063   3.401  0.1310  0.1104 -0.0869
 9891W        W26025  15.661   6.833  14.374  0.3141 -0.0432  0.2754
 9892W        W26026  11.286  18.703   1.069 -0.2833 -0.3326  0.1697
 9893W        W26027   7.931  13.167  13.610  0.0492  0.1468 -0.1996
 9894W        W26028  14.369   1.173  13.521  0.0434  0.0605  0.0262
 9895W        W26029   4.153   4.365   0.037  0.0374 -0.0882 -0.0278
 9896W        W26030   3.977  12.261  11.185  0.4560 -0.4185  0.1055
 9897W        W26031   9.842  17.235   3.856  0.2163 -0.3144 -0.0356
 9898W        W26032   8.456  12.489  11.800  0.2705 -0.0617 -0.2299
 9899W        W26033   9.356   6.476   2.474  0.1258  0.2475 -0.0595
 9900W        W26034  13.961   0.564   4.919 -0.1106  0.1628  0.1264
 9901W        W26035  16.958  12.302   3.333  0.1395  0.0168  0.1441
 9902W        W26036   8.111  17.886  10.733  0.1018  0.1218  0.0634
 9903W        W26037  14.812  17.597   1.849  0.0056  0.2327 -0.2725
 9904W        W26038   1.117   0.174  11.406  0.0061  0.1213  0.1022
 9905W        W26039   3.479  12.203   4.394  0.0777  0.1193 -0.1562
 9906W        W26040  17.310   9.301   2.443 -0.2198  0.1585  0.1133
 9907W        W26041  12.872   5.320   2.935  0.1593  0.0362 -0.0533
 9908W        W26042   3.928  11.506   1.406 -0.1928  0.0417 -0.1470
 9909W        W26043  13.106  11.115   0.735 -0.3797 -0.0388  0.2603
 9910W        W26044   7.266  16.108  14.151  0.3117  0.2498  0.0553
 9911W        W26045  17.517  11.765   1.241  0.2802 -0.1414 -0.1370
 9912W        W26046  12.190  16.221   1.284  0.1481 -0.0902  0.1170
 9913W        W26047   2.583  11.720   1.582  0.0011  0.0596 -0.0140
 9914W        W26048   1.974  14.554  15.572  0.2978  0.3196 -0.0677
 9915W        W26049  18.146   7.357  11.137  0.0377 -0.2253 -0.0400
 9916W        W26050   4.355  16.511   1.326 -0.2397 -0.0432  0.2467
 9917W        W26051   6.204   0.691  14.551 -0.0361 -0.1931  0.4254
 9918W        W26052   0.525  14.732   3.260  0.2914  0.3244  0.2044
 9919W        W26053   1.171   1.602   2.036 -0.0260  0.1215  0.1384
 9920W        W26054   7.707   2.391   0.937 -0.0715 -0.6047  0.2230
 9921W        W26055  15.217   5.394  14.776  0.0483  0.1041  0.2986
 9922W        W26056  17.447   4.637  13.778  0.1338 -0.0886 -0.1567
 9923W        W26057   1.473   5.626  12.058  0.0349  0.2205  0.0541
 9924W        W26058   7.480   5.613  12.056  0.1477  0.0427  0.2003
 9925W        W26059  13.509   9.370  13.775 -0.0309 -0.1552  0.0643
 9926W        W26060  15.187  15.061  14.392  0.0334  0.3789 -0.0195
 9927W        W26061  17.084   1.599  11.868  0.3039 -0.0176 -0.1433
 9928W        W26062  10.691  18.333   5.881 -0.2502 -0.2947  0.0355
 9929W        W26063   8.048   6.641   0.604  0.2248  0.1574  0.0275
 9930W        W26064  10.029   7.454   5.376  0.0184 -0.2006  0.0406
 9931W        W26065   3.537  18.026  13.779 -0.0579  0.2939 -0.1825
 9932W        W26066  12.532  11.854  14.750  0.0685 -0.0339 -0.0378
 9933W        W26067   5.122  17.897   9.842  0.0604  0.1481 -0.0375
 9934W        W26068  17.133   3.694   5.076 -0.2539  0.0499 -0.0041
 9935W        W26069   4.629   9.808   5.212  0.0757 -0.4029 -0.1006
 9936W        W26070   6.512  15.624  14.549  0.0796 -0.1197 -0.3287
 9937W        W26071  15.963   0.968   2.384  0.1769 -0.0227  0.1368
 9938W        W26072   6.873  12.986   2.714 -0.4725  0.2302  0.0101
 9939W        W26073   0.173   3.478  11.790  0.0929  0.0300 -0.3074
 9940W        W26074  16.075  17.183  14.238  0.1318 -0.0467 -0.1978
 9941W        W26075   5.945   8.065   4.254 -0.0121 -0.5304  0.0848
 9942W        W26076  14.301   1.250   3.193 -0.2951 -0.0422  0.1297
 9943W        W26077   4.542   1.915   4.269  0.2476 -0.0240 -0.1815
 9944W        W26078  16.357   3.427   0.355 -0.0850  0.0555 -0.2640
 9945W        W26079   3.328   1.847  13.668 -0.1527 -0.0420  0.1043
 9946W        W26080   5.459  17.037   3.892  0.0193  0.0645 -0.1895
 9947W        W26081   7.775   5.149   2.472 -0.2586  0.0925  0.1117
 9948W        W26082  12.590  15.200  14.676  0.1219  0.2984 -0.0378
 9949W        W26083   6.870  17.227   2.843 -0.0207 -0.2380 -0.1175
 9950W        W26084  16.537  18.640   0.457 -0.3895  0.0570 -0.0615
 9951W        W26085   5.028  16.010   3.242 -0.1801 -0.1413  0.0026
 9952W        W26086   9.297  18.676   4.007  0.0874  0.0307  0.1490
 9953W        W26087  12.609  15.580   0.457 -0.2824 -0.0467  0.3042
 9954W        W26088   0.919   5.849   1.948 -0.1603  0.1041 -0.0841
 9955W        W26089   8.213   2.556   0.304  0.0441 -0.0871  0.1772
 9956W        W26090   8.628  15.046  14.572 -0.3624  0.3432  0.1102
 9957W        W26091   1.166   5.774   1.043  0.1363  0.0615 -0.1995
 9958W        W26092  13.905  10.464   2.796  0.0932  0.1800 -0.2136
 9959W        W26093   7.121   1.833  11.047  0.1106  0.3001  0.1594
 9960W        W26094  14.827  14.195  10.669 -0.0934 -0.0644 -0.0848
 9961W        W26095   5.684  13.981   4.855  0.0560 -0.0485 -0.1012
 9962W        W26096   1.167   3.571   1.869  0.1837  0.1104 -0.0032
 9963W        W26097  11.937   8.777   4.890 -0.1751  0.1313  0.1296
 9964W        W26098   2.989   9.065   2.231 -0.1959 -0.0335 -0.2319
 9965W        W26099   0.855  15.739  15.305 -0.2162 -0.1015  0.1384
 9966W        W26100  18.630  14.100   4.944  0.4135  0.0012  0.2286
 9967W        W26101   8.441  14.493  10.996  0.2070 -0.0688 -0.1559
 9968W        W26102  14.896   1.011  11.933 -0.1759 -0.0341  0.0572
 9969W        W26103   8.549   3.929  14.635 -0.1972  0.1413 -0.1091
 9970W        W26104  10.847  13.781  12.186 -0.2665  0.1584 -0.0613
 9971W        W26105   8.385  11.690  12.937 -0.1237 -0.3418 -0.0125
 9972W        W26106  12.666   5.914   3.588  0.0061 -0.0462  0.3890
 9973W        W26107   3.818  11.618  10.393  0.0878 -0.2050 -0.1578
 9974W        W26108   4.402   0.361   1.680  0.0046 -0.1766 -0.0916
 9975W        W26109  10.717   6.213   5.136 -0.3050 -0.3838 -0.1013
 9976W        W26110   8.617   2.400   3.742 -0.1536  0.0846  0.2258
 9977W        W26111  10.229  10.901   1.736  0.0711  0.3289  0.2296
 9978W        W26112  15.792  15.558  11.177  0.1162  0.0010 -0.0204
 9979W        W26113  18.221  12.432   9.728  0.0757 -0.1738  0.0711
 9980W        W26114   7.617   2.485  10.484 -0.1878 -0.0056  0.1504
 9981W        W26115  12.657   8.970  15.353 -0.0803 -0.1148 -0.0427
 9982W        W26116   0.297   8.540   1.468 -0.1606 -0.1958  0.0497
 9983W        W26117   2.821  17.259   0.697 -0.1133 -0.0634  0.2175
 9984W        W26118   5.786   8.748  11.706  0.2228 -0.1987 -0.0145
 9985W        W26119   4.710  10.268  15.206 -0.0708  0.1182  0.0871
 9986W        W26120  17.173   4.807   0.448  0.1046  0.0923 -0.3592
 9987W        W26121   9.170  17.113  11.309 -0.1351  0.0842  0.2377
 9988W        W26122  17.126  11.018   1.846  0.0305  0.3713  0.2140
 9989W        W26123   7.397   5.785   5.994 -0.1438 -0.2437  0.0739
 9990W        W26124   9.844   4.540   1.551 -0.0401 -0.3371 -0.3121
 9991W        W26125  12.760  10.429  13.927  0.0096 -0.1247  0.0746
 9992W        W26126   9.569  14.271  15.360  0.0299 -0.2597 -0.2820
 9993W        W26127   3.275  15.676   5.269  0.2207  0.1360 -0.1733
 9994W        W26128  13.612   8.030   2.874 -0.1118  0.2055 -0.0093
 9995W        W26129  16.551  11.003   1.892 -0.1193 -0.0305  0.0791
 9996W        W26130  11.771  18.055   3.227 -0.2217 -0.0626  0.1356
 9997W        W26131   9.958  16.002  15.171  0.0985  0.4960 -0.0663
 9998W        W26132   6.404  11.099   4.831  0.1571 -0.1367  0.0719
 9999W        W26133   0.049   1.192   4.099  0.1435  0.0766  0.1608
10000W        W26134  17.149   1.229   1.972 -0.3130  0.0973 -0.2399
10001W        W26135   1.726  17.460   5.236 -0.0951  0.2003  0.1139
10002W        W26136   3.562  15.399  11.116  0.1995  0.1587 -0.0975
10003W        W26137  11.189  12.359   5.765  0.1005 -0.3182 -0.0542
10004W        W26138  13.855   8.947   3.013  0.1530 -0.1558 -0.1457
10005W        W26139   2.987   8.348  11.858  0.3377 -0.0639 -0.1393
10006W        W26140   7.988   9.337  13.190  0.1506  0.0369 -0.1186
10007W        W26141   4.195  12.943   2.888  0.1715  0.0434 -0.0077
10008W        W26142   2.936   4.454  15.306  0.0795 -0.0040  0.0695
10009W        W26143   6.817   3.554  14.388  0.0867 -0.0211 -0.2480
10010W        W26144  10.003   9.429  12.679  0.1449  0.2040 -0.1811
10011W        W26145  15.671   6.600   3.424  0.0354 -0.0464 -0.1336
10012W        W26146   6.130  17.578   1.802  0.2434  0.1210  0.4333
10013W        W26147  12.505  16.246   0.185  0.2788 -0.0898 -0.0665
10014W        W26148  16.573  17.696  15.485 -0.1579 -0.1277 -0.0595
10015W        W26149   3.877   4.542   3.257 -0.0193 -0.0478  0.2261
10016W        W26150   8.030   7.079  12.166  0.0971  0.3679  0.0229
10017W        W26151  13.848  14.555  12.886  0.1686 -0.1263  0.2781
10018W        W26152   5.435  15.664   2.016 -0.1233 -0.2527 -0.0354
10019W        W26153  16.562   5.033  12.583  0.1164 -0.0754  0.2224
10020W        W26154   3.269  16.102  14.430 -0.1306 -0.2118  0.8481
10021W        W26155  12.632   5.730   2.906  0.0865 -0.0915 -0.0662
10022W        W26156  17.519   2.727  13.098  0.0276 -0.0866  0.1551
10023W        W26157  15.818  17.617  10.998  0.1735 -0.2245  0.2032
10024W        W26158  10.869  16.312  14.973  0.2461  0.2018 -0.1580
10025W        W26159   3.847  12.877  12.312 -0.2314 -0.0762 -0.0310
10026W        W26160  18.040   2.757  13.166  0.0644 -0.1889  0.1361
10027W        W26161   5.834  14.697  14.969  0.0524 -0.0524  0.1824
10028W        W26162   7.197  10.209  10.698  0.0010 -0.0712  0.2039
10029W        W26163  17.660  18.583  12.454 -0.3599  0.3426 -0.3537
10030W        W26164  11.611  15.584  13.314  0.2183  0.1322  0.0431
10031W        W26165  10.687   7.892   4.173  0.0804  0.2754 -0.1625
10032W        W26166  16.468   9.566  13.032 -0.0458  0.2565 -0.0496
10033W        W26167  14.723  14.606  14.905 -0.0679  0.0048  0.1139
10034W        W26168   7.242   5.127   2.215  0.2227  0.2213  0.2522
10035W        W26169  12.323   8.365  11.552  0.0127  0.0161  0.3042
10036W        W26170   7.070   7.232   2.869 -0.4122 -0.0411  0.0593
10037W        W26171  16.298  17.629   4.059  0.0534  0.0853  0.0924
10038W        W26172   1.565   1.397   0.373 -0.0300 -0.1440  0.0070
10039W        W26173  12.677   4.308  10.467 -0.1187 -0.0569  0.2721
10040W        W26174   4.762  12.735  12.791  0.2295  0.2147  0.0395
10041W        W26175  15.187   2.156  11.998 -0.0877 -0.3214  0.0406
10042W        W26176   9.659  18.598  15.512 -0.1856  0.0675 -0.0259
10043W        W26177   4.005  16.917   1.248  0.1252 -0.0522  0.2375
10044W        W26178   5.943   3.106   1.701 -0.1226  0.0392 -0.0210
10045W        W26179  10.791   4.319  13.760 -0.0766 -0.0015  0.4230
10046W        W26180   8.029   3.643   3.529  0.1877 -0.1524 -0.0714
10047W        W26181  17.910  17.623   4.039  0.0784  0.2414 -0.1618
10048W        W26182   6.422   4.328  14.871  0.2834  0.2536 -0.3844
10049W        W26183  17.516   1.020   1.705  0.1199 -0.1180 -0.1379
10050W        W26184   6.259   1.795  14.104  0.1365  0.1040  0.2799
10051W        W26185   5.578  13.146   1.840 -0.0810 -0.0674 -0.0472
10052W        W26186   2.514  11.420   5.566  0.0428  0.0344  0.0465
10053W        W26187  13.281  11.228   1.706 -0.0428  0.0418 -0.0978
10054W        W26188   7.966  17.764   3.853  0.1626  0.1892 -0.2477
10055W        W26189  18.215   1.462  12.784 -0.0430 -0.2181 -0.2963
10056W        W26190   1.402   8.019  11.311 -0.0337  0.5659 -0.1302
10057W        W26191  12.491  10.357  11.757 -0.5495  0.1292 -0.0601
10058W        W26192   4.351  14.130   5.136 -0.0093  0.1182 -0.0513
10059W        W26193   8.188  13.086   0.100 -0.2381 -0.1176 -0.0227
10060W        W26194   8.302   3.141  13.691 -0.2733 -0.0766 -0.0558
10061W        W26195  12.542  15.909   1.181  0.5395 -0.2798 -0.0220
10062W        W26196   4.192  18.103  10.701 -0.1306 -0.0605  0.0857
10063W        W26197   6.753   5.490  12.492  0.3346  0.3287 -0.0163
10064W        W26198  16.588  15.924  13.571  0.1476 -0.0043 -0.3443
10065W        W26199  10.184  18.189   4.638  0.0165  0.1732 -0.1650
10066W        W26200  14.147   4.397   2.171  0.1160 -0.4013 -0.2942
10067W        W26201   9.399  17.398   5.225  0.1621  0.1303  0.1105
10068W        W26202   2.222  18.719  13.651 -0.2488  0.0392 -0.0870
10069W        W26203  17.982   3.567  11.052 -0.0570  0.1962  0.1112
10070W        W26204  13.986   8.531  11.803  0.2915  0.4183  0.0112
10071W        W26205   6.172   6.659  11.091 -0.0017 -0.0363  0.2492
10072W        W26206  15.230  11.637  12.992 -0.0707  0.0527  0.0255
10073W        W26207   2.075  18.256   0.671 -0.1044 -0.0183 -0.0330
10074W        W26208  17.283  13.732  13.810  0.1473  0.0366  0.3483
10075W        W26209   3.372  16.173  12.449  0.3295  0.2169  0.0876
10076W        W26210   3.752  16.998   2.458 -0.0654  0.1632 -0.1229
10077W        W26211   7.452   8.445   0.549  0.3882 -0.2718 -0.1152
10078W        W26212   9.112   5.622   1.208  0.0256  0.0541 -0.1602
10079W        W26213  12.377  15.377   4.914 -0.2111  0.0144  0.0156
10080W        W26214   5.978   5.723   4.992 -0.3065 -0.0425  0.2092
10081W        W26215   5.225  14.067   2.648 -0.2557 -0.0024 -0.0953
10082W        W26216   5.629  15.449   3.337  0.0466 -0.1299 -0.2094
10083W        W26217   8.781   5.174   3.918 -0.1211  0.0735 -0.0023
10084W        W26218  12.475   1.674   2.702 -0.0844 -0.0805  0.2134
10085W        W26219  14.136   4.924   4.042  0.3110  0.4249  0.3729
10086W        W26220  17.367   8.824   4.238 -0.0403  0.0595  0.2219
10087W        W26221  14.590   7.487   2.565  0.0357 -0.0002  0.4172
10088W        W26222  15.584   9.116  10.225 -0.4205 -0.0048 -0.0022
10089W        W26223  13.482   0.743  11.581  0.0732 -0.0112 -0.0812
10090W        W26224  16.840   1.408  12.315 -0.2126 -0.0778 -0.2470
10091W        W26225  10.272  16.928   4.063 -0.0101  0.1100  0.0162
10092W        W26226  17.886   6.928   4.569  0.0828 -0.2064  0.0298
10093W        W26227  12.983  12.311  11.506  0.1639 -0.2344 -0.1719
10094W        W26228  12.020   4.375   3.232  0.0509 -0.1738 -0.2516
10095W        W26229  12.511  15.963   3.628 -0.2031  0.2196  0.2538
10096W        W26230   9.449   9.860   4.387  0.1119 -0.1438  0.0099
10097W        W26231  18.331  13.455   0.946  0.2257  0.0579 -0.1295
10098W        W26232  14.086   3.083   5.302 -0.2472  0.2151  0.2091
10099W        W26233   2.307   5.388  13.584 -0.1166 -0.1711  0.2938
10100W        W26234   0.676  16.811   0.516 -0.3527  0.3553  0.1689
10101W        W26235   8.159  10.156  15.127 -0.2008 -0.0993  0.1180
10102W        W26236   3.641   6.389  15.389 -0.2013  0.0928  0.2247
10103W        W26237  17.491  18.609  13.777 -0.0362  0.1358  0.1365
10104W        W26238   7.942   6.144   0.391 -0.0309  0.1153  0.0845
10105W        W26239  12.347  15.808   4.631  0.0837  0.1926 -0.0126
10106W        W26240  12.825   3.968   2.377 -0.3538  0.0715 -0.1559
10107W        W26241  15.120  13.193  11.701  0.0994  0.0139  0.1905
10108W        W26242   7.013   3.830  13.169 -0.0406 -0.0585  0.2310
10109W        W26243  15.507   3.427   1.354 -0.1454 -0.0066  0.0331
10110W        W26244  16.850   4.301  13.043 -0.0205 -0.0329 -0.0111
10111W        W26245  14.295  11.716   1.459 -0.1454  0.1398 -0.1377
10112W        W26246   8.871  13.731   1.860  0.0609 -0.1141  0.3346
10113W        W26247  10.836   3.516   2.362  0.1967  0.1285  0.1617
10114W        W26248  18.072   6.424   4.426 -0.2864 -0.2473  0.1716
10115W        W26249  10.791   8.701  15.508 -0.1604 -0.2173  0.0592
10116W        W26250  12.752  14.397  10.668  0.0008 -0.2592 -0.0729
10117W        W26251  16.826  14.203   4.019 -0.2200 -0.3875  0.2156
10118W        W26252  14.642  14.111   6.182  0.0502  0.2516  0.0774
10119W        W26253   4.727  12.131   1.265  0.2346 -0.1048 -0.5797
10120W        W26254   6.577   0.416  14.934 -0.2705 -0.0786 -0.0030
10121W        W26255  11.890  10.688   4.684  0.0622 -0.4141 -0.0906
10122W        W26256  16.139  12.761   1.670 -0.0759 -0.1583  0.1427
10123W        W26257  11.714   2.719   3.163  0.0514  0.3062  0.0360
10124W        W26258   4.140  14.154  12.924  0.0446  0.0334 -0.0163
10125W        W26259  18.399  18.351  10.741  0.5838  0.0058 -0.1030
10126W        W26260  13.372  15.278   1.420  0.0031  0.1545  0.2438
10127W        W26261  16.053  12.224   1.967  0.0884  0.1592 -0.0756
10128W        W26262   6.680   4.063  11.959 -0.2220  0.1145 -0.1822
10129W        W26263  14.186   0.957  15.232 -0.1608 -0.1237 -0.0554
10130W        W26264  11.846   6.726   1.984 -0.1294 -0.3742 -0.1504
10131W        W26265  11.007  16.668   4.860  0.0087 -0.2854 -0.0473
10132W        W26266   7.825  10.019   0.359 -0.0647 -0.1834  0.1947
10133W        W26267   2.481   7.587  15.181 -0.2126 -0.1176 -0.2064
10134W        W26268  17.311  16.920   2.351 -0.2009  0.2119  0.1592
10135W        W26269  14.830  12.795  15.068 -0.1910  0.1575 -0.1290
10136W        W26270   8.696   3.728   5.805  0.0867  0.1818 -0.0810
10137W        W26271  16.854   6.563   1.061 -0.1731 -0.1190 -0.0034
10138W        W26272   3.204  18.006   5.191  0.1687 -0.0173 -0.1398
10139W        W26273  13.819   8.950  10.280  0.0457 -0.1766 -0.1539
10140W        W26274  10.851   7.905  15.119 -0.0313  0.0934 -0.0045
10141W        W26275   2.537   9.407   4.615  0.1304 -0.0026 -0.1123
10142W        W26276  17.847  10.108  12.835  0.1818  0.1248 -0.1033
10143W        W26277  16.013  17.404  11.362 -0.1402 -0.2931 -0.2588
10144W        W26278  13.885   2.658   1.499  0.2246  0.3367  0.0564
10145W        W26279   2.383   4.004   4.749  0.4121 -0.0362 -0.2441
10146W        W26280   8.215   6.640  10.267  0.0285 -0.2925  0.0359
10147W        W26281  12.309  13.432  13.501 -0.3369 -0.2335 -0.0792
10148W        W26282  18.558   9.180   4.834  0.1987  0.0954  0.1310
10149W        W26283  13.745   6.551   2.477  0.0036 -0.0666 -0.1220
10150W        W26284   4.176  18.726  14.349 -0.2320  0.2193 -0.2632
10151W        W26285  11.230   0.694   0.004 -0.1447 -0.1001 -0.1946
10152W        W26286  10.251   1.492  12.174  0.0986  0.3688  0.0316
10153W        W26287  17.748   4.265   0.114 -0.4366  0.3176 -0.0822
10154W        W26288  15.228   6.110   2.827  0.1113  0.1902  0.1084
10155W        W26289   5.876  16.176   0.301 -0.0905 -0.1439  0.1067
10156W        W26290   1.504   2.508  12.433 -0.2727  0.3035 -0.0314
10157W        W26291   3.446   4.913   3.302 -0.2754 -0.5179 -0.0289
10158W        W26292  16.174  12.557  11.113 -0.1881 -0.1060  0.2695
10159W        W26293  12.048  15.662  10.568  0.2347  0.0221  0.0017
10160W        W26294  18.140  13.480  14.170  0.1768  0.1556 -0.2837
10161W        W26295  15.995   9.328  12.420 -0.3730 -0.2797  0.3312
10162W        W26296  16.397  18.215   3.683  0.0884 -0.1717 -0.2308
10163W        W26297   1.616  11.403   2.455 -0.1824 -0.2272  0.1022
10164W        W26298  15.049   6.776  12.045 -0.2832  0.0627 -0.0052
10165W        W26299  16.061  12.572  13.931 -0.2950 -0.0118  0.1937
10166W        W26300  14.024   2.233  10.749 -0.1927 -0.1930  0.2007
10167W        W26301  17.396  16.836   0.917 -0.2383 -0.1936  0.1817
10168W        W26302  17.471  10.058  13.179  0.3604  0.0066 -0.0749
10169W        W26303   9.050  18.029   0.398 -0.0916 -0.0256 -0.0222
10170W        W26304   1.889  14.042  11.817 -0.2713  0.7107  0.2387
10171W        W26305  14.234  12.762   2.051 -0.0730 -0.0195 -0.0997
10172W        W26306   7.029  17.972  13.477 -0.0538  0.0343  0.3041
10173W        W26307  10.788   0.069   0.301  0.2344  0.1456 -0.2545
10174W        W26308  18.639  12.577   4.815  0.2454 -0.3114  0.0694
10175W        W26309  17.058   6.738  12.095  0.0977 -0.2527 -0.0917
10176W        W26310   3.697  17.834   4.729 -0.3956 -0.2019  0.0339
10177W        W26311   0.039   1.921   2.437 -0.1682  0.0947  0.0831
10178W        W26312   9.195   2.957   0.471  0.0311  0.0870  0.1631
10179W        W26313   8.292   8.304   4.913  0.0598  0.1309  0.1327
10180W        W26314  15.492   3.695  11.560  0.0681  0.3035  0.0931
10181W        W26315  15.115   2.287   3.795 -0.0226 -0.0609  0.1075
10182W        W26316  16.756  15.746   2.584 -0.3766 -0.0454 -0.2816
10183W        W26317   8.919  13.364   2.885 -0.1144 -0.0106  0.0065
10184W        W26318   0.764   5.522   4.357 -0.1344  0.2491 -0.2389
10185W        W26319  11.987  10.912   3.412 -0.1003 -0.1764  0.0086
10186W        W26320   5.161   1.283  13.831  0.1185  0.1412  0.2078
10187W        W26321   7.783  12.557   0.928  0.1135  0.2234  0.3273
10188W        W26322   6.564   2.392  11.487 -0.1246  0.2081  0.0245
10189W        W26323  10.003  11.214  13.687  0.0582  0.1306 -0.0767
10190W        W26324   7.464   1.793   0.329 -0.1222 -0.0660  0.4138
10191W        W26325  13.521   8.546  11.950 -0.2186 -0.2725 -0.0578
10192W        W26326  11.159   2.655   5.265 -0.1400 -0.1627 -0.0346
10193W        W26327   0.835  17.537  14.582 -0.0944 -0.2907  0.1979
10194W        W26328  16.116  16.294   2.912 -0.0996  0.0660 -0.1384
10195W        W26329  18.413  10.506   0.400 -0.2848 -0.0694 -0.0207
10196W        W26330   3.439   2.121   1.965 -0.1241 -0.0362 -0.1509
10197W        W26331   4.493   5.078  14.418 -0.0183  0.0579  0.0441
10198W        W26332  12.750   8.092  12.842 -0.3021  0.2017 -0.0084
10199W        W26333   2.291  14.542   3.691  0.3436 -0.1544 -0.0067
10200W        W26334  10.161   4.015   0.708 -0.0825  0.0249  0.1557
10201W        W26335   7.726   7.386  14.812  0.2537 -0.1307 -0.0388
10202W        W26336  12.859   7.740  12.106  0.1111 -0.1766  0.2482
10203W        W26337  11.254  11.664  12.283 -0.1279 -0.1149 -0.0108
10204W        W26338  11.425   8.118  11.477  0.0404 -0.2686  0.1047
10205W        W26339   8.519   2.375   3.193  0.1284 -0.0193 -0.0240
10206W        W26340   8.846   2.478   4.180 -0.1660 -0.0268  0.1199
10207W        W26341   7.642  12.166  12.304 -0.1225  0.1720 -0.0998
10208W        W26342   5.392   6.279   2.641 -0.0617 -0.2352 -0.0680
10209W        W26343   8.323   8.624   2.540  0.2566 -0.2082  0.0678
10210W        W26344   9.832   5.366  13.575  0.0105  0.0125 -0.1759
10211W        W26345  12.792  15.682   5.643  0.0711  0.2035 -0.2905
10212W        W26346  12.227  13.734   0.174  0.2611 -0.2191 -0.1822
10213W        W26347  17.973   8.509  12.773  0.0068 -0.1007  0.2363
10214W        W26348  18.403   7.107  10.547 -0.2594  0.4517  0.0313
10215W        W26349  14.504  13.705   4.702 -0.1761 -0.0832 -0.2350
10216W        W26350   7.166  14.287   4.302 -0.4741 -0.2929 -0.1721
10217W        W26351  13.136   4.824   1.726  0.1236 -0.1930 -0.2461
10218W        W26352  18.300   8.938  11.886 -0.2299 -0.4419  0.2707
10219W        W26353   9.636   9.455   3.251 -0.1111  0.2265  0.0072
10220W        W26354  15.071   0.209   4.306 -0.2962 -0.1829 -0.1758
10221W        W26355   8.182  11.520   1.285 -0.0752  0.2967 -0.1394
10222W        W26356  11.237  13.911  13.821  0.3080 -0.0425  0.0933
10223W        W26357   9.407  15.379  14.349 -0.1054  0.0124  0.0789
10224W        W26358  12.139   6.250   5.118 -0.0812 -0.2165  0.1075
10225W        W26359   4.530  14.742  11.164  0.2326 -0.0254 -0.0687
10226W        W26360  15.009  10.390  13.690  0.3431  0.3473 -0.0596
10227W        W26361   7.340   4.241   5.077 -0.1020  0.2170  0.1011
10228W        W26362  11.802  17.467  11.699  0.2440 -0.1072  0.5402
10229W        W26363   6.018   1.238   0.480 -0.0554  0.2806  0.2183
10230W        W26364  14.579   4.443   4.539  0.1069 -0.2191 -0.0112
10231W        W26365   2.840  18.023  12.094 -0.1001 -0.2259 -0.0480
10232W        W26366   3.707  11.146  11.793  0.0989  0.0842  0.2254
10233W        W26367  11.249   5.270   0.945  0.1699  0.3510 -0.2739
10234W        W26368  13.753  17.183   0.154  0.0678  0.0303 -0.2003
10235W        W26369  17.055  17.479   4.821 -0.0285 -0.0913  0.0310
10236W        W26370  14.282  14.601  14.105  0.3217  0.0044 -0.0020
10237W        W26371  11.031  13.948   0.834 -0.1030 -0.0341  0.0667
10238W        W26372  13.687   9.699  11.593  0.0174  0.3487 -0.3397
10239W        W26373   3.643  13.933   0.999 -0.1818  0.1104  0.3591
10240W        W26374   6.528   7.670  11.240 -0.1306  0.0573 -0.3107
10241W        W26375   3.365  15.677   2.785  0.2655  0.0360 -0.1379
10242W        W26376  14.117  18.123   2.742  0.3100 -0.2179 -0.2911
10243W        W26377  12.760   5.106  12.785  0.0706  0.1752  0.4030
10244W        W26378  17.942   1.872  10.764 -0.0115 -0.1120 -0.1083
10245W        W26379  16.143   3.089   5.916 -0.1794  0.2829 -0.0267
10246W        W26380  14.240  11.073   2.493 -0.0197 -0.1736 -0.1757
10247W        W26381  13.818  12.475   4.279 -0.1143  0.1872 -0.1733
10248W        W26382   0.203   5.335  12.353 -0.1815  0.1202 -0.0489
10249W        W26383  18.694  14.708   3.272  0.0838 -0.0684  0.1032
10250W        W26384   9.276   3.036   4.895 -0.1640 -0.0046 -0.0049
10251W        W26385   2.966   1.909  13.263  0.0531 -0.1118 -0.2415
10252W        W26386   1.148   1.931   1.518 -0.0136 -0.3707  0.1519
10253W        W26387  14.788  16.593   1.783 -0.0519  0.2271 -0.3424
10254W        W26388   8.613  11.129  11.387 -0.0001 -0.5037  0.2291
10255W        W26389  15.118  15.435  14.710 -0.0307 -0.1075 -0.3272
10256W        W26390   1.482   7.870   2.480 -0.0877  0.1814 -0.0497
10257W        W26391  15.361   1.644   1.750 -0.4561  0.3754 -0.0459
10258W        W26392   3.879   9.025   1.305  0.1576 -0.0487  0.1836
10259W        W26393   7.556   1.623  13.628 -0.0802  0.0297 -0.1569
10260W        W26394   5.888  17.175   4.117 -0.1851 -0.1522  0.1212
10261W        W26395   2.901  10.179   0.566 -0.1850  0.2370  0.1013
10262W        W26396  15.200  11.639   5.082 -0.0826 -0.1991 -0.1120
10263W        W26397  15.797   3.834   1.594 -0.2025 -0.0370  0.1680
10264W        W26398   2.904   8.972  11.074  0.1793 -0.3536  0.0464
10265W        W26399   5.361   8.379   3.692  0.2798 -0.2609 -0.1993
10266W        W26400   2.347   5.395   0.526 -0.0709  0.0895 -0.0132
10267W        W26401  17.812   8.265  15.175  0.0327 -0.1085 -0.4714
10268W        W26402   8.402   2.169   1.607  0.1619  0.0475  0.2875
10269W        W26403   3.199  15.051  14.200 -0.1804  0.1548  0.0010
10270W        W26404   4.651  17.163   0.564 -0.0959 -0.0704  0.4021
10271W        W26405  14.114   2.645  10.346 -0.0646  0.0363 -0.0146
10272W        W26406   1.936  17.395   4.263  0.0551 -0.1652  0.1655
10273W        W26407   9.737  12.411   4.975  0.0157  0.2838 -0.1065
10274W        W26408  14.189  10.534  11.497  0.1326  0.0324  0.1248
10275W        W26409  13.245  15.409   3.257 -0.0032 -0.0388 -0.1219
10276W        W26410   6.001   1.451  12.925  0.0518 -0.2121 -0.3438
10277W        W26411  10.581   5.622  12.870 -0.0672  0.3381  0.1797
10278W        W26412  12.937  10.008   2.035 -0.1003 -0.0468 -0.1712
10279W        W26413  17.516   6.830  12.452  0.1864 -0.0325  0.0046
10280W        W26414   3.148   4.877  14.105 -0.2327 -0.2884 -0.0674
10281W        W26415   1.782   6.095  14.587  0.1616 -0.0392  0.0071
10282W        W26416   5.883   5.344   2.469 -0.1647  0.0959  0.1721
10283W        W26417  15.009   9.730  10.455 -0.2182  0.1609 -0.1566
10284W        W26418  10.598   1.125  14.561  0.2348 -0.0900  0.0148
10285W        W26419   0.325   6.572  13.778 -0.0966  0.0339  0.2409
10286W        W26420  12.421  18.162  12.176  0.0451  0.1389 -0.2939
10287W        W26421  16.898   5.957  11.806 -0.1738 -0.3269  0.0003
10288W        W26422   2.068  14.413  11.540 -0.0308 -0.2355  0.4044
10289W        W26423   4.989  14.631  15.196 -0.0431  0.1587 -0.0704
10290W        W26424  11.740  16.158   1.062 -0.2458  0.0969 -0.0749
10291W        W26425   9.677  17.516  14.403 -0.2805 -0.1157  0.2095
10292W        W26426   7.951  17.458  13.646  0.2466 -0.0884  0.0283
10293W        W26427  12.959  17.594  12.817  0.2703 -0.0699  0.3086
10294W        W26428  12.288   3.732  14.372  0.2408  0.0935  0.0253
10295W        W26429   6.956   7.631  13.445 -0.1483  0.0328  0.0901
10296W        W26430   2.716  14.032  15.391  0.2408 -0.0866 -0.3890
10297W        W26431  15.877   2.133   1.557  0.1364 -0.0359  0.0062
10298W        W26432   2.028  10.672  11.048  0.1204 -0.1153  0.0281
10299W        W26433  13.663  11.522  12.638 -0.0159 -0.0480  0.0148
10300W        W26434  15.910  18.662  12.555  0.3816  0.1053  0.0405
10301W        W26435  14.250   7.129  15.297  0.0761 -0.0428 -0.2245
10302W        W26436  10.873  17.958  11.450  0.0348  0.0264  0.0651
10303W        W26437   1.090   8.936   2.466 -0.0158  0.4779 -0.0334
10304W        W26438   6.722  18.618   0.554 -0.2507  0.3787  0.0504
10305W        W26439  16.759  14.203   4.681  0.1836 -0.0327 -0.0856
10306W        W26440  10.278  16.103   2.311 -0.0573 -0.0766  0.1842
10307W        W26441  16.041   6.612  12.088 -0.2247  0.1686 -0.0487
10308W        W26442   2.392   6.858   3.878  0.0400 -0.4059 -0.0483
10309W        W26443  14.607   6.164   0.160  0.2368 -0.1533 -0.0388
10310W        W26444   8.743   1.394   3.320  0.2616  0.2122 -0.1235
10311W        W26445   3.239  15.884  10.529  0.4768  0.0390 -0.3010
10312W        W26446   7.395  10.650  10.549 -0.1251 -0.1442  0.2634
10313W        W26447   1.473  14.678   4.540 -0.1659 -0.1158 -0.1820
10314W        W26448  11.376  16.487  11.847  0.1407  0.3702 -0.1138
10315W        W26449   8.512  11.028  12.205  0.0197  0.1619  0.1305
10316W        W26450  16.699   6.894  13.485  0.1355  0.1052 -0.0334
10317W        W26451  15.611   9.701  11.026 -0.0175  0.1961 -0.0524
10318W        W26452  11.513  15.215   0.928 -0.0784 -0.3022 -0.1636
10319W        W26453  10.989  15.339   3.339  0.0404  0.1515 -0.1213
10320W        W26454   4.853   4.291   3.385  0.0939 -0.2220  0.1109
10321W        W26455   5.957  18.429   3.374 -0.1463 -0.2620 -0.1136
10322W        W26456   3.568   7.444   0.994  0.1161  0.1444 -0.1735
10323W        W26457  13.233   0.122   1.616  0.0244  0.1287  0.0902
10324W        W26458   9.028  10.750   4.729  0.0071  0.1220  0.2856
10325W        W26459  17.539   8.248   3.136 -0.2102  0.3384 -0.3727
10326W        W26460   8.442   3.153   2.400  0.1451  0.0167 -0.3635
10327W        W26461  15.084   4.792   1.314  0.1407 -0.0145 -0.2819
10328W        W26462  17.298   0.261   4.196  0.0115  0.0861  0.1224
10329W        W26463   6.401   7.914   1.371  0.1359  0.1296 -0.3062
10330W        W26464  15.876   0.798   1.927 -0.0785 -0.2076  0.0518
10331W        W26465   1.205   5.722   4.430  0.1136  0.1687  0.1006
10332W        W26466  18.345   4.542  13.568  0.1362 -0.0471  0.1490
10333W        W26467  13.713   6.337   5.108 -0.1306 -0.3634  0.0349
10334W        W26468   8.396  11.288   0.897 -0.0493 -0.2942 -0.0283
10335W        W26469  17.306   5.908   1.835  0.1913  0.0105  0.2491
10336W        W26470  13.811  16.240   5.057  0.1827 -0.0186 -0.1560
10337W        W26471  18.711   0.931   2.593  0.1481 -0.0331 -0.4541
10338W        W26472  10.791  17.780   4.193  0.2195  0.2468 -0.1332
10339W        W26473  14.771   5.880  10.241  0.0033  0.2486  0.1103
10340W        W26474   2.433   1.214   1.771 -0.0837  0.0837  0.0264
10341W        W26475   9.113  12.702   1.973  0.2746 -0.2663 -0.2635
10342W        W26476  12.726   2.505  10.859  0.0510 -0.0359 -0.0812
10343W        W26477  14.772  17.349  10.745  0.2009 -0.2947  0.1912
10344W        W26478  13.475  15.759  15.280  0.1355 -0.0809  0.0588
10345W        W26479  12.917  10.629  10.288 -0.1302 -0.0640  0.4824
10346W        W26480   1.868  16.204   0.055  0.1992  0.0503 -0.0763
10347W        W26481   9.685   4.363  12.695  0.2592  0.0177 -0.0242
10348W        W26482  15.259   1.829  14.410 -0.1680 -0.2671  0.2691
10349W        W26483   0.659   0.472   0.548  0.1789 -0.1557 -0.1598
10350W        W26484  12.205   1.859  11.209  0.0613  0.1891  0.0165
10351W        W26485   5.027   9.317  13.224  0.2264  0.1258 -0.1566
10352W        W26486  15.914  14.626   2.548  0.1513 -0.1074  0.2046
10353W        W26487   5.744   8.066  10.621  0.0932  0.0795 -0.2794
10354W        W26488   7.357   5.620  15.236 -0.2455 -0.1400  0.1754
10355W        W26489  12.942   7.865   5.168  0.1238 -0.1838 -0.4644
10356W        W26490   4.674  11.399   5.182  0.0642  0.0864  0.1045
10357W        W26491  18.506  13.928   5.428 -0.3034  0.0864 -0.0451
10358W        W26492   9.549  13.067   4.058 -0.0687 -0.2574  0.1050
10359W        W26493  11.774   4.608  14.701 -0.0047  0.2006 -0.2262
10360W        W26494  13.783  11.963  11.213  0.0151  0.1381 -0.0120
10361W        W26495   1.450  14.582  10.686 -0.2194 -0.3198 -0.1633
10362W        W26496   2.159  15.716  15.424  0.0737  0.1833 -0.0443
10363W        W26497   4.419   7.225  10.909  0.0669  0.0494  0.0548
10364W        W26498   6.964  10.678  10.778  0.2868 -0.1663 -0.2683
10365W        W26499   8.509   7.515   1.249  0.1256 -0.1170  0.0215
10366W        W26500  14.792   0.747  14.926  0.1593  0.0033 -0.1249
10367W        W26501  16.026  13.305   5.064 -0.2828  0.0014  0.0895
10368W        W26502  13.348   4.488  13.318 -0.1369  0.0078 -0.1884
10369W        W26503  14.368   3.914   3.584  0.1418  0.3695  0.1385
10370W        W26504  11.620  14.526   3.281 -0.1733  0.2942  0.2008
10371W        W26505  15.335  15.695  12.367 -0.0651 -0.0576 -0.2636
10372W        W26506  18.502   1.320   1.341  0.2737 -0.0002 -0.1068
10373W        W26507  11.926  16.970   2.172  0.2482  0.1653  0.0860
10374W        W26508   2.849   0.066  14.573  0.1941  0.0903  0.1204
10375W        W26509   7.372   4.106   1.926  0.4352 -0.0451  0.0272
10376W        W26510  10.502   8.078   5.316  0.1799  0.2093  0.0738
10377W        W26511   7.496   1.334   0.760 -0.0680 -0.0013  0.2165
10378W        W26512   9.063  13.260   1.932  0.0392  0.0561 -0.4661
10379W        W26513   5.638  12.312  14.229  0.1393 -0.2180 -0.1216
10380W        W26514  16.973  16.715  14.005 -0.3692 -0.2356  0.2567
10381W        W26515  15.376  13.606  11.592 -0.0312  0.0343  0.2048
10382W        W26516   2.591  15.115   3.046 -0.4401 -0.1421 -0.4298
10383W        W26517  17.991  10.985   3.052 -0.4529 -0.0613  0.0084
10384W        W26518  14.058  10.910   2.902  0.2009  0.1509  0.0829
10385W        W26519   3.101   7.542   1.190 -0.0546 -0.1158  0.0812
10386W        W26520   6.834   7.262  11.229  0.0633 -0.0452 -0.0895
10387W        W26521   4.704   0.108  11.417 -0.1438  0.1724 -0.0499
10388W        W26522   2.547  14.452  11.406  0.1037 -0.0173 -0.2381
10389W        W26523   1.988  16.708   0.101 -0.0900  0.0062 -0.2260
10390W        W26524  16.881   5.283   2.876  0.0033 -0.0901 -0.0098
10391W        W26525  12.801   8.877   1.750 -0.1355  0.0949 -0.2847
10392W        W26526   4.833  15.207  11.184 -0.0657  0.0532 -0.0231
10393W        W26527  15.600  16.946   2.689 -0.0416 -0.0674  0.0449
10394W        W26528   5.073  13.953  14.727  0.3891 -0.1683 -0.0094
10395W        W26529   1.350  16.543  11.987 -0.1613  0.1023 -0.0156
10396W        W26530  10.529   6.406   0.242  0.0608 -0.0994 -0.2227
10397W        W26531  16.443   8.778   5.343  0.2572 -0.1467 -0.2144
10398W        W26532  10.521   7.275  14.716 -0.0070 -0.0666 -0.0068
10399W        W26533   7.211  18.298   0.658  0.1242  0.1822 -0.0447
10400W        W26534  12.467   2.281   0.346 -0.3035  0.1771  0.3276
10401W        W26535  12.679   7.609  12.783  0.1735  0.0711 -0.2045
10402W        W26536  15.920   8.026   4.225 -0.1708  0.0593 -0.0850
10403W        W26537   5.044   5.531   5.372  0.3151  0.0226 -0.0831
10404W        W26538   0.715  10.625  14.582  0.0076 -0.2250 -0.0338
10405W        W26539   4.913  10.845  11.701  0.0040 -0.2098 -0.0236
10406W        W26540  12.273   0.650  10.699 -0.0460  0.2596 -0.1018
10407W        W26541  10.171  17.064  12.232 -0.1366  0.2980  0.1971
10408W        W26542  13.565  15.764   0.197 -0.1205 -0.1437 -0.0225
10409W        W26543  12.205  18.220   3.075  0.1930 -0.0217 -0.0968
10410W        W26544   2.348  13.501  10.255 -0.3315  0.1881 -0.2804
10411W        W26545  13.464   6.749   0.193  0.1199  0.0571  0.2326
10412W        W26546  17.381  15.507  12.651 -0.0527 -0.3295  0.0022
10413W        W26547  12.198   7.857   3.848  0.0166  0.3089 -0.0388
10414W        W26548  18.565  12.851   0.049  0.2190 -0.1646  0.2462
10415W        W26549  10.563   4.485   0.912 -0.3252 -0.2972  0.1712
10416W        W26550   2.479   7.031   3.421  0.1400  0.0127 -0.1931
10417W        W26551  14.603   8.028   4.661 -0.0234  0.0618 -0.2050
10418W        W26552   5.007  13.376  12.876 -0.2535  0.0741  0.0056
10419W        W26553  11.264  13.408  11.566 -0.0653 -0.3053  0.1956
10420W        W26554   6.582   0.088  10.015  0.1076 -0.2791 -0.0038
10421W        W26555   6.595  11.484  11.746  0.0052 -0.1373  0.0691
10422W        W26556  11.573   3.258   0.221  0.0649  0.0847 -0.1067
10423W        W26557  12.121   5.604   0.508  0.2103  0.3113  0.0977
10424W        W26558   5.327  12.160  15.455 -0.1143 -0.2043  0.2469
10425W        W26559   5.765   6.209   3.230 -0.2591 -0.1564 -0.0388
10426W        W26560   6.668   9.601   0.822  0.1281 -0.0425 -0.1261
10427W        W26561   5.345  15.194   4.921 -0.0626 -0.0343  0.1100
10428W        W26562   2.934  17.232   0.055  0.2098  0.2547  0.0025
10429W        W26563  12.712  10.222   2.579  0.0412 -0.0330 -0.1529
10430W        W26564   1.275  13.427  13.963 -0.1322  0.2816 -0.0812
10431W        W26565  16.462  17.364   3.651 -0.2304  0.1293 -0.1333
10432W        W26566  16.187  13.776  13.391  0.1557 -0.1449  0.1321
10433W        W26567  15.858  10.096  13.457  0.1016 -0.1514  0.2216
10434W        W26568  14.634  10.928   2.864  0.0276 -0.1013  0.0875
10435W        W26569  10.595   9.851  10.640 -0.0743 -0.0530  0.0550
10436W        W26570   6.650   3.601   4.098 -0.3363  0.1294 -0.0945
10437W        W26571  15.857  15.131   3.035 -0.0573  0.1112  0.2112
10438W        W26572   9.002  17.974   0.932  0.2729  0.0760  0.0140
10439W        W26573   6.618  12.798  11.752 -0.0726  0.2269 -0.1245
10440W        W26574  14.379   2.702  11.882  0.0351 -0.0507  0.0945
10441W        W26575   1.311  11.923  10.819  0.2237 -0.0706  0.1022
10442W        W26576   3.966  13.980  13.733 -0.0333  0.3042 -0.2943
10443W        W26577   3.038   9.676   3.641 -0.1108  0.2763  0.1083
10444W        W26578  16.260   2.366   1.274 -0.3250  0.1296  0.1081
10445W        W26579   3.347   3.720   4.013  0.2260  0.4701  0.0028
10446W        W26580   6.214  18.159   1.580  0.0872  0.0597 -0.0349
10447W        W26581   0.519   2.492   5.048 -0.2542 -0.0314 -0.0883
10448W        W26582  17.511  12.599   1.481 -0.2270 -0.2181  0.0904
10449W        W26583  12.162   9.857  14.527  0.1255  0.1775  0.1565
10450W        W26584   1.504   6.483   1.126  0.1104 -0.0344  0.1184
10451W        W26585  17.627   4.719   2.020  0.1559  0.0739  0.0219
10452W        W26586   4.161  15.530  11.752 -0.3593  0.0201  0.4073
10453W        W26587   2.219  12.587  14.023  0.2857 -0.1610  0.1634
10454W        W26588   7.193   2.692   4.886  0.2084  0.0282  0.1425
10455W        W26589   0.257   2.560   1.831  0.4037  0.1964 -0.0507
10456W        W26590   8.583  14.145   1.693  0.0807 -0.0401 -0.0717
10457W        W26591   7.993   9.078  12.107 -0.0670  0.0000 -0.2516
10458W        W26592   0.437   4.010  10.994  0.3049 -0.0228 -0.1339
10459W        W26593   8.615   2.277   0.183  0.0991 -0.0896  0.1806
10460W        W26594  10.100  13.116   4.121 -0.1281  0.0632  0.0436
10461W        W26595  11.434  17.498  14.675  0.1855 -0.0156  0.2341
10462W        W26596   9.982   8.155   0.994  0.1249  0.3821 -0.0526
10463W        W26597   3.413   4.023   0.485 -0.1391 -0.1494 -0.0035
10464W        W26598  15.826  16.551  15.238  0.1526  0.1548 -0.2971
10465W        W26599   6.969   5.539  12.047 -0.0460  0.2033 -0.1616
10466W        W26600  16.386   6.036   4.940  0.0409 -0.0249  0.1851
10467W        W26601  11.729  11.563   2.879  0.1093  0.0874 -0.0321
10468W        W26602   6.465   8.410   5.086 -0.0040 -0.2672 -0.1329
10469W        W26603  18.537   3.396   2.113 -0.1596  0.2601  0.1875
10470W        W26604   8.612   7.732   2.155 -0.0229 -0.3759  0.1736
10471W        W26605  11.318   9.906  13.394  0.0616 -0.0610  0.0151
10472W        W26606   4.416  16.906  14.391  0.1073 -0.1991  0.4333
10473W        W26607  16.932   9.288  12.251 -0.2187  0.2634 -0.3105
10474W        W26608   7.127  15.250  10.858 -0.1289  0.0618 -0.0977
10475W        W26609   6.288  18.017   4.691 -0.1327  0.1169 -0.2646
10476W        W26610  11.612   8.234  11.982 -0.0145  0.0884 -0.2626
10477W        W26611  13.435  12.657  14.348  0.1663 -0.0350 -0.0238
10478W        W26612   7.203  16.145  14.842 -0.1110  0.4385 -0.2165
10479W        W26613   7.286   6.718   0.078  0.1545  0.3162 -0.1418
10480W        W26614  13.901  10.674   4.249  0.1605 -0.0665  0.1538
10481W        W26615  16.664   6.196   3.202  0.0741  0.0097 -0.0932
10482W        W26616   5.691   8.983  14.267 -0.4486 -0.1221  0.0545
10483W        W26617   2.038  17.226   0.353 -0.2139  0.2045 -0.1808
10484W        W26618   2.525   2.641   0.750 -0.1499  0.0704  0.1190
10485W        W26619  15.771  12.687   4.487 -0.2875 -0.2486 -0.2661
10486W        W26620   0.329  17.021   3.283 -0.0968 -0.0988  0.1102
10487W        W26621  18.645  16.568   4.356  0.1538  0.0527 -0.1916
10488W        W26622   0.357  18.018   0.875 -0.0394  0.1204  0.3033
10489W        W26623   1.864  17.097  15.419 -0.2999 -0.1319  0.0116
10490W        W26624   2.063   7.888   5.373  0.0729 -0.0394 -0.0554
10491W        W26625  14.033   1.841  14.612 -0.1045 -0.0294  0.1955
10492W        W26626   9.724   3.525   0.383 -0.0813  0.0143  0.3196
10493W        W26627  11.375  13.720  12.455  0.3082 -0.1654  0.2634
10494W        W26628   2.021   4.711   4.365  0.1992  0.1713  0.0574
10495W        W26629  10.922   1.923   0.847 -0.0227  0.1072  0.2494
10496W        W26630   5.623  17.115   0.363  0.0186  0.1319  0.4211
10497W        W26631  14.353  12.355   4.169 -0.0949 -0.0300 -0.1140
10498W        W26632   6.862  18.637   4.174 -0.3744 -0.0356 -0.0129
10499W        W26633  13.440   0.547  12.668 -0.2631  0.0452  0.1732
10500W        W26634   9.304   9.007  12.055 -0.0231 -0.1608  0.1401
10501W        W26635   3.134   9.101  11.534  0.0177 -0.2086 -0.1073
10502W        W26636   4.814  15.293  13.323  0.2210  0.3967  0.1509
10503W        W26637   9.737   5.186  12.351 -0.0273  0.1021  0.0212
10504W        W26638  10.499   0.621  14.630  0.1066 -0.1072  0.0507
10505W        W26639  10.590   3.652  11.133 -0.0473 -0.2342 -0.1746
10506W        W26640   2.403  10.762  13.051  0.1637 -0.0445  0.0684
10507W        W26641   9.829  18.587   2.003 -0.2070  0.1085  0.1109
10508W        W26642  14.787  14.029   4.414  0.0128 -0.1618  0.0327
10509W        W26643   6.024  13.922  14.371 -0.2606  0.0448 -0.0634
10510W        W26644  14.008  17.245   0.978 -0.2358 -0.0632  0.4453
10511W        W26645   4.079  17.947  13.704 -0.2759  0.4068  0.0276
10512W        W26646  15.893  15.866   2.936  0.0085  0.3499 -0.1682
10513W        W26647  11.637   2.601  14.200 -0.2011 -0.0973  0.2820
10514W        W26648  14.625  17.245   3.000 -0.2126  0.1219 -0.3662
10515W        W26649   4.594   2.061   3.382 -0.1832  0.1590  0.0526
10516W        W26650  18.165   8.127  13.858 -0.4160  0.2724 -0.1501
10517W        W26651   6.031  12.813   0.914 -0.1662 -0.0893  0.2875
10518W        W26652  14.473  10.185  13.889  0.1938  0.1947 -0.2693
10519W        W26653   6.298  11.429   4.306 -0.1384 -0.0166  0.1018
10520W        W26654   0.545   3.704   4.106  0.1459 -0.5159  0.0491
10521W        W26655  13.191   5.002   0.616 -0.0434  0.0128  0.1504
10522W        W26656  13.468   5.886   3.000 -0.3611 -0.1517 -0.1438
10523W        W26657  14.172   6.548   1.779 -0.2343 -0.0924 -0.2652
10524W        W26658   3.295  12.032  12.125  0.3734  0.3113  0.0329
10525W        W26659  16.558  17.791  14.936  0.0540  0.1375  0.2472
10526W        W26660   1.783  10.460   4.395 -0.0506 -0.2416 -0.0996
10527W        W26661  17.802  12.049  15.030 -0.4244 -0.4606  0.0966
10528W        W26662  11.559  18.058   0.026  0.2608 -0.0183  0.4032
10529W        W26663  15.108  11.192   3.639 -0.3615 -0.1552 -0.0148
10530W        W26664   9.033   0.299   1.141  0.0459 -0.0495  0.0382
10531W        W26665   3.418  15.527   0.137 -0.2127 -0.1967 -0.1573
10532W        W26666   6.482  11.770  14.402 -0.2373  0.1534  0.0419
10533W        W26667   6.761  17.815  10.166  0.0673 -0.0424 -0.2851
10534W        W26668  12.477   2.509   4.314  0.3415  0.0182  0.0593
10535W        W26669  10.533  18.032   3.723 -0.2609 -0.1378 -0.0312
10536W        W26670  10.696   0.350   4.596  0.2395 -0.2319 -0.0289
10537W        W26671   8.809   1.146  12.551 -0.0930  0.0433  0.0791
10538W        W26672   1.005  16.632   0.166  0.3002  0.2555 -0.1547
10539W        W26673   7.718   5.855  14.743  0.1301  0.2276 -0.1701
10540W        W26674  14.026  10.734   5.694 -0.1038 -0.0609  0.0563
10541W        W26675  18.308  14.740   2.235 -0.3365 -0.2889 -0.0417
10542W        W26676  16.927   8.830   0.453 -0.1418  0.2123 -0.1533
10543W        W26677   2.461   1.539   3.870  0.2505 -0.2089 -0.1104
10544W        W26678   5.070   0.574  15.156  0.0162  0.0471 -0.2854
10545W        W26679   8.582   6.167  12.638 -0.0538  0.1512  0.2026
10546W        W26680  12.729  10.293  13.183  0.0470  0.1763 -0.0635
10547W        W26681   3.629  12.769   1.105  0.3003 -0.1293  0.0379
10548W        W26682  14.452   1.555   3.664 -0.0918  0.1886 -0.2795
10549W        W26683   4.446  10.927  10.936 -0.1399  0.1753  0.1553
10550W        W26684   0.056  10.965  14.681 -0.0344 -0.0002  0.0208
10551W        W26685   5.798   3.339   2.392 -0.1240 -0.4036 -0.2430
10552W        W26686  10.034  10.813  15.277  0.2719  0.2701 -0.0382
10553W        W26687  18.100   8.736   0.477  0.1229  0.1469 -0.2121
10554W        W26688   2.744  18.239   5.585  0.0716 -0.1740 -0.0718
10555W        W26689  18.453   9.534   5.315 -0.1675 -0.0658 -0.0465
10556W        W26690   4.017   7.548  11.098  0.1734 -0.0334 -0.0333
10557W        W26691  13.392  11.214  14.933  0.0107 -0.0385 -0.1619
10558W        W26692  12.144  11.129  15.424  0.0926  0.2120  0.0893
10559W        W26693  11.026  16.568   4.373  0.0118  0.0159 -0.0830
10560W        W26694  13.226  10.549  13.982 -0.1809 -0.1601 -0.0221
10561W        W26695  17.099   7.420  11.845  0.0052  0.0584 -0.0250
10562W        W26696   6.016  12.774   0.330  0.1382 -0.3138 -0.0433
10563W        W26697  18.103  11.074  13.069  0.1080 -0.1395  0.1568
10564W        W26698   9.359  14.370  12.685 -0.0008  0.1668  0.1568
10565W        W26699  11.331  16.215   4.379 -0.1928 -0.0869  0.3011
10566W        W26700  17.992   8.220   2.482 -0.0254  0.0821 -0.0877
10567W        W26701   1.421   5.101  15.020  0.1014  0.2097 -0.2822
10568W        W26702   2.393   9.729  13.411  0.1720 -0.1927  0.2356
10569W        W26703  12.721  15.751  12.198 -0.0078  0.3130 -0.1389
10570W        W26704   3.030  13.197  11.709  0.2926 -0.0138 -0.2525
10571W        W26705  10.058  15.979   2.802  0.0474  0.0425 -0.0896
10572W        W26706   1.229  13.280   2.127 -0.1985  0.4915 -0.1081
10573W        W26707  17.651   1.315   3.306 -0.0195  0.0618  0.3821
10574W        W26708  17.989  11.251   4.862 -0.1042 -0.0509  0.0925
10575W        W26709  18.150  16.741  14.031  0.0613 -0.2226  0.1455
10576W        W26710   6.555  12.776   4.491 -0.1888 -0.1206 -0.0033
10577W        W26711   3.150  14.975   3.431 -0.0231  0.1729 -0.1896
10578W        W26712  17.185  12.555  12.488 -0.1427  0.0550 -0.0083
10579W        W26713  12.300  15.228   2.260 -0.1197  0.1896 -0.2210
10580W        W26714  17.008   2.572   3.492 -0.1806 -0.0133 -0.1015
10581W        W26715   7.095   9.440  10.803 -0.1579  0.2010  0.0238
10582W        W26716   4.114  15.759  13.663 -0.2020  0.0956  0.1566
10583W        W26717  18.132   9.455  12.015  0.0398 -0.2740 -0.2532
10584W        W26718   7.858  11.837  13.551 -0.2113 -0.0423 -0.2076
10585W        W26719  14.510   2.541   0.772 -0.1337  0.0718  0.1867
10586W        W26720  10.019   6.386   4.085 -0.0404  0.1633  0.0873
10587W        W26721   8.016   9.069  12.626 -0.0487 -0.1805  0.0543
10588W        W26722  10.633   9.157   5.014  0.0013  0.2703 -0.0495
10589W        W26723  13.726   0.970   4.573 -0.1563  0.2209  0.1593
10590W        W26724   9.562  11.066   1.120 -0.2748 -0.0865  0.0536
10591W        W26725  13.356  14.966   4.690  0.2789  0.1550 -0.3841
10592W        W26726   0.609   4.012  11.427  0.2396 -0.2379 -0.2160
10593W        W26727   0.161   6.607  10.843  0.0075  0.3019  0.3233
10594W        W26728   1.181   8.636   0.723 -0.2305 -0.2247  0.0913
10595W        W26729   5.236   2.732  15.070  0.0606 -0.0697 -0.2473
10596W        W26730   0.681  11.676   1.605 -0.2983  0.0679 -0.3349
10597W        W26731  18.554   8.767   1.442 -0.3029  0.1711  0.3367
10598W        W26732  13.225  13.483   0.331 -0.2019  0.0207 -0.1892
10599W        W26733  11.632   1.422   0.294  0.3254  0.3287  0.3153
10600W        W26734   7.196   7.543  11.937 -0.1450  0.0719 -0.1549
10601W        W26735   2.631   9.286   3.573 -0.0062 -0.0108  0.0655
10602W        W26736   5.261  10.653   2.236 -0.2482 -0.1353 -0.1693
10603W        W26737  18.153  15.621   5.438  0.0045 -0.2217 -0.3439
10604W        W26738   9.674   2.866  11.167  0.1437  0.3445 -0.0355
10605W        W26739   0.147  15.749  13.956 -0.0065 -0.1110  0.0302
10606W        W26740   2.299  17.303   3.435 -0.2775 -0.0325  0.0903
10607W        W26741  17.495   8.679  14.113  0.4676  0.3155  0.0993
10608W        W26742   6.498   6.329   0.484  0.1583 -0.0973 -0.2306
10609W        W26743   4.427  17.440   5.023  0.0334  0.3498 -0.3221
10610W        W26744   3.932   3.369  11.155 -0.0919 -0.2527 -0.1170
10611W        W26745   1.423   2.245  13.028 -0.0439  0.2923  0.1673
10612W        W26746   5.012  16.965   1.063 -0.2470  0.0392 -0.0467
10613W        W26747   5.636   6.800  11.883 -0.0269  0.2182 -0.2478
10614W        W26748  11.542   7.675  14.739 -0.0731  0.0325 -0.3206
10615W        W26749   4.326  11.375   3.715  0.0786 -0.0563  0.2795
10616W        W26750   3.735  17.909  14.638  0.0354  0.3376  0.0161
10617W        W26751   0.290   2.222  11.978  0.2317 -0.0191  0.3992
10618W        W26752   2.732   5.849   1.797  0.0727  0.0287 -0.1201
10619W        W26753  11.098   8.093  15.520  0.1594  0.0301 -0.0692
10620W        W26754   3.916   9.399   1.000  0.1519  0.1452  0.2891
10621W        W26755   9.239   9.426  13.221  0.0797 -0.1368 -0.1472
10622W        W26756  14.669   8.299  11.295  0.0824  0.3123 -0.1001
10623W        W26757   3.735  17.717   1.438 -0.1723  0.1418 -0.3511
10624W        W26758  11.093  13.710  13.336  0.2477  0.3232  0.2392
10625W        W26759   0.610   9.230   4.443  0.3613 -0.0239 -0.3475
10626W        W26760   6.647   5.853   2.230 -0.1023  0.0100  0.0658
10627W        W26761  15.881   7.163  11.596  0.2412  0.0172  0.1808
10628W        W26762   9.603   6.524   3.859 -0.0261 -0.0128 -0.0903
10629W        W26763  16.863  16.768   4.242 -0.2948  0.1464 -0.2296
10630W        W26764  13.957   1.384  11.132 -0.0489 -0.0089 -0.2779
10631W        W26765  10.756  12.679  13.170  0.0145  0.1093  0.0753
10632W        W26766   4.117  16.238   1.816  0.0579 -0.1566 -0.1529
10633W        W26767  17.200  13.763   3.628  0.0200  0.1703 -0.0168
10634W        W26768  17.401   4.082  12.564  0.0849 -0.0329 -0.1079
10635W        W26769  15.235  18.277  14.732 -0.1014  0.0471  0.2089
10636W        W26770   2.710  17.055   4.229  0.1425  0.4235  0.1253
10637W        W26771   8.829   0.873   1.382 -0.1977 -0.2140 -0.4083
10638W        W26772   0.895   7.718  13.834  0.0758 -0.0233  0.3147
10639W        W26773   6.724  15.847   1.853 -0.5758 -0.0569 -0.1764
10640W        W26774  12.670  15.772   5.013 -0.0866 -0.2204  0.3054
10641W        W26775   8.421   6.198  14.274  0.0589  0.1087 -0.0654
10642W        W26776   5.686   4.985  14.863  0.0732 -0.1790  0.1846
10643W        W26777   5.272   7.978   1.878  0.0998  0.1936  0.0825
10644W        W26778  18.130   2.018  13.158  0.0248 -0.2605 -0.3315
10645W        W26779  11.402  10.980  11.135  0.0953  0.3056 -0.0075
10646W        W26780  18.274  18.677  11.172 -0.1021  0.1196 -0.0506
10647W        W26781  10.776   6.876   2.017 -0.0434  0.0619 -0.0182
10648W        W26782  13.211  15.481   2.692  0.1134  0.1559 -0.3846
10649W        W26783   2.282  15.946  14.221 -0.2180 -0.2305  0.3837
10650W        W26784   5.931   6.088  14.833 -0.2345  0.1496 -0.3504
10651W        W26785   2.344   5.969   2.533  0.2216  0.1937 -0.0649
10652W        W26786   4.316   7.729  10.581  0.1148  0.2439 -0.0908
10653W        W26787   3.597  14.491  10.893 -0.0854 -0.3087 -0.1834
10654W        W26788   5.734   9.393  15.450  0.3499  0.0701 -0.0408
10655W        W26789   5.722  11.885  13.156  0.2253 -0.2567 -0.1596
10656W        W26790   9.340   1.155   3.715  0.1763 -0.0758  0.1473
10657W        W26791  12.021  13.816  13.449 -0.2830  0.0976 -0.2574
10658W        W26792  18.714   0.072   4.776 -0.2954 -0.1885  0.0424
10659W        W26793  13.276   7.973  14.641 -0.0389 -0.1456 -0.3965
10660W        W26794  11.336   8.150   5.230 -0.4323 -0.1625  0.0392
10661W        W26795   4.328   4.494  11.948 -0.1156 -0.2073 -0.0577
10662W        W26796   5.031   0.492   1.779 -0.0838  0.0044  0.0337
10663W        W26797  17.744  15.630   0.184 -0.0895  0.0287  0.0952
10664W        W26798  18.019   1.823   5.594 -0.1629  0.1857 -0.2266
10665W        W26799   9.131  10.317  11.587  0.1538 -0.3285 -0.0206
10666W        W26800  17.278   0.142  12.332  0.2490 -0.0825  0.0058
10667W        W26801   2.709   5.602   3.956 -0.0336  0.1101  0.1819
10668W        W26802  13.289   6.612  13.214 -0.1470  0.0807 -0.0732
10669W        W26803   0.972  18.396   0.199 -0.0752 -0.0673 -0.2926
10670W        W26804  12.142   4.929  12.208 -0.1197  0.2115 -0.3037
10671W        W26805   9.831   0.342  13.716  0.2018 -0.1140  0.1131
10672W        W26806  13.222   9.458   5.845  0.3303 -0.0422 -0.0776
10673W        W26807  13.356  14.605   3.512  0.2524  0.0039  0.0310
10674W        W26808   9.877  14.106  10.882  0.1529 -0.0411  0.0508
10675W        W26809   6.705   7.143   0.663  0.0798 -0.1479 -0.2351
10676W        W26810   2.472   0.474  15.502 -0.0867  0.0626  0.0673
10677W        W26811   1.698   9.085   3.595  0.1651 -0.0617  0.1770
10678W        W26812   1.473  10.043  11.701  0.2130  0.2857  0.2448
10679W        W26813   4.603  15.759  13.565  0.1221  0.1483  0.4292
10680W        W26814  18.626   5.775  14.151  0.0923 -0.2173  0.0140
10681W        W26815  10.337   2.090  13.392 -0.0154 -0.0826 -0.0290
10682W        W26816  14.222   3.680   2.231  0.4721 -0.1976  0.0081
10683W        W26817  16.316  12.761   0.598  0.4422  0.0085 -0.1494
10684W        W26818  10.736   8.595   0.927 -0.0364  0.0862  0.1694
10685W        W26819   2.375   9.796  14.705 -0.0122 -0.0885 -0.0546
10686W        W26820   3.516   5.214   2.288  0.0764  0.2960  0.1639
10687W        W26821   3.429   5.948  14.373 -0.3310 -0.3146  0.1663
10688W        W26822  11.833   8.497  15.562 -0.1783 -0.2608  0.1621
10689W        W26823   2.018   6.149  11.587 -0.3759 -0.0083 -0.3077
10690W        W26824   4.729  17.200   2.383 -0.0151 -0.0734  0.1142
10691W        W26825  14.989   3.774  14.541  0.1040 -0.2773  0.0779
10692W        W26826   2.678   6.685  14.174 -0.2882  0.0583 -0.0049
10693W        W26827   5.341  13.867  13.679 -0.1685  0.0566  0.0621
10694W        W26828   3.837   2.220   0.036  0.2514 -0.0421  0.1926
10695W        W26829  18.460   5.681  10.488 -0.0171  0.0180  0.2497
10696W        W26830  11.159   2.823   2.896 -0.1933  0.0426  0.1057
10697W        W26831   4.463   8.143   1.575 -0.2939  0.0686 -0.1897
10698W        W26832  13.598   5.674   3.455  0.0827 -0.1514  0.1067
10699W        W26833  17.560   6.169  13.613 -0.0713 -0.1176 -0.0679
10700W        W26834   1.992   3.786   4.050 -0.1531  0.0685 -0.1850
10701W        W26835  18.412   1.048  14.948 -0.0019 -0.3718 -0.0376
10702W        W26836  11.199  14.842  14.649 -0.0706 -0.0558 -0.1493
10703W        W26837   5.772  12.168  10.748  0.3108 -0.0910 -0.0404
10704W        W26838   7.072   0.260   2.484  0.0324 -0.2412  0.2196
10705W        W26839   7.408  12.326  13.588 -0.3627  0.2441  0.0610
10706W        W26840   4.181  17.021  11.317 -0.1517 -0.4428 -0.1815
10707W        W26841   8.581  11.937  10.985  0.1449 -0.0723 -0.0288
10708W        W26842  15.030   2.159  12.926  0.0854  0.1387 -0.0583
10709W        W26843   4.832  18.677   2.951 -0.0585 -0.2380  0.1681
10710W        W26844   5.805  12.848   5.263 -0.3210  0.0260  0.3691
10711W        W26845   6.477  13.563  14.390  0.0678 -0.0161 -0.0599
10712W        W26846   2.512  11.295  14.441  0.2269  0.0490 -0.0302
10713W        W26847  13.914   2.688  11.289  0.3395 -0.2774  0.2223
10714W        W26848   8.658  15.626   3.159  0.0807  0.0011 -0.1385
10715W        W26849  16.816  10.533   2.117 -0.0100 -0.1891 -0.0736
10716W        W26850   5.194   2.102   0.258  0.0195  0.0565 -0.0069
10717W        W26851  17.307   8.755   2.159 -0.0622 -0.0182 -0.0185
10718W        W26852   4.588   9.308  11.069  0.0716  0.0852 -0.0326
10719W        W26853  15.220  14.909   3.899 -0.2192  0.1807 -0.0631
10720W        W26854   7.731   0.989  11.576  0.3674  0.0661 -0.0025
10721W        W26855   7.372  14.720   3.462  0.0360 -0.2184 -0.0015
10722W        W26856  10.904   1.806  12.164 -0.1695  0.0347 -0.2842
10723W        W26857   1.606  16.840  14.307  0.4710 -0.0354 -0.0031
10724W        W26858   5.267   6.793   2.573 -0.0016 -0.4277 -0.1538
10725W        W26859  10.773  14.238   4.937  0.1546  0.4260  0.0283
10726W        W26860   3.113  14.344   4.275 -0.0898  0.0520  0.3383
10727W        W26861  16.607  13.769  13.076 -0.2877  0.2454 -0.0721
10728W        W26862  17.381  18.629  13.296 -0.1009 -0.1311 -0.0945
10729W        W26863   3.605  18.209   3.945  0.1166 -0.0128 -0.0914
10730W        W26864  10.942  17.522  10.667 -0.0252  0.0551 -0.0568
10731W        W26865  15.741   3.784   1.043  0.1147 -0.1838  0.3022
10732W        W26866  16.542   2.750  13.471  0.0715  0.1081  0.1180
10733W        W26867   9.097   1.544  12.558 -0.1675  0.1466 -0.0354
10734W        W26868   6.505  16.320   5.557  0.1890 -0.2682 -0.2449
10735W        W26869   2.030   5.785  12.003 -0.0296  0.4784 -0.1759
10736W        W26870   7.681  16.564   2.590  0.1596 -0.1574 -0.0413
10737W        W26871   2.460  11.843  15.403 -0.1348  0.1606 -0.0778
10738W        W26872   6.293  14.198  15.208  0.1368 -0.1140  0.1963
10739W        W26873  10.448   4.660   0.019  0.0969  0.1753  0.1736
10740W        W26874  13.500   7.173   4.943 -0.5325 -0.1918  0.2501
10741W        W26875  13.963   1.101   0.470 -0.1658 -0.0056  0.2577
10742W        W26876  13.864  15.370   9.363 -0.1189  0.1073  0.1886
10743W        W26877   8.025   1.728  13.501 -0.0220 -0.0899 -0.1951
10744W        W26878  13.466   4.451   5.103  0.0269  0.0761  0.0146
10745W        W26879   2.018  16.159   1.825  0.1824  0.0983  0.4387
10746W        W26880   4.900   7.832   2.405  0.0414  0.2872 -0.1974
10747W        W26881  12.090   3.449  13.318  0.0631 -0.1488  0.1722
10748W        W26882   1.550  16.316  12.457 -0.0375  0.3770 -0.1561
10749W        W26883  10.000  12.541   1.161 -0.0275  0.4176  0.0340
10750W        W26884  15.720   2.115   5.084  0.2206 -0.1324 -0.2161
10751W        W26885  17.124  16.418   4.548  0.1459 -0.4353 -0.1240
10752W        W26886  14.943   9.452  15.194  0.0649  0.2767 -0.0483
10753W        W26887   6.191  11.560  12.182  0.1784  0.0780 -0.1885
10754W        W26888  15.149   6.864  15.340  0.0306 -0.1730  0.3194
10755W        W26889  10.609  16.799   1.870  0.0731  0.1061  0.6010
10756W        W26890  10.332   3.631   0.360  0.2761  0.1769 -0.2478
10757W        W26891  15.647  13.158   5.320  0.0122  0.0051 -0.4620
10758W        W26892  11.924  13.321  12.182 -0.3586  0.0405 -0.0089
10759W        W26893  14.145   5.032  13.362 -0.1465 -0.0532  0.2952
10760W        W26894   3.239  11.150   3.452 -0.0536 -0.1149  0.1690
10761W        W26895   1.948   3.523  12.444 -0.1914 -0.2037  0.1153
10762W        W26896  17.856   9.779  10.870  0.1212  0.0605 -0.1330
10763W        W26897   4.538   1.952   1.172 -0.0478  0.0263  0.1666
10764W        W26898  13.007   1.379  12.369 -0.0077 -0.2982 -0.1587
10765W        W26899   9.226  16.326  14.680  0.1067 -0.3173  0.0059
10766W        W26900   3.963  14.622   2.488  0.4551 -0.1322 -0.0975
10767W        W26901  18.008  12.055   2.706 -0.0295  0.2394  0.0244
10768W        W26902   0.942   3.028   2.669 -0.1199  0.0295 -0.2422
10769W        W26903   0.712   6.848   0.565 -0.1062  0.1933  0.3503
10770W        W26904  17.028  14.438  14.553 -0.0960 -0.2214 -0.2339
10771W        W26905   0.298   3.541   2.798 -0.1562  0.3754  0.1955
10772W        W26906   6.970   5.911  15.400  0.0057 -0.1168 -0.2589
10773W        W26907   1.982   7.487  12.511 -0.1987  0.0051  0.0562
10774W        W26908  18.504   9.342   1.754 -0.0763 -0.1797 -0.0080
10775W        W26909  17.717   4.154   3.397 -0.3707 -0.2034  0.1162
10776W        W26910   9.645   6.032   2.449 -0.1022  0.1219 -0.1574
10777W        W26911  10.475  17.119  15.451  0.1772  0.0491 -0.2696
10778W        W26912   1.535   8.377   0.923 -0.0902  0.1363 -0.1031
10779W        W26913   3.678  15.262   2.788 -0.0142  0.0889 -0.0432
10780W        W26914  11.631  14.143   0.723  0.2406  0.0739 -0.0786
10781W        W26915   7.840  13.602   0.759 -0.0702  0.0069 -0.0966
10782W        W26916   9.536  15.366  11.715 -0.0438 -0.2958  0.0705
10783W        W26917  13.579  16.453  13.489 -0.4391  0.0550  0.0446
10784W        W26918   0.570  16.983   9.787 -0.0479  0.2521  0.0579
10785W        W26919  12.423  17.741  14.615  0.1265 -0.0393 -0.2132
10786W        W26920   5.888   6.513  11.588 -0.1320 -0.1709  0.1720
10787W        W26921   4.513  13.420   4.101 -0.3638 -0.1111  0.1815
10788W        W26922   9.700   0.367  11.955 -0.1042 -0.1400 -0.1039
10789W        W26923   2.910   5.526   0.484 -0.2855  0.0691  0.2984
10790W        W26924  14.834   5.795  10.734 -0.0805 -0.1979 -0.2479
10791W        W26925  10.876   4.882   5.075  0.1608 -0.0193 -0.1090
10792W        W26926   3.852   3.208   5.838  0.0294  0.2227  0.0135
10793W        W26927   4.650   9.937   2.250  0.2369  0.4253 -0.5058
10794W        W26928  14.070   9.904   3.196  0.1804 -0.2744 -0.1490
10795W        W26929  10.626   4.848   1.247 -0.1219 -0.0274  0.0803
10796W        W26930  13.334   9.500   5.331  0.0758  0.0903 -0.0161
10797W        W26931  13.623  14.870   1.632  0.0509  0.1786 -0.1834
10798W        W26932  14.366   2.345  12.349 -0.0009  0.0147  0.1200
10799W        W26933  14.042  15.783   5.331 -0.1143  0.0548 -0.0793
10800W        W26934  12.790   6.138  11.378 -0.1097 -0.2134 -0.0303
10801W        W26935  17.876   3.223  15.440  0.0047 -0.2098 -0.2736
10802W        W26936   5.697  12.600  12.032 -0.0766 -0.1332 -0.0496
10803W        W26937  12.821   2.320  13.441 -0.2426  0.0104  0.1098
10804W        W26938   8.739   3.746   0.213 -0.0912 -0.6015 -0.0379
10805W        W26939   0.601   5.174   5.458  0.1117 -0.0552  0.1911
10806W        W26940   0.963   4.753   3.736 -0.0975  0.0991  0.1814
10807W        W26941   4.179  17.893   5.084  0.0918  0.0509  0.3588
10808W        W26942  10.459   6.934   2.851 -0.1608  0.1077  0.2550
10809W        W26943  10.479  13.836  11.690 -0.1015  0.1303 -0.0962
10810W        W26944  10.331   9.820  11.502  0.1893 -0.2120  0.0719
10811W        W26945  11.149   7.558   0.897  0.2665  0.0916  0.2527
10812W        W26946  17.857  13.678  13.299  0.1918 -0.0728  0.0937
10813W        W26947   6.460  13.236   4.246 -0.0430  0.3001  0.2890
10814W        W26948  12.505   4.079   1.419 -0.0736  0.1280 -0.1008
10815W        W26949   3.258  13.711   2.414  0.2421  0.1891 -0.3113
10816W        W26950   7.570  13.514  14.001  0.0892  0.1638 -0.3948
10817W        W26951  16.422  14.603  13.018 -0.4139 -0.3233 -0.0040
10818W        W26952  11.381  16.955   0.954 -0.1031 -0.1085  0.4720
10819W        W26953  10.327   8.857  15.411  0.3694 -0.4041 -0.0801
10820W        W26954   0.097   8.424  15.109 -0.1163  0.1939  0.0509
10821W        W26955   2.496   5.562  11.924  0.1199  0.2739 -0.0169
10822W        W26956  11.875   0.334  10.778 -0.0302 -0.2371  0.0769
10823W        W26957  18.533   7.351   3.484  0.1307 -0.3016 -0.2151
10824W        W26958   1.224  15.484  12.821  0.0586 -0.2720 -0.2200
10825W        W26959   3.118  17.654   3.122  0.0125 -0.6172 -0.1007
10826W        W26960   0.958  18.334  15.200  0.0441 -0.0570 -0.0948
10827W        W26961   8.560   3.288   4.355 -0.1962 -0.2555 -0.1441
10828W        W26962  18.269   4.151  14.310  0.3364 -0.0185 -0.0894
10829W        W26963  11.652   1.182  11.326 -0.0890 -0.1911  0.0460
10830W        W26964  11.112  16.877  12.108 -0.1858 -0.4662 -0.0107
10831W        W26965  16.145   4.683   4.494 -0.2874 -0.2645 -0.0599
10832W        W26966  10.268   5.228  12.648  0.1560  0.0290  0.3452
10833W        W26967  10.701   7.967  12.936  0.2962 -0.0440 -0.0197
10834W        W26968   8.165   2.149  13.696 -0.1880 -0.2021  0.0046
10835W        W26969  13.540   7.061   2.650 -0.2436 -0.2514  0.2526
10836W        W26970   3.860   7.307  12.722 -0.3180  0.2400  0.4182
10837W        W26971  17.120  14.435  14.027  0.0121 -0.0931 -0.1710
10838W        W26972   0.183  10.962  14.093  0.0445  0.2476 -0.0518
10839W        W26973  14.713   3.729  13.493  0.2030 -0.1677  0.1681
10840W        W26974  14.183   2.630   0.309  0.0096  0.0141 -0.2267
10841W        W26975   4.752   7.462   3.984  0.0744  0.1069  0.1468
10842W        W26976   1.305  17.638  14.943  0.1507 -0.2102 -0.0772
10843W        W26977  12.332  16.423   1.761 -0.1969  0.2093 -0.3110
10844W        W26978   2.829   4.535  12.893 -0.0081 -0.0639 -0.2340
10845W        W26979  17.010   1.203   4.296  0.2866  0.1511 -0.2559
10846W        W26980  12.105   7.193  13.990  0.2445 -0.0307 -0.3326
10847W        W26981   0.050   2.876  15.394 -0.3338 -0.2413 -0.0249
10848W        W26982  15.189   2.782   0.170  0.0437  0.0774 -0.2564
10849W        W26983  16.785  16.006  10.657 -0.1273 -0.3914  0.0869
10850W        W26984  18.207   1.374  10.597  0.1615 -0.1211 -0.0740
10851W        W26985  12.463  11.017  14.006  0.0921 -0.3304  0.2077
10852W        W26986  13.580   8.502   9.296 -0.1653  0.0594 -0.3140
10853W        W26987  14.842  16.412  12.216 -0.2863  0.1114 -0.0885
10854W        W26988  15.106   9.614  11.009 -0.1319 -0.0675  0.1465
10855W        W26989   4.171  16.978  13.801  0.2383  0.0583  0.0216
10856W        W26990  11.244  14.595   2.048  0.4765 -0.2095  0.3030
10857W        W26991   0.617  11.231   4.540 -0.1721 -0.0573 -0.0820
10858W        W26992  14.133   7.122  11.742 -0.2292  0.0351 -0.3442
10859W        W26993  17.799  17.258   0.650  0.0244 -0.0990  0.0093
10860W        W26994  18.209  10.183  12.459 -0.0670  0.0514  0.1011
10861W        W26995   6.078  13.593  10.972  0.1016 -0.1069 -0.2146
10862W        W26996   4.162   3.370  12.636  0.0341 -0.0595 -0.1202
10863W        W26997   7.182   2.616   2.972  0.0285  0.1209 -0.1883
10864W        W26998   9.312   0.733  11.240  0.0465  0.2828 -0.1856
10865W        W26999   0.437   9.336   2.668 -0.0281  0.2093  0.0463
10866W        W27000   2.924   6.094   3.544 -0.1999 -0.1511  0.2336
10867W        W27001  15.716   1.410   3.056 -0.2297 -0.1644  0.0632
10868W        W27002   0.676   8.560  13.320  0.0907 -0.1721  0.0783
10869W        W27003   0.374  11.138   2.311  0.0363 -0.0111  0.2550
10870W        W27004   6.944   9.311  11.327 -0.1401  0.3596 -0.1656
10871W        W27005   5.528  10.850  11.760  0.0107 -0.1530  0.0636
10872W        W27006   7.718  18.122   1.769 -0.0899  0.1539  0.0891
10873W        W27007  13.284  10.561  11.007 -0.0078  0.1311 -0.0272
10874W        W27008   7.262   2.165   0.024 -0.2641 -0.2007 -0.4933
10875W        W27009   7.237  12.250   4.514  0.2701 -0.0609  0.1354
10876W        W27010  11.470   5.797  14.132 -0.2258  0.0774 -0.1377
10877W        W27011  15.955  18.249   3.440  0.0268 -0.0452 -0.0755
10878W        W27012   6.907   3.256   1.710  0.0131 -0.0294 -0.1835
10879W        W27013   3.977  13.417  13.617  0.0689 -0.0973  0.3225
10880W        W27014   8.768   6.747   3.842 -0.2098  0.0012 -0.1132
10881W        W27015  12.645   5.795  12.100 -0.2738  0.3319  0.0594
10882W        W27016   2.271   7.901   3.537 -0.3473  0.1647 -0.2055
10883W        W27017   4.566  18.614   3.634  0.0645  0.0589 -0.0416
10884W        W27018  11.455  11.302  12.551 -0.2690  0.0208 -0.3149
10885W        W27019   2.135  15.275   0.672 -0.2313  0.0011  0.0437
10886W        W27020   8.677  15.257   0.346  0.1384 -0.0325  0.1965
10887W        W27021   5.297   8.251  10.868  0.0109 -0.1235  0.1032
10888W        W27022  17.680  18.288   2.901 -0.3482  0.0276 -0.0088
10889W        W27023   4.906   4.463   1.868  0.4214  0.0645  0.1234
10890W        W27024  16.580  18.310  11.857  0.0159 -0.1735 -0.1078
10891W        W27025  13.769  15.758   2.694 -0.2398 -0.1933 -0.1586
10892W        W27026  13.041   4.343   2.206 -0.1669  0.1214 -0.1667
10893W        W27027  16.988   4.930   0.951 -0.0359  0.1900 -0.1539
10894W        W27028   1.728   8.877  12.753 -0.1388  0.2455  0.0148
10895W        W27029   7.632   1.250   4.290  0.2126 -0.3592 -0.1393
10896W        W27030   3.685  11.784   0.490  0.1786 -0.1080  0.0255
10897W        W27031  15.289  13.949   1.412 -0.2466 -0.0054 -0.1551
10898W        W27032  18.040   9.964   0.768  0.2280  0.2687  0.2460
10899W        W27033  13.760  12.178  15.490  0.0642 -0.1812  0.1852
10900W        W27034   0.265   1.758  14.108  0.0001 -0.2772  0.0039
10901W        W27035   7.518  13.066  13.322  0.0234 -0.1228  0.2256
10902W        W27036  18.691   3.104   0.791 -0.2490  0.0332 -0.0572
10903W        W27037   7.488  15.487  13.694  0.1511 -0.0550 -0.0217
10904W        W27038  15.923   9.048   2.149 -0.2469 -0.0609 -0.2212
10905W        W27039  12.508   4.983  13.214  0.0335 -0.1756 -0.1702
10906W        W27040   9.775   3.125  14.571 -0.0326  0.0604 -0.1593
10907W        W27041   0.703   8.418  12.011  0.3040 -0.2481  0.0135
10908W        W27042  11.770   2.725   3.724 -0.1290  0.1305  0.1577
10909W        W27043  15.960  16.549   4.012  0.2939  0.2256  0.1252
10910W        W27044  11.316   8.886  14.273 -0.3259  0.0596 -0.2830
10911W        W27045   5.985   0.354   0.841 -0.1201 -0.0855 -0.2074
10912W        W27046   1.236  11.687   4.098 -0.2868  0.0678  0.1775
10913W        W27047  18.308  11.940   3.648 -0.5068  0.0490  0.1198
10914W        W27048   9.127   7.232   3.905 -0.0066 -0.1221  0.3061
10915W        W27049   5.368  14.492  14.898 -0.0347 -0.3128  0.0803
10916W        W27050  16.116  16.781  14.631  0.0018  0.0656  0.4004
10917W        W27051  11.905   7.583   3.529 -0.1013  0.3070 -0.1623
10918W        W27052   5.901   2.486  12.264 -0.0741 -0.0097 -0.1517
10919W        W27053   0.284  18.124   2.726 -0.0150  0.3351 -0.1167
10920W        W27054  13.807   9.827   2.803 -0.0268  0.2439 -0.0432
10921W        W27055   0.867   4.226   6.102 -0.4762  0.0156 -0.0706
10922W        W27056  14.394   3.196   2.894 -0.2601  0.0410 -0.0518
10923W        W27057  16.801   2.286   4.347 -0.1968  0.0502 -0.0470
10924W        W27058  15.742   4.212  10.423 -0.1870 -0.0783  0.4593
10925W        W27059  16.233  13.793   5.087  0.1817 -0.2960  0.0464
10926W        W27060  16.038   5.576   4.596 -0.2644  0.1506  0.3328
10927W        W27061  16.454  10.793   2.986 -0.0060  0.1151  0.2030
10928W        W27062   2.647  15.981  11.187 -0.2059 -0.0138  0.1248
10929W        W27063   4.458  14.635   4.767  0.4462  0.0222  0.0165
10930W        W27064   9.905   4.929  11.840  0.4643 -0.0982  0.0433
10931W        W27065  14.972   5.427   2.656 -0.1066  0.2609 -0.0257
10932W        W27066   8.552   0.013   0.417  0.0457 -0.3060  0.0855
10933W        W27067  16.859   8.524  13.719  0.1772 -0.4424 -0.0418
10934W        W27068   7.726   2.947   4.671 -0.1662  0.0122 -0.2142
10935W        W27069   1.314  11.922  15.320  0.3632 -0.2055 -0.1117
10936W        W27070  11.242  18.338   2.445 -0.3119 -0.0016 -0.1007
10937W        W27071   8.565   2.368   0.754  0.0005 -0.0041 -0.0337
10938W        W27072   6.165  14.249   0.926  0.2497 -0.0395  0.3013
10939W        W27073  17.604   7.444  13.043  0.0566  0.0019 -0.2335
10940W        W27074  15.368   5.530  15.562 -0.3474  0.0340  0.0120
10941W        W27075   8.393   1.218  15.512 -0.2947  0.1141  0.0371
10942W        W27076  11.542  17.913  11.471  0.0874  0.0174 -0.0799
10943W        W27077   4.764   1.444   0.936 -0.0814  0.0972 -0.0224
10944W        W27078  17.281  16.751  14.486 -0.0022  0.0747  0.3025
10945W        W27079   8.736  12.797  13.036 -0.1473 -0.0391  0.1810
10946W        W27080  13.628  12.649   1.469  0.4031 -0.2673  0.0697
10947W        W27081  13.145   4.081   1.629  0.0284  0.1280  0.0116
10948W        W27082  10.221  16.703  12.759  0.0868  0.2892  0.2321
10949W        W27083  17.093  15.441   4.053 -0.0472  0.1728 -0.1632
10950W        W27084   7.000   7.282  14.445 -0.1516  0.0869 -0.1349
10951W        W27085   8.252   5.471  15.503 -0.1291  0.1544 -0.0293
10952W        W27086   5.147   1.400   2.990  0.3074  0.1342 -0.0943
10953W        W27087   4.452  10.227  12.248 -0.2288 -0.0352  0.0798
10954W        W27088  11.864   3.831   4.562 -0.3398 -0.1523 -0.0199
10955W        W27089  13.706   0.242   4.098 -0.0034  0.3373  0.1266
10956W        W27090   5.572  12.047   0.977  0.0885 -0.2098 -0.2281
10957W        W27091  17.725  15.672   4.576  0.0281  0.1695  0.1841
10958W        W27092   0.749   0.461   3.248 -0.1358  0.1844  0.2065
10959W        W27093  12.064   1.522   1.580 -0.1123  0.1938  0.0175
10960W        W27094  18.567   4.367   2.676  0.0874  0.4036 -0.0763
10961W        W27095  11.912  14.048  11.822 -0.1264 -0.1787 -0.3915
10962W        W27096  11.463  14.808   1.265  0.0218 -0.4363  0.1426
10963W        W27097  12.717   9.904  13.612  0.0584  0.4792 -0.4281
10964W        W27098   7.000   5.634   2.434 -0.0031 -0.1792 -0.0291
10965W        W27099   3.058  17.546  11.754  0.0176 -0.1849 -0.0944
10966W        W27100   6.774  10.651   4.662 -0.1201 -0.2845 -0.0451
10967W        W27101   1.927   6.817   3.897  0.2941 -0.1200  0.0723
10968W        W27102   2.997  14.808  12.264 -0.3803  0.0508 -0.0436
10969W        W27103  13.758  13.894   5.594  0.1466  0.0185 -0.1734
10970W        W27104  13.992  12.160  13.076 -0.0303  0.0704 -0.2587
10971W        W27105   2.810   2.342  14.694  0.1403 -0.1201 -0.1614
10972W        W27106  14.803  12.746  14.258  0.1465  0.2718  0.2748
10973W        W27107   2.883   7.231   4.654  0.1599 -0.1683  0.0810
10974W        W27108   8.140  10.821  12.531  0.2425  0.0482  0.2321
10975W        W27109  10.504   6.054  13.769  0.0676 -0.1195 -0.0132
10976W        W27110   4.618   4.764  12.984 -0.0570  0.0100  0.0151
10977W        W27111  12.412   4.835  11.764 -0.1807 -0.1188  0.0644
10978W        W27112   1.770  14.480  13.185 -0.1255 -0.1214 -0.0033
10979W        W27113  12.660  14.224  14.395  0.1017 -0.0666 -0.1317
10980W        W27114  11.130  15.446   5.474  0.1706  0.1491 -0.3087
10981W        W27115  17.174  18.654   3.897  0.0047  0.2459 -0.0245
10982W        W27116   9.406   7.864   5.507  0.1805 -0.1093  0.3309
10983W        W27117   8.783  11.732   5.368  0.2189 -0.0828 -0.0076
10984W        W27118   8.668   9.413   4.096  0.0314  0.1323 -0.1756
10985W        W27119   3.505  12.307  11.425 -0.1907 -0.1799  0.1735
10986W        W27120   6.765  13.941   1.609 -0.2128  0.0814  0.2360
10987W        W27121   9.674   1.335  11.308  0.0726  0.1447 -0.1147
10988W        W27122   0.538   2.237   0.473  0.0011 -0.0319 -0.1685
10989W        W27123  10.058  11.401   1.811  0.2827  0.1249 -0.0523
10990W        W27124  13.451  17.795   2.866  0.1257 -0.0828 -0.0642
10991W        W27125   8.163  11.709   3.976 -0.0630  0.0831 -0.0511
10992W        W27126   9.257   8.099   3.825  0.0359  0.0156 -0.2736
10993W        W27127  16.618   5.988  15.062 -0.1061  0.0398 -0.1543
10994W        W27128  11.001   8.956   9.846  0.0998  0.0354  0.1145
10995W        W27129  13.686   7.602  10.524  0.3137  0.4120  0.0729
10996W        W27130  16.590   9.180  11.451 -0.0240  0.3299  0.1345
10997W        W27131  15.809   0.265   1.803 -0.2867  0.5210  0.2367
10998W        W27132   8.000  18.623  14.659  0.2659  0.0223 -0.0660
10999W        W27133   4.937   0.527   4.224  0.2748  0.3509 -0.4725
11000W        W27134   6.690   8.856   2.445  0.1506 -0.2371  0.1817
11001W        W27135   4.193   5.577  13.503  0.0434 -0.0109 -0.0752
11002W        W27136  16.062  15.155  12.066 -0.3155 -0.0284 -0.0538
11003W        W27137   0.364   0.445   1.844 -0.0805 -0.0177  0.0804
11004W        W27138  11.189   0.102  13.658  0.0533  0.3567 -0.0459
11005W        W27139   5.910   5.574  12.145  0.1451  0.1995  0.1481
11006W        W27140  10.829   0.874   3.063 -0.2684  0.0597  0.2011
11007W        W27141  17.444   6.028   4.582 -0.1246  0.0269 -0.0184
11008W        W27142   1.843  14.727   3.607 -0.1136  0.0083 -0.0571
11009W        W27143   2.069   7.468  14.934  0.3313 -0.0598 -0.0075
11010W        W27144  11.975  11.193   2.646 -0.1388  0.0949 -0.0328
11011W        W27145  11.668   0.130   2.575  0.0786  0.0313 -0.1607
11012W        W27146   9.845   4.537   0.106 -0.1600 -0.0793  0.2121
11013W        W27147  17.761  14.181   0.703 -0.0307  0.0342 -0.2538
11014W        W27148   2.025  13.861   0.966  0.0114 -0.0953 -0.0490
11015W        W27149   7.566  12.091  11.655 -0.5928  0.3795 -0.0273
11016W        W27150  10.862  16.830   0.261  0.1101 -0.1128  0.4554
11017W        W27151  13.117   7.998  15.270  0.0504 -0.0880 -0.1302
11018W        W27152   3.735  16.465   1.466 -0.1908 -0.1845  0.3110
11019W        W27153   3.975   5.490  12.825  0.1273  0.0733  0.3260
11020W        W27154  15.358   6.197   3.333 -0.0091 -0.4270 -0.2209
11021W        W27155  14.852  12.280   0.357  0.2351  0.1562 -0.1013
11022W        W27156  15.462   6.670   4.939  0.0393 -0.0052 -0.0904
11023W        W27157   0.188  14.405  13.788 -0.0072 -0.0977 -0.1622
11024W        W27158  14.995  13.338   0.864  0.1286 -0.0446 -0.0277
11025W        W27159   0.652   4.559  13.854 -0.1209  0.0296  0.2772
11026W        W27160  12.627   1.449   3.696 -0.0756  0.3962 -0.2289
11027W        W27161   6.593   0.190   2.428 -0.1468 -0.0867  0.2975
11028W        W27162   4.205   2.842   5.196 -0.1692 -0.1976 -0.0865
11029W        W27163  13.373  16.546  12.292  0.0167  0.0613  0.0786
11030W        W27164  12.805  16.762   1.658 -0.2109  0.4429 -0.1267
11031W        W27165  14.864   2.199   0.923  0.0384 -0.4342 -0.2405
11032W        W27166  18.407  15.868  12.510 -0.0620  0.0393 -0.0182
11033W        W27167   9.148  11.656  13.655  0.3359 -0.3030 -0.0537
11034W        W27168  14.152  17.597   1.276 -0.3106  0.1627  0.1671
11035W        W27169   2.212  17.971  13.506 -0.1210  0.0345  0.2465
11036W        W27170  15.828   7.091  12.126 -0.2492 -0.3190  0.2543
11037W        W27171  16.323  11.110   3.442  0.2217  0.1186  0.2079
11038W        W27172   4.747  17.805  11.481  0.3350 -0.0316 -0.1285
11039W        W27173   9.840  14.095   9.662 -0.3661 -0.0480  0.5026
11040W        W27174  14.706   1.575   9.933 -0.1857  0.0136 -0.1951
11041W        W27175   0.786  13.633   1.425  0.1426 -0.1217  0.1445
11042W        W27176  12.822  15.730  14.021 -0.0785  0.1791  0.1244
11043W        W27177   7.484   5.144  15.538 -0.1040 -0.0050 -0.1373
11044W        W27178   7.905   8.664  12.352 -0.0421 -0.2757  0.0976
11045W        W27179   4.110   4.915   0.029  0.0231 -0.1477 -0.2351
11046W        W27180   0.770  18.067   1.292  0.2085  0.0930 -0.1960
11047W        W27181   1.681   5.254  14.338  0.2194 -0.1358 -0.0922
11048W        W27182   6.510   4.987  15.489  0.1298 -0.1065  0.1677
11049W        W27183   3.963  18.521  12.344  0.0217  0.1888  0.0577
11050W        W27184   1.621  16.448   1.860 -0.2204 -0.0629  0.1525
11051W        W27185   0.632   1.588   0.708  0.1907  0.1336 -0.1621
11052W        W27186   2.040  15.269  11.152 -0.2702 -0.1433 -0.1239
11053W        W27187   3.099   6.733  13.936  0.0747 -0.1463  0.0209
11054W        W27188  18.415   5.967  14.720  0.0446 -0.1182  0.3779
11055W        W27189   3.099  15.556  15.215 -0.1825 -0.0796 -0.0046
11056W        W27190   8.580  10.005  12.830 -0.1042  0.0310 -0.1424
11057W        W27191  14.724  14.313  15.285 -0.3008 -0.0064 -0.2866
11058W        W27192   8.272   2.192  14.779  0.1118  0.1251  0.4228
11059W        W27193  15.872   8.230  14.294 -0.1784  0.3041  0.1744
11060W        W27194   7.886   0.601   2.860 -0.1340  0.2193  0.1252
11061W        W27195  10.375   3.146   3.556 -0.0450  0.0275  0.0242
11062W        W27196   6.043   5.794  10.368 -0.1505  0.0802 -0.0992
11063W        W27197   1.995   4.933   1.506 -0.3158 -0.0742  0.0094
11064W        W27198  12.407  13.204  12.229  0.3638 -0.1299  0.1096
11065W        W27199  16.118  16.090  11.340 -0.2680 -0.0942 -0.1374
11066W        W27200   7.494  16.996   3.514 -0.3355  0.1138 -0.1847
11067W        W27201   5.410  10.347  13.348 -0.0853  0.0180 -0.1767
11068W        W27202  18.244   9.814   1.230  0.0555 -0.2208  0.1609
11069W        W27203  15.987   3.282   4.336 -0.2469 -0.1063 -0.0855
11070W        W27204   7.765   3.533  11.784  0.3479  0.4078 -0.3359
11071W        W27205   6.274  12.150  11.449  0.2752 -0.3835 -0.1039
11072W        W27206   6.096   5.215   0.058 -0.2970 -0.1036 -0.1663
11073W        W27207  16.882  15.389  12.561  0.0721 -0.0167  0.1475
11074W        W27208   6.794   9.277   3.209  0.2647 -0.3372  0.2095
11075W        W27209  11.248  12.320   0.932  0.1076  0.1084 -0.0757
11076W        W27210  15.618   1.852   2.716  0.2227 -0.1083 -0.0400
11077W        W27211   8.759   8.662  12.652 -0.0557  0.5991 -0.0805
11078W        W27212   0.326   7.147   9.912  0.0515  0.0129  0.0994
11079W        W27213   8.862  17.883   4.648  0.1548 -0.1509 -0.0448
11080W        W27214   3.725  14.915  14.045  0.0755 -0.1725 -0.3177
11081W        W27215  10.704  10.559  13.799 -0.0509 -0.2029  0.0209
11082W        W27216   1.852   7.640   0.348  0.1982 -0.2200  0.0634
11083W        W27217   0.186   2.059   4.135  0.2160 -0.1352  0.1613
11084W        W27218  11.447   4.608   1.318  0.0073  0.0530  0.2015
11085W        W27219   9.502  15.659  10.857 -0.0801  0.0874  0.3357
11086W        W27220  11.537  17.975  14.480 -0.0019 -0.1217 -0.2420
11087W        W27221  10.234   6.860   5.358 -0.0140 -0.1342 -0.2039
11088W        W27222  12.456   5.115   5.851 -0.2182  0.1680 -0.2401
11089W        W27223   1.720  11.577  15.407  0.0239  0.3502  0.1319
11090W        W27224  10.801  16.908   3.985  0.0571 -0.2802 -0.1460
11091W        W27225   6.710   0.781  15.401  0.2646 -0.2157 -0.2101
11092W        W27226   9.708   3.507   2.917 -0.0381  0.1194 -0.0688
11093W        W27227  18.458   2.306  13.034 -0.3107  0.2434 -0.1610
11094W        W27228  12.233   7.352   2.543 -0.0198 -0.3028  0.0403
11095W        W27229   5.149  17.546   4.291 -0.0116  0.3541 -0.1003
11096W        W27230  18.414   6.729   2.221  0.0105 -0.0997 -0.0644
11097W        W27231  13.237  17.993  13.409 -0.2343  0.1405 -0.5607
11098W        W27232  12.975   9.831  13.177 -0.2106 -0.0525  0.2414
11099W        W27233   0.218   8.967   0.526  0.2472  0.5269 -0.0073
11100W        W27234  11.257   0.046  14.914 -0.1480 -0.3849 -0.1786
11101W        W27235   7.921  18.634   3.164  0.0924 -0.0344  0.1166
11102W        W27236   1.414  12.045  11.443 -0.1102 -0.1919  0.2975
11103W        W27237  10.007   7.000  12.985  0.2523  0.0132  0.0403
11104W        W27238   5.235  12.615  12.867  0.1224 -0.1268  0.0908
11105W        W27239   3.407  10.502  13.950  0.0670  0.0600  0.3400
11106W        W27240   2.805   4.273  10.757  0.1019 -0.5717 -0.0796
11107W        W27241   4.556   2.788   0.104  0.2344 -0.1284  0.3441
11108W        W27242  13.118   9.598  14.820  0.1337 -0.1382 -0.0299
11109W        W27243  17.923  10.607   4.452  0.4740  0.0732  0.0684
11110W        W27244  11.169   9.805   1.738  0.2132  0.2226  0.1395
11111W        W27245   8.188  16.532   4.167 -0.1125 -0.3000  0.0761
11112W        W27246   7.035  14.546   1.284 -0.0793 -0.0047 -0.1408
11113W        W27247  11.696  10.167   1.714  0.0519  0.0767 -0.1537
11114W        W27248  11.448   4.139  11.132  0.1292  0.1790  0.0400
11115W        W27249   1.407   7.610  12.425 -0.4470 -0.2981 -0.1548
11116W        W27250  13.233   1.056   5.147 -0.0368 -0.0157  0.0612
11117W        W27251  15.019  16.315   3.499  0.0026 -0.1846  0.1998
11118W        W27252   8.555  14.478  13.626 -0.1011 -0.0975  0.1931
11119W        W27253  13.808   0.751   4.014 -0.0688  0.0917  0.0557
11120W        W27254   5.602   3.296   1.967 -0.2148 -0.0844 -0.1388
11121W        W27255  10.050   8.251  15.373  0.0358 -0.0168 -0.1080
11122W        W27256  11.339   8.911   3.343 -0.1900  0.1490  0.0880
11123W        W27257   8.220   0.994   3.619  0.4038  0.1017 -0.0829
11124W        W27258  12.438  12.866  14.818  0.2536  0.1099 -0.3658
11125W        W27259   6.393  15.948  13.171 -0.4191  0.1497 -0.0657
11126W        W27260   2.251   9.277   2.171  0.1085  0.1908 -0.2227
11127W        W27261   9.735  13.034   0.463  0.3130  0.1027  0.1862
11128W        W27262   6.862  15.010  11.958 -0.2050  0.1632 -0.0634
11129W        W27263   4.411  14.612   3.106 -0.1546 -0.1800 -0.0762
11130W        W27264  10.088   5.851  12.955  0.1056 -0.0538  0.0073
11131W        W27265   9.503  16.245  15.114 -0.0877 -0.0138 -0.0385
11132W        W27266   2.142   2.226   0.325  0.0847 -0.0550  0.2784
11133W        W27267  12.199  18.038  13.813 -0.0477  0.0902  0.0706
11134W        W27268  16.159  18.292  13.833  0.1865 -0.0269 -0.5116
11135W        W27269   1.630   0.528  12.682 -0.0407 -0.2295 -0.1423
11136W        W27270   7.554   3.912  12.102  0.3325 -0.0251 -0.0353
11137W        W27271  13.818  17.028   4.016 -0.1124 -0.0744 -0.1858
11138W        W27272  18.362   3.673  10.751 -0.3621 -0.1431  0.2273
11139W        W27273   9.500   6.251   3.398 -0.0339  0.1117 -0.0823
11140W        W27274  10.585  17.010  13.565  0.2624 -0.1383 -0.2328
11141W        W27275  10.769   2.202  15.078  0.1771 -0.0122 -0.0317
11142W        W27276   4.845   5.691   3.507  0.2369 -0.0252  0.3218
11143W        W27277   4.140   9.404   3.224  0.1123  0.2470 -0.3222
11144W        W27278   9.155  12.452  13.768  0.2936 -0.1623 -0.0460
11145W        W27279   5.154   6.148   1.009 -0.2418 -0.2212  0.2726
11146W        W27280   8.523   1.026  12.015  0.1167  0.0243  0.2992
11147W        W27281  18.469   4.552   5.493  0.1268 -0.0087 -0.1250
11148W        W27282   8.061   3.900  11.946  0.1754 -0.2413  0.0767
11149W        W27283  12.095   3.578   1.290 -0.0883  0.1224 -0.1279
11150W        W27284  12.083  12.911  11.846  0.1501  0.1136 -0.0108
11151W        W27285   0.392  17.243   3.797 -0.2190 -0.2145 -0.0710
11152W        W27286  11.869  10.539  13.721 -0.1903  0.1683 -0.1842
11153W        W27287  17.154  11.078   5.590  0.1675  0.0936  0.0778
11154W        W27288   3.706   7.171   2.676  0.0708 -0.0344 -0.0297
11155W        W27289   1.517  12.389  11.891  0.2987 -0.0971 -0.2686
11156W        W27290   7.247  18.076   4.950  0.0122  0.2952  0.1490
11157W        W27291   4.692  17.391   4.490 -0.3450  0.1093 -0.0663
11158W        W27292   7.785  10.769  12.094  0.1593  0.0193 -0.1475
11159W        W27293   3.248  17.165   0.415 -0.2256 -0.2732 -0.1269
11160W        W27294   7.378  11.967   0.366  0.2167  0.0812 -0.0853
11161W        W27295  11.626  11.124   3.128  0.1199  0.1606 -0.1153
11162W        W27296   5.901  17.363  11.265 -0.2404  0.1104  0.2299
11163W        W27297  14.275   8.434   2.799 -0.1268 -0.0056 -0.0643
11164W        W27298   0.113   3.423   1.648  0.0733 -0.0947 -0.0773
11165W        W27299   7.242  12.878  10.542 -0.0434 -0.0247  0.0314
11166W        W27300   2.948   4.440   0.256  0.2321 -0.0034  0.1131
11167W        W27301  17.444   1.156  13.736  0.3534 -0.2611 -0.1074
11168W        W27302   1.225  10.737  14.243 -0.0272 -0.1408  0.0740
11169W        W27303  15.279  17.450   2.002  0.1784 -0.1760  0.3174
11170W        W27304   6.163  17.824  13.074  0.1479  0.4679  0.0488
11171W        W27305  17.818  11.196   3.547  0.1088 -0.0792 -0.0159
11172W        W27306   8.964   2.220  13.544 -0.1334  0.0848 -0.0156
11173W        W27307   0.360  10.354  12.242  0.2604  0.2484 -0.1413
11174W        W27308   9.658   4.758   4.313 -0.0903  0.1626  0.1096
11175W        W27309   6.421  15.891  12.026 -0.3763 -0.0411  0.2237
11176W        W27310  16.306   2.747   4.996 -0.1672 -0.3123 -0.1204
11177W        W27311  11.404  13.446  13.048 -0.1164  0.0539 -0.0095
11178W        W27312  11.509   2.382   5.038  0.0559  0.0985  0.2839
11179W        W27313  18.072   0.483   2.838 -0.1435 -0.2486  0.2376
11180W        W27314   1.143   4.670  14.770 -0.0745 -0.1197  0.1794
11181W        W27315   6.802  14.006   3.493 -0.4060  0.2803  0.3138
11182W        W27316  16.243   9.757  12.205  0.2721  0.1948 -0.0710
11183W        W27317  17.800  18.067   0.628 -0.0490  0.0569  0.4115
11184W        W27318  15.528   3.222  13.852 -0.1330 -0.2685 -0.0733
11185W        W27319   2.682   9.606   1.202  0.0606 -0.2188  0.1475
11186W        W27320  12.860  11.063   3.064  0.0381  0.2531  0.1805
11187W        W27321   7.918  11.471   0.839  0.2647 -0.0323  0.0089
11188W        W27322   4.553   0.337   2.160 -0.0509  0.0570  0.0830
11189W        W27323   1.102   6.716   2.498 -0.0472  0.0972 -0.0249
11190W        W27324  11.808  10.214   3.077 -0.0031  0.0190  0.0534
11191W        W27325   6.322   0.924   1.856  0.0689  0.0633 -0.0660
11192W        W27326  11.651   5.974   3.737  0.0150 -0.2615  0.2811
11193W        W27327   4.344   7.760  11.855  0.2919  0.0407 -0.2002
11194W        W27328  12.650   9.587  12.354 -0.1798 -0.2487 -0.1237
11195W        W27329   1.230   9.370   2.209  0.0544  0.2979  0.0418
11196W        W27330  11.904   6.047   2.449  0.0157 -0.1045  0.0209
11197W        W27331   3.565   0.958  10.975 -0.1949  0.0404 -0.2578
11198W        W27332   3.338  16.237   4.104  0.0117  0.1515 -0.3138
11199W        W27333   7.508   4.533   3.938 -0.1191  0.0541  0.2678
11200W        W27334   0.908   4.197  11.081  0.1059 -0.2439  0.2976
11201W        W27335   9.407  10.486   0.471 -0.0126 -0.1704 -0.0639
11202W        W27336  14.053   3.445  11.757  0.4215 -0.1253 -0.1413
11203W        W27337   4.792  12.075  13.589 -0.0848  0.0400  0.1196
11204W        W27338   3.871   9.489  12.787  0.0294  0.1963  0.0919
11205W        W27339   2.342  17.354   5.876 -0.0111 -0.3636  0.1090
11206W        W27340   3.653   0.344   3.470 -0.1244 -0.0248  0.1303
11207W        W27341  12.029  14.158   3.231 -0.0087  0.1310  0.1948
11208W        W27342  11.931   5.110  11.329  0.1355  0.3296 -0.2924
11209W        W27343   9.151  17.499   1.505  0.1733  0.0352  0.3034
11210W        W27344   8.896   3.205   2.171  0.0060  0.1253  0.0155
11211W        W27345   7.844   5.439  13.966 -0.2416  0.1247 -0.3217
11212W        W27346   6.589   5.845   2.739  0.0145 -0.2191 -0.3672
11213W        W27347  15.587   6.749   0.439  0.0262  0.1761  0.0005
11214W        W27348   4.145   4.053   3.488 -0.0446 -0.2065 -0.1158
11215W        W27349  16.242   6.961  12.362 -0.2619  0.0407  0.0914
11216W        W27350  16.399  18.550  13.467 -0.1716  0.1101 -0.1397
11217W        W27351   0.136  12.912   3.883  0.2478  0.2141 -0.1412
11218W        W27352   5.471  11.571   3.165 -0.0926 -0.3228 -0.0327
11219W        W27353   6.447  18.394   1.150 -0.0752 -0.0812 -0.0648
11220W        W27354  11.771  10.156  12.461  0.3537 -0.2789  0.1131
11221W        W27355   7.084   7.222   4.551 -0.0751  0.0433  0.1188
11222W        W27356   2.606   9.829  15.338  0.1578  0.0080 -0.0114
11223W        W27357   9.967   1.780  12.478  0.0845  0.2803 -0.1384
11224W        W27358   8.999  13.335   5.368 -0.1480 -0.0503 -0.2334
11225W        W27359  15.040  15.581  11.670 -0.1088 -0.4626 -0.0238
11226W        W27360  12.364   9.090   1.309  0.1916 -0.5534  0.0317
11227W        W27361  10.737   6.711  11.617  0.1498 -0.0758 -0.2206
11228W        W27362   4.294  14.950  14.060 -0.0307  0.4348  0.4817
11229W        W27363   2.823   9.300   0.367  0.1056  0.0905  0.4578
11230W        W27364   9.056   5.412   4.299  0.0880 -0.0488 -0.0207
11231W        W27365   4.677  12.199   5.149 -0.2170  0.1013 -0.2016
11232W        W27366  18.343   0.248   3.196 -0.1135  0.1189  0.1121
11233W        W27367  16.369  11.168  12.291 -0.1420 -0.1634 -0.3185
11234W        W27368   5.334  18.493   0.503 -0.2266  0.3277  0.2243
11235W        W27369  16.754  15.819   0.297 -0.2672 -0.4043  0.3276
11236W        W27370   1.665   3.426   4.701  0.1864  0.0431  0.0234
11237W        W27371   5.632   9.034  13.755 -0.3544 -0.0559  0.0077
11238W        W27372  12.520  14.155   1.515 -0.0053  0.2032  0.0879
11239W        W27373  10.751  15.290  13.542 -0.0354  0.4803 -0.0658
11240W        W27374   5.031   9.712   3.721  0.3716  0.3775  0.0485
11241W        W27375  10.975  17.133  12.562 -0.3634  0.0252  0.3356
11242W        W27376  11.630   6.607  14.681 -0.2421 -0.3022  0.0188
11243W        W27377   9.857  11.876   3.583 -0.1516  0.2048 -0.4258
11244W        W27378  14.591  18.318  15.347 -0.0591 -0.2587 -0.4301
11245W        W27379   5.630   4.627   4.548 -0.2510 -0.0838 -0.0019
11246W        W27380  14.706   8.667   4.784 -0.0491 -0.0193  0.0104
11247W        W27381   7.716  18.360   0.463 -0.0336  0.2309 -0.0480
11248W        W27382  10.581  18.123  11.833 -0.0874 -0.2550  0.2738
11249W        W27383   4.353   9.910  14.987 -0.0415 -0.4060  0.1145
11250W        W27384   5.962   1.138  15.285 -0.1214 -0.1488 -0.1257
11251W        W27385  15.622  11.153   2.777 -0.2128 -0.2650 -0.0197
11252W        W27386  16.862  10.203   3.891 -0.2254 -0.4107 -0.2728
11253W        W27387   5.147  14.145  15.204  0.6516  0.0815 -0.1744
11254W        W27388  14.876  12.652   1.850  0.1608  0.0951 -0.0316
11255W        W27389  13.773   6.720  11.790 -0.1081 -0.1455 -0.0886
11256W        W27390   6.160   5.679   0.262  0.0055  0.2121  0.2713
11257W        W27391   7.577   9.935   4.483  0.0173  0.0478  0.3265
11258W        W27392   0.418   2.920   4.160 -0.1376  0.5063 -0.1585
11259W        W27393  18.677  12.850  10.774  0.0078  0.1702  0.0527
11260W        W27394   8.087   3.160  15.132 -0.1190 -0.0431 -0.2677
11261W        W27395   3.317   3.726  14.229  0.0640  0.0001 -0.1775
11262W        W27396  18.375   3.496   3.272 -0.2169 -0.1165  0.0567
11263W        W27397   1.340  14.129  12.992 -0.2617 -0.0610  0.1806
11264W        W27398  15.059   6.079   0.477 -0.2745  0.1184 -0.0756
11265W        W27399   4.468  15.833   1.939 -0.1002  0.2157  0.0013
11266W        W27400  12.087  10.342  10.700 -0.2635 -0.5885 -0.0273
11267W        W27401   1.368   1.976  15.228 -0.0960  0.1430 -0.0907
11268W        W27402  16.280  12.559  12.505  0.0876  0.0746 -0.1346
11269W        W27403  16.512   2.578   4.592 -0.0774  0.1021  0.0963
11270W        W27404   1.418   2.890   2.532  0.1544  0.1239 -0.3911
11271W        W27405   5.230   4.294   4.783 -0.0647  0.0002 -0.3319
11272W        W27406   8.262   8.184  12.795 -0.1725  0.0051  0.3586
11273W        W27407  14.693   7.303   3.938  0.1381  0.1416  0.1978
11274W        W27408  13.375  13.522   3.324  0.2940 -0.0920  0.0517
11275W        W27409   6.145   3.860   0.915  0.3900  0.0482  0.0916
11276W        W27410   3.756  11.285   0.246  0.2783 -0.3923  0.3209
11277W        W27411  14.242   2.032   3.665 -0.0221 -0.0208 -0.2274
11278W        W27412  12.279  17.581  15.260 -0.0375  0.0500  0.4285
11279W        W27413  12.400   5.442   0.119 -0.1178  0.1516 -0.0906
11280W        W27414   9.641  11.650   5.645 -0.0014 -0.0017 -0.0125
11281W        W27415  15.939   0.506  11.247  0.1768  0.1526 -0.1140
11282W        W27416   0.278   4.544  14.293 -0.0878 -0.0729 -0.0830
11283W        W27417  17.485   2.512   2.325 -0.0466  0.0305  0.0179
11284W        W27418   7.631  13.902  12.701 -0.1554 -0.0888 -0.4714
11285W        W27419   4.887  16.365   0.831 -0.1463 -0.2852  0.3264
11286W        W27420   7.782   9.016   2.950  0.0642  0.0615 -0.1029
11287W        W27421   0.546   2.677   2.861 -0.0858 -0.2732 -0.1307
11288W        W27422  14.218  12.997  14.418 -0.0463 -0.2554  0.1342
11289W        W27423  17.710   2.340   4.844  0.1422  0.2824  0.1675
11290W        W27424   4.813   2.512   3.520 -0.1281  0.0371 -0.1481
11291W        W27425  16.092   3.309  13.086  0.0045  0.2170 -0.0375
11292W        W27426  10.551   8.659   2.252  0.0289 -0.0507  0.1931
11293W        W27427  17.531   0.470  15.340 -0.0809 -0.2911  0.1659
11294W        W27428  17.764   0.345   0.617 -0.2454 -0.1429  0.2446
11295W        W27429  11.616  16.011  13.591  0.2505  0.0077  0.1041
11296W        W27430  12.838   2.212   3.160  0.2439  0.0167 -0.3422
11297W        W27431  10.906  17.944   3.148 -0.0871 -0.2440  0.0500
11298W        W27432   7.509  17.610   1.072 -0.2425  0.1372 -0.5419
11299W        W27433   3.637   7.661  14.096 -0.1292  0.1137 -0.1411
11300W        W27434  10.039   9.756  15.267  0.1894 -0.1545  0.4441
11301W        W27435   5.807  11.575   4.045 -0.0025  0.2076  0.1795
11302W        W27436   7.695  18.568   0.004 -0.0850  0.1419  0.2028
11303W        W27437   1.828  11.965  12.807  0.3633 -0.1909  0.0305
11304W        W27438   3.612   3.083   9.850 -0.1236  0.2113 -0.0204
11305W        W27439  16.100   8.869   4.837 -0.4092  0.0464 -0.0403
11306W        W27440   3.111   3.867  15.114  0.2071  0.1990  0.2823
11307W        W27441   3.296  17.247  12.605  0.0315  0.1087 -0.1427
11308W        W27442   6.073  17.785   2.657  0.2542 -0.1469 -0.0104
11309W        W27443  14.377   8.364   5.031  0.0716 -0.2308 -0.1906
11310W        W27444  14.243  11.863  11.971  0.2780 -0.1217 -0.0556
11311W        W27445   7.643  10.420   4.578  0.5172 -0.1429  0.2744
11312W        W27446  18.269  13.776   3.778  0.0373 -0.0144  0.3222
11313W        W27447   2.775  18.564   1.341 -0.3165  0.1192 -0.2225
11314W        W27448   8.643  18.665  13.764 -0.1722  0.4482  0.0840
11315W        W27449   1.143   2.144  13.404  0.1610  0.0552 -0.4311
11316W        W27450  15.389  14.059   5.614 -0.0432  0.2502  0.0463
11317W        W27451   1.002   7.667  12.804  0.1292  0.0700  0.1690
11318W        W27452   4.785  18.214   2.707  0.2792  0.1208  0.0337
11319W        W27453  17.387   2.634   0.504 -0.0815 -0.0136  0.0714
11320W        W27454  14.968  11.421  12.598  0.1268 -0.0057  0.0080
11321W        W27455   3.075   0.748   3.837 -0.1085  0.2761  0.0151
11322W        W27456  10.726  18.720   4.243  0.0168 -0.2344  0.2151
11323W        W27457  16.619   2.004   3.977  0.0327 -0.0638 -0.1946
11324W        W27458  11.899   0.714   1.144 -0.2881 -0.1743 -0.1469
11325W        W27459  16.853  15.584  11.240  0.0326 -0.1982 -0.0387
11326W        W27460  12.874  18.532   4.108  0.0626 -0.2228 -0.3335
11327W        W27461  17.413  13.283   0.351 -0.1586  0.0120  0.4484
11328W        W27462   2.628  13.262  12.090  0.0033  0.1163 -0.0867
11329W        W27463  15.289  18.618   2.333 -0.0786 -0.2740  0.1969
11330W        W27464   6.970   2.461   4.542 -0.2090  0.2959 -0.0748
11331W        W27465   3.964   8.055  14.337  0.1922  0.2554 -0.0532
11332W        W27466   9.259  18.530   1.158 -0.1370  0.2481 -0.1256
11333W        W27467  16.800   3.681   0.177  0.2720  0.3036 -0.1392
11334W        W27468   6.908  10.237  14.359  0.0549 -0.1940 -0.0260
11335W        W27469   4.120  12.049   1.685  0.0002  0.1743  0.0824
11336W        W27470   6.582  14.849   2.115 -0.0218  0.1400  0.0370
11337W        W27471   2.938  13.808   0.715  0.1226 -0.5212 -0.2477
11338W        W27472   8.161  15.660  14.159  0.1659  0.1015  0.0485
11339W        W27473  11.771  18.700   4.045  0.1286 -0.0016  0.0023
11340W        W27474  13.383  10.031   0.869 -0.1103 -0.2454 -0.2592
11341W        W27475   9.450   4.550  12.250  0.2431  0.2537  0.0597
11342W        W27476  15.099   9.034   4.996 -0.1546  0.5062  0.1357
11343W        W27477  15.285   7.676   1.965  0.0145  0.0111  0.0778
11344W        W27478   8.053  16.746   1.588  0.1569 -0.1045 -0.1862
11345W        W27479  11.591   0.363   0.825  0.3129 -0.1744  0.0198
11346W        W27480   3.844  10.520   5.220  0.0701  0.0920  0.1404
11347W        W27481  12.625   1.402  12.671 -0.0173 -0.3972 -0.0212
11348W        W27482   7.006  12.466  10.796 -0.1694  0.3313 -0.4488
11349W        W27483  12.939  12.492  14.508 -0.0144  0.2820  0.1114
11350W        W27484  12.432   5.961   4.106  0.0553 -0.0893  0.1977
11351W        W27485   1.036  17.442   1.132  0.0031  0.0471 -0.1172
11352W        W27486  14.083  18.496   4.371  0.0171 -0.0920  0.1776
11353W        W27487   3.190   9.597   0.016  0.2778 -0.0776 -0.2351
11354W        W27488   3.112  18.556  15.038  0.0557  0.1999  0.0088
11355W        W27489   8.443   2.516   1.964  0.1660 -0.4067 -0.1473
11356W        W27490   4.243  13.480   1.437 -0.0471  0.2716 -0.0763
11357W        W27491   1.326  17.742  13.732  0.0067  0.1101  0.0570
11358W        W27492   8.318  16.892  11.058  0.1711  0.4301  0.1170
11359W        W27493  16.141   3.085  15.175 -0.1125  0.1499 -0.1335
11360W        W27494   9.043   5.361   5.201  0.1882 -0.1455  0.0534
11361W        W27495   7.784  14.330   3.162 -0.1329  0.1224  0.1118
11362W        W27496  17.348   0.707  14.985  0.0745 -0.1611 -0.4215
11363W        W27497  12.326   7.739   1.304 -0.2514 -0.0374  0.3003
11364W        W27498   1.404  11.101  12.384  0.3889  0.1266 -0.1133
11365W        W27499   5.863   4.434  11.847  0.1273  0.0910 -0.0556
11366W        W27500  12.107   7.444   3.031 -0.2974  0.2762  0.1892
11367W        W27501   3.973   6.802   0.441 -0.2579  0.0159 -0.0251
11368W        W27502  15.535   8.519  11.792  0.1850  0.3106 -0.0684
11369W        W27503   4.809  15.138   3.816  0.0148  0.0056 -0.1660
11370W        W27504  18.418  11.908  15.166  0.2259 -0.2230 -0.0828
11371W        W27505  18.060   5.126  12.845  0.1124  0.2961  0.0766
11372W        W27506   9.375  10.893  13.422 -0.0721  0.2632  0.1696
11373W        W27507   5.520   0.200  10.856 -0.0622 -0.0104 -0.0476
11374W        W27508  15.318  16.327  10.651  0.0580  0.1054 -0.0048
11375W        W27509   2.091  16.508  14.120 -0.0918  0.0181 -0.0688
11376W        W27510  17.682   7.774   4.493 -0.0230 -0.0483 -0.0399
11377W        W27511   3.353   6.142   5.445 -0.1337  0.0381 -0.2331
11378W        W27512   6.698  15.682   1.063  0.2472 -0.0232 -0.1945
11379W        W27513   6.685   8.577  10.478  0.1146  0.0560 -0.0720
11380W        W27514   0.401   4.667   1.915 -0.4637 -0.0398  0.0315
11381W        W27515   1.214   8.794   4.860 -0.2578  0.1230  0.2949
11382W        W27516   9.207   9.741  14.995 -0.2386 -0.0420  0.0035
11383W        W27517  17.049  10.287  13.776  0.0454 -0.1321 -0.4145
11384W        W27518   7.091  10.299   2.933  0.0670 -0.1433 -0.2003
11385W        W27519   2.092  16.019   2.281  0.1660  0.0854  0.2495
11386W        W27520  16.681   5.719   5.642  0.1246  0.0477 -0.0801
11387W        W27521   6.130  14.856   0.193 -0.2963  0.0583  0.3122
11388W        W27522   8.368   1.534   0.707  0.0500  0.1503 -0.0773
11389W        W27523  13.213   0.111   4.244  0.1313  0.0185  0.0137
11390W        W27524  17.212  11.308  11.304 -0.3681  0.1744  0.5066
11391W        W27525  10.453  18.026  12.741 -0.1945  0.1483  0.1090
11392W        W27526   9.982  13.542   1.480  0.4633  0.0132 -0.2840
11393W        W27527  17.923  18.435   1.465  0.1978 -0.5445 -0.0495
11394W        W27528   3.731   7.264   0.226  0.1885  0.0994  0.0281
11395W        W27529   3.061   5.048   2.368  0.2122  0.1573  0.1054
11396W        W27530   9.307  11.643   0.780 -0.0732  0.0561 -0.1921
11397W        W27531  16.596  14.287  11.305 -0.1904 -0.0870  0.1932
11398W        W27532   5.132   5.548  13.068 -0.1845  0.1675  0.0971
11399W        W27533  13.827   3.145  14.454 -0.4767  0.0911 -0.0983
11400W        W27534   4.625   2.909   1.812 -0.0853  0.4142 -0.1452
11401W        W27535  16.431   7.387  14.425  0.1716 -0.1526  0.1521
11402W        W27536   8.040   1.806  15.129 -0.0102  0.0943  0.1369
11403W        W27537   5.828   1.739  14.999 -0.1484  0.0812 -0.0921
11404W        W27538  11.178   4.225   1.628  0.0150  0.1367  0.0195
11405W        W27539   5.473   4.244   4.264 -0.1433  0.1625  0.0405
11406W        W27540   2.479  14.791  12.253  0.1439  0.0064 -0.0894
11407W        W27541   0.562  13.828  12.817  0.0501  0.1841  0.1727
11408W        W27542   1.312  10.110   5.272  0.2010 -0.0605  0.3141
11409W        W27543  10.030  12.409  10.811  0.0119 -0.1646  0.2179
11410W        W27544  16.662   5.660   2.648 -0.0791 -0.4997 -0.0644
11411W        W27545  17.445  16.300   3.128  0.1227 -0.1467 -0.3539
11412W        W27546  14.030  14.882  15.326 -0.0798  0.1616  0.0641
11413W        W27547   9.750   7.981  12.800  0.0024 -0.1269 -0.0182
11414W        W27548   4.515  15.389  12.594 -0.2036 -0.1706 -0.0547
11415W        W27549   9.102   4.317   2.238 -0.1806 -0.2329 -0.3361
11416W        W27550   6.081   7.801   0.934  0.1814 -0.0303  0.1118
11417W        W27551  10.119   8.330   3.173  0.0554 -0.0808 -0.0196
11418W        W27552  13.642  18.728   2.040  0.0306  0.1035 -0.1222
11419W        W27553  17.148  14.072  12.959  0.2520  0.0686 -0.3506
11420W        W27554   1.055   5.294   1.970  0.0691 -0.1035 -0.1641
11421W        W27555   8.323  12.174  14.089  0.0057 -0.0458  0.0611
11422W        W27556   1.366   9.371  11.138  0.0320  0.2525  0.2347
11423W        W27557   0.572   5.709   5.386  0.0012  0.1056 -0.1445
11424W        W27558  12.896  13.735   3.401 -0.0443  0.1533  0.3242
11425W        W27559   7.550   0.456  11.514  0.1968  0.2566 -0.1649
11426W        W27560   0.524   7.612  13.487  0.1461 -0.0397 -0.1503
11427W        W27561   2.849   7.611   0.361 -0.0917 -0.0197  0.2101
11428W        W27562   4.724   5.275  13.101 -0.1179  0.2205  0.0397
11429W        W27563  17.120  16.995   3.810 -0.1033 -0.0309 -0.2470
11430W        W27564  18.296   2.735  11.212 -0.0136  0.0684  0.1208
11431W        W27565   9.826   1.987   1.483 -0.0916 -0.0270  0.0310
11432W        W27566   4.990  13.530  14.416  0.1266  0.0691 -0.0090
11433W        W27567   8.204  16.361   2.512 -0.0008 -0.1817  0.1513
11434W        W27568   8.801  14.235  14.003 -0.0470  0.1564 -0.1478
11435W        W27569  14.470   8.278  13.624  0.3432  0.0965 -0.0751
11436W        W27570   5.710  18.201  11.764  0.0093 -0.1547  0.1996
11437W        W27571  18.211  16.482   0.926 -0.0670 -0.0903  0.1901
11438W        W27572   6.480   8.877   3.451  0.2780 -0.1294 -0.1493
11439W        W27573  14.305   0.547  15.506  0.0437 -0.3323  0.1767
11440W        W27574  17.098  18.137  11.105 -0.0163 -0.0348  0.0689
11441W        W27575   3.387   7.551  12.957 -0.0598 -0.0931 -0.0464
11442W        W27576   2.096   5.282   1.153  0.3293  0.3561 -0.1606
11443W        W27577   8.381  15.974   0.831 -0.1544 -0.1303  0.2402
11444W        W27578   1.781   9.176   3.148  0.1735  0.1968  0.0061
11445W        W27579   5.716  18.117   2.892 -0.0850  0.1974  0.2371
11446W        W27580   5.528  15.552  13.529 -0.0921  0.0924  0.2468
11447W        W27581   3.762  11.783   4.366  0.4004  0.0911 -0.1613
11448W        W27582  12.680  16.339   4.939 -0.0383 -0.1733 -0.5246
11449W        W27583   1.361  10.146  13.946 -0.1935  0.0520  0.3067
11450W        W27584  16.865  10.675   0.482 -0.2173  0.0047 -0.1354
11451W        W27585   8.223   3.543   0.502 -0.0020  0.1669  0.1786
11452W        W27586   2.357   7.099  13.980  0.0798  0.1077  0.1622
11453W        W27587   4.996  12.980  10.553  0.1995 -0.0547  0.0850
11454W        W27588   6.750  14.036   4.227  0.3509 -0.2870 -0.0250
11455W        W27589   3.689   8.281  12.466 -0.2972 -0.1715  0.1948
11456W        W27590  18.189  17.185   2.421 -0.1782  0.2951 -0.1515
11457W        W27591  13.495   9.005  13.355 -0.0743 -0.0922  0.1410
11458W        W27592   3.431   0.260  12.820 -0.3417  0.3113 -0.0956
11459W        W27593   3.112   1.863  11.066  0.0008 -0.1552  0.0304
11460W        W27594   6.298   6.801   0.475  0.4159 -0.0454  0.2683
11461W        W27595  12.826   9.703   2.723 -0.0772 -0.0086  0.1166
11462W        W27596   8.663   1.301  10.212  0.1151 -0.1693 -0.0780
11463W        W27597  17.096  18.277   5.919 -0.0399 -0.1036 -0.0228
11464W        W27598   9.240  13.503  12.761 -0.0728 -0.1705 -0.2967
11465W        W27599  10.073   3.618  15.479 -0.0409  0.1048 -0.1374
11466W        W27600  16.333   7.099  11.859  0.0842 -0.1622  0.0880
11467W        W27601  17.499   0.523  14.308 -0.0183  0.0446 -0.1311
11468W        W27602   3.979   4.860   5.155 -0.1404  0.0114  0.1610
11469W        W27603   4.271   8.728   2.660  0.1530  0.0860 -0.1769
11470W        W27604   5.957  11.721  11.678  0.3628  0.1517 -0.2046
11471W        W27605   3.039  16.442  10.602 -0.0077  0.0209  0.2039
11472W        W27606   9.348  10.631  12.850 -0.0264 -0.1320 -0.1125
11473W        W27607  10.670  14.444   3.021 -0.2156  0.1949  0.0695
11474W        W27608  18.585   6.465   4.876  0.1819  0.0097  0.1064
11475W        W27609   1.461   9.101   1.756 -0.0074  0.1031 -0.0005
11476W        W27610   1.402   6.048   2.737  0.0741  0.3067 -0.1943
11477W        W27611   5.465  18.459   3.215 -0.1957  0.1806  0.1638
11478W        W27612   6.171   9.952  12.911  0.1167 -0.2896  0.1125
11479W        W27613  12.990   0.746   2.966 -0.0677  0.2988 -0.2851
11480W        W27614   0.285   0.089  15.179 -0.0556 -0.1467 -0.3958
11481W        W27615   1.428   0.198   0.997 -0.3616  0.0539 -0.1155
11482W        W27616  15.461  12.463  14.881  0.0869  0.2758 -0.0341
11483W        W27617  16.458  15.546  14.427  0.2686  0.2235  0.1099
11484W        W27618   0.356   6.307   4.257 -0.1076  0.1127  0.0941
11485W        W27619  12.232   8.445   4.653 -0.3698  0.3049 -0.2183
11486W        W27620   5.093  13.917  11.431 -0.0147  0.3177  0.3407
11487W        W27621   3.634   4.701  12.647  0.0719  0.0179  0.0933
11488W        W27622  12.336   0.049   0.429  0.1832  0.2556  0.0326
11489W        W27623  18.137   2.322   1.294  0.1608  0.1340  0.1434
11490W        W27624   1.899  14.960  12.394 -0.1961 -0.1020 -0.0870
11491W        W27625   2.334  13.066   5.156  0.0231  0.0300 -0.1142
11492W        W27626   5.218  12.889   3.555 -0.1112  0.0122 -0.1844
11493W        W27627   2.267  10.846  14.512 -0.4253 -0.0197  0.0523
11494W        W27628   3.743  13.027  15.224  0.1907 -0.2023 -0.1644
11495W        W27629   0.683   6.599  12.675 -0.0529 -0.0400 -0.0647
11496W        W27630  10.469  12.420  11.648  0.0442 -0.1316  0.2538
11497W        W27631  11.974  17.574  13.699 -0.4504 -0.0934  0.0073
11498W        W27632   5.899   2.941   2.211  0.0166  0.2070  0.2169
11499W        W27633  11.890   4.340   2.231 -0.1635 -0.0749  0.2523
11500W        W27634   1.205  16.431   4.868  0.2725  0.0531  0.1224
11501W        W27635  11.704   1.060   4.086 -0.2597 -0.0861  0.0588
11502W        W27636   8.369   8.457   1.961  0.0087 -0.1421 -0.0520
11503W        W27637   9.622   0.555  12.786 -0.2146  0.2091  0.0137
11504W        W27638   6.928  11.500  13.784  0.3056  0.0304  0.3312
11505W        W27639   1.630   8.467  12.544 -0.0297  0.2141  0.0090
11506W        W27640   5.443  17.342   0.841 -0.1809  0.1049  0.2253
11507W        W27641   8.657   9.545  13.060 -0.0031  0.1237 -0.0962
11508W        W27642   8.131  16.477  14.736  0.1012 -0.2347  0.2064
11509W        W27643  14.767   0.225  10.836 -0.0214 -0.0672  0.0380
11510W        W27644   8.314   1.311  12.535 -0.1675 -0.3038  0.2925
11511W        W27645  10.035  17.393  14.755 -0.4970  0.1656 -0.0205
11512W        W27646  17.695  14.561   3.589 -0.0749 -0.0727 -0.1145
11513W        W27647   4.222  16.356   3.869  0.1482 -0.1814 -0.0090
11514W        W27648  11.584   1.630   3.059  0.2312 -0.1004  0.0425
11515W        W27649   4.558   0.599  14.935  0.0535  0.4697 -0.2781
11516W        W27650   1.052  17.506  15.436 -0.0020  0.1355  0.1819
11517W        W27651  12.832  17.845  12.244 -0.1077  0.1459 -0.0762
11518W        W27652   5.939  16.046  10.824  0.1187 -0.4449 -0.0893
11519W        W27653  15.122  17.029  11.028 -0.0883 -0.1312 -0.5254
11520W        W27654  11.580  14.869   4.285  0.0965  0.3103  0.0051
11521W        W27655  12.638   1.790  13.518  0.2258  0.0213  0.2551
11522W        W27656   9.593  17.086  10.958  0.0996 -0.0309  0.2687
11523W        W27657   1.356   6.111   0.729 -0.3888 -0.3632  0.2067
11524W        W27658  12.893  11.541  14.621 -0.0577 -0.2169 -0.1148
11525W        W27659  17.872   5.058   3.338 -0.0335  0.0288 -0.1102
11526W        W27660   2.418   1.341   3.365  0.0033  0.0102  0.0829
11527W        W27661   5.230   9.640   4.609  0.1499 -0.0410 -0.0990
11528W        W27662   0.375   0.685   2.956  0.0274 -0.0246  0.1504
11529W        W27663   0.470   0.352   3.736 -0.0589 -0.0724  0.1241
11530W        W27664  11.407   7.859   4.820 -0.2076 -0.2762 -0.0959
11531W        W27665   8.007   1.188   0.680  0.1386 -0.0329 -0.1148
11532W        W27666  10.278   4.692  14.330 -0.1710  0.0284  0.2430
11533W        W27667  11.608  16.985  11.364 -0.0980 -0.0696 -0.1406
11534W        W27668   1.642  13.869  10.108 -0.3343 -0.4192 -0.1250
11535W        W27669  10.824   9.421   9.866  0.0258 -0.2246  0.1550
11536W        W27670   5.784  15.830   4.434  0.2284 -0.1406 -0.0204
11537W        W27671  17.822  17.020  14.869 -0.1558  0.0272 -0.0067
11538W        W27672  10.754  15.129   0.195 -0.1038 -0.0658 -0.0525
11539W        W27673   0.088  14.264   1.562 -0.4168  0.0582 -0.2008
11540W        W27674   4.067  17.940  11.506  0.0517 -0.0498 -0.0759
11541W        W27675   8.055   7.014   6.073 -0.0230  0.2812  0.1147
11542W        W27676   6.158   9.012  12.492  0.3577 -0.2530  0.1010
11543W        W27677   7.218   5.577  14.728  0.1531  0.2762 -0.0679
11544W        W27678   0.584   5.239  12.090  0.2016 -0.1170  0.0360
11545W        W27679   7.652   8.850   0.384  0.2028  0.2230 -0.3449
11546W        W27680  10.047  10.461  10.893 -0.0441 -0.1506 -0.1512
11547W        W27681  10.973   3.770   1.381  0.0932  0.3307 -0.0411
11548W        W27682   7.914   3.595  10.820 -0.0450  0.1413 -0.1287
11549W        W27683  14.623   0.388   5.571  0.3316  0.3203 -0.1139
11550W        W27684   7.015   5.113  11.338  0.0736 -0.3990 -0.1054
11551W        W27685   3.525   1.809   2.519 -0.0119 -0.0495 -0.1862
11552W        W27686   2.551   9.287   0.793 -0.0133 -0.0327  0.0542
11553W        W27687  14.632   3.088   3.345  0.1206  0.0180  0.1253
11554W        W27688  13.145  14.114  10.499 -0.1127 -0.3198  0.3899
11555W        W27689   1.542  13.632  13.561  0.0463  0.2694  0.0068
11556W        W27690   9.313   8.166  14.719 -0.2252 -0.1087  0.1710
11557W        W27691   8.118  18.670   2.132 -0.0281 -0.4168 -0.1626
11558W        W27692   1.587  18.276   3.159 -0.2303 -0.1783  0.3329
11559W        W27693   3.305   8.034  12.665  0.2375 -0.1653 -0.0893
11560W        W27694  17.502  12.882  12.986 -0.0672 -0.0559 -0.3767
11561W        W27695  11.169   9.143   4.814 -0.0065  0.0564  0.1998
11562W        W27696   5.475  12.980   9.304  0.0302  0.2492 -0.0383
11563W        W27697   7.487   9.739   0.609 -0.0780 -0.0742  0.1413
11564W        W27698  17.242   7.933   0.326 -0.1150  0.2456  0.6252
11565W        W27699  11.173  17.880  11.025  0.1601 -0.0291 -0.1522
11566W        W27700  15.863   5.675   3.090  0.0092 -0.1066  0.3120
11567W        W27701   5.689  11.620   1.664  0.1487 -0.1039 -0.0096
11568W        W27702  10.630   1.569  13.258 -0.2415  0.0899  0.1481
11569W        W27703   7.074   9.372   0.607 -0.1639 -0.2446  0.2378
11570W        W27704  15.625  12.259  13.948 -0.2426  0.0677 -0.1863
11571W        W27705  10.468  16.155   4.466 -0.1431 -0.3639  0.0138
11572W        W27706  10.166   2.937   1.411 -0.1587 -0.0427 -0.2755
11573W        W27707  16.265   0.853  10.995  0.0602  0.0717  0.2544
11574W        W27708  13.539  13.378  12.871 -0.0677  0.0966 -0.3287
11575W        W27709  14.803   6.624  12.635  0.2069  0.0014  0.0735
11576W        W27710   0.185   6.776  15.141  0.1575 -0.1576 -0.0266
11577W        W27711  11.756   1.896   1.772  0.0613 -0.1993  0.1380
11578W        W27712   0.104   1.212   2.148  0.2806 -0.3019  0.1818
11579W        W27713  10.783  15.953   2.393  0.0697 -0.0509 -0.1704
11580W        W27714  15.396   5.396  13.707 -0.0043 -0.1061 -0.0474
11581W        W27715   0.591   4.086  15.513  0.0721  0.0195 -0.0872
11582W        W27716   9.970   6.836   4.888 -0.0023 -0.2791 -0.0707
11583W        W27717   7.015   1.213   4.433  0.0702  0.1746  0.3124
11584W        W27718  12.330   7.620  13.126  0.1355  0.2961 -0.1451
11585W        W27719  15.524  12.543  10.736  0.0270 -0.0418  0.1797
11586W        W27720   7.165   0.986   4.905 -0.0330 -0.1186  0.2467
11587W        W27721   3.808  15.334  13.326 -0.1306  0.0136  0.0485
11588W        W27722  17.859   6.532  10.575  0.0387  0.1638  0.2584
11589W        W27723  14.350   4.239   0.924 -0.5018 -0.0351  0.1016
11590W        W27724   7.870   6.200   6.131  0.0602 -0.1251 -0.2436
11591W        W27725   4.540  16.937   1.527  0.2832 -0.0605 -0.1953
11592W        W27726   3.792   8.970  11.868 -0.0131  0.1594 -0.2386
11593W        W27727  16.960  18.113   1.649 -0.0712  0.3220  0.0214
11594W        W27728  17.705  16.061   3.822  0.1423 -0.1666  0.0542
11595W        W27729  10.815   6.129   1.432  0.1238  0.1517  0.3518
11596W        W27730   2.118  15.130   4.596 -0.1010 -0.0511 -0.0201
11597W        W27731   3.249   6.092  15.231  0.1723  0.1368 -0.1323
11598W        W27732  15.405  15.120  15.461  0.0533 -0.1316  0.2853
11599W        W27733   1.977  17.524   3.778  0.2037  0.0908  0.0000
11600W        W27734   8.719   3.275   0.352 -0.0511 -0.0744 -0.1127
11601W        W27735   6.030  14.017   0.099  0.1515 -0.2852  0.1917
11602W        W27736   5.444   6.586   3.330  0.1297  0.0551  0.2835
11603W        W27737  10.078   0.073   0.222  0.0028 -0.2292 -0.0164
11604W        W27738  13.739  10.274  14.769  0.0054  0.2266 -0.0200
11605W        W27739   2.330   7.841  12.685  0.5515  0.1631  0.0367
11606W        W27740   4.883   5.285   2.100 -0.2459  0.1423  0.2072
11607W        W27741  15.965   0.290   1.246  0.0757 -0.1967  0.0972
11608W        W27742  18.231  14.069  12.656 -0.5020  0.0229  0.0404
11609W        W27743   5.712  16.603   0.894  0.0373 -0.0925 -0.0563
11610W        W27744  15.202   6.698   5.369  0.0267 -0.0252  0.2521
11611W        W27745  14.631   3.737   5.256  0.0651 -0.1914  0.1316
11612W        W27746  11.715   3.326   2.025 -0.0332 -0.1847 -0.0008
11613W        W27747   8.970  16.593   0.739  0.1883  0.2374  0.0390
11614W        W27748   2.467   5.955   0.717  0.1012 -0.0064  0.0207
11615W        W27749  15.552   6.642  12.198  0.0686  0.3202  0.0918
11616W        W27750  13.375  17.698   1.348  0.1707  0.1391 -0.1502
11617W        W27751  12.732  14.451   1.857 -0.0720  0.0452 -0.3985
11618W        W27752  15.308   7.396  13.807 -0.1671 -0.3224 -0.0296
11619W        W27753   4.162   2.875  12.149  0.1930 -0.1584  0.1038
11620W        W27754   5.413   9.315   3.767  0.0247 -0.0763  0.0112
11621W        W27755   7.926  14.406  13.002 -0.1479 -0.1006  0.0166
11622W        W27756   6.788   1.005   0.241  0.1544 -0.1168  0.1061
11623W        W27757  15.038  16.272  14.409  0.0077  0.0644 -0.0424
11624W        W27758   5.526  16.291  11.022  0.2841 -0.0698 -0.1162
11625W        W27759  10.927   3.793   1.911 -0.0241  0.1801  0.0789
11626W        W27760   2.343   5.483   2.493  0.1116  0.0741  0.2440
11627W        W27761   9.364   8.421  14.308 -0.2052 -0.0673  0.2970
11628W        W27762   8.160   1.873  12.466  0.1678 -0.0789  0.0685
11629W        W27763   7.484  18.554  12.327  0.2174 -0.0935 -0.0820
11630W        W27764   2.460   5.990   3.774 -0.0138 -0.0476 -0.3580
11631W        W27765  17.964  17.741  11.353  0.0044 -0.0898 -0.0642
11632W        W27766  12.047   0.472   5.095 -0.0083 -0.3093 -0.4170
11633W        W27767   1.272   9.803  11.336  0.3074 -0.0466  0.0706
11634W        W27768   2.316  11.706  11.769  0.2223 -0.1867  0.2989
11635W        W27769   7.710  18.166   4.771 -0.0171  0.1241  0.2956
11636W        W27770   6.614   8.880  11.403  0.2150 -0.2679  0.1397
11637W        W27771   2.082   4.495  13.482 -0.0706  0.0788  0.0286
11638W        W27772  11.044  11.915  14.953  0.1515 -0.2048  0.1696
11639W        W27773   2.584  14.119   3.056 -0.0733  0.0369  0.1645
11640W        W27774   9.402   8.579   3.610  0.0679  0.4385 -0.4571
11641W        W27775   9.763   8.833  10.725  0.1206 -0.2757 -0.3168
11642W        W27776   6.157  16.497  11.535 -0.1183  0.3515 -0.1789
11643W        W27777   3.613  11.364  13.283  0.1705  0.3941 -0.1188
11644W        W27778   6.681  11.194   3.538  0.0970 -0.3350  0.0458
11645W        W27779   8.638  13.806   0.424 -0.0120 -0.1638 -0.1146
11646W        W27780  11.377   5.952  13.605 -0.0084  0.0989 -0.0164
11647W        W27781   5.469  14.055  13.250 -0.4235  0.0086  0.1151
11648W        W27782   2.657  10.130  12.999  0.2067  0.1254  0.0925
11649W        W27783   0.089  12.435   1.353 -0.3282 -0.1227 -0.1014
11650W        W27784   5.761   2.253   1.329  0.2875  0.1669 -0.0814
11651W        W27785   3.880   2.678  15.098 -0.2461  0.0509  0.0744
11652W        W27786  13.580   4.805  15.346  0.0952  0.1847 -0.1557
11653W        W27787   6.815  17.449   4.996 -0.0815 -0.2516 -0.1564
11654W        W27788  14.419   5.128  14.606 -0.0514 -0.1665  0.1209
11655W        W27789   7.828   3.045  12.237 -0.1890 -0.0528 -0.0784
11656W        W27790  14.781  14.981   0.358 -0.2535  0.0080  0.1884
11657W        W27791   8.041  11.559  15.076 -0.0424  0.2384  0.0717
11658W        W27792  11.100  10.809  14.029  0.1850 -0.0681 -0.2146
11659W        W27793  17.697  16.450   4.187  0.1258  0.2620  0.6185
11660W        W27794   7.114  15.712   2.109  0.2084  0.1472  0.1010
11661W        W27795  14.595   0.094  11.774  0.2170 -0.2816 -0.1347
11662W        W27796  14.031   4.238  13.468  0.0422 -0.0366 -0.1222
11663W        W27797   4.621   5.416   1.137 -0.0739  0.0345  0.0135
11664W        W27798  12.729  13.685   0.257  0.0132  0.1689  0.0191
11665W        W27799   7.511  14.163  15.032  0.0551  0.0801  0.2364
11666W        W27800  14.714  11.781   5.070  0.3635  0.1077 -0.0182
11667W        W27801  16.958   2.861  13.833 -0.2961  0.0197  0.0257
11668W        W27802  10.758   1.975  13.632 -0.2450  0.0225 -0.0476
11669W        W27803  14.194  18.696   1.924 -0.0219 -0.0517  0.0396
11670W        W27804   4.741  14.796  12.982  0.0922 -0.0405 -0.1615
11671W        W27805  10.074  18.255   2.767  0.0481 -0.0686  0.0888
11672W        W27806   6.115  16.784  12.987 -0.1557 -0.1507  0.0792
11673W        W27807   1.356  13.797  14.341 -0.2949 -0.0997  0.1053
11674W        W27808   1.031  18.366  14.404  0.0361 -0.3433  0.0180
11675W        W27809   9.315  15.862  11.312  0.1455  0.1743  0.1179
11676W        W27810   7.679   0.298   5.221  0.2702 -0.0475  0.1640
11677W        W27811   3.925  13.785   2.954 -0.1550 -0.1140  0.1409
11678W        W27812   1.914   4.873  13.157  0.1268 -0.0653  0.0465
11679W        W27813   6.239  13.520   4.688 -0.3478 -0.2788 -0.2917
11680W        W27814   7.858   0.321   4.745 -0.3732 -0.2222 -0.0206
11681W        W27815  16.654  15.615   3.009  0.0521  0.1477  0.0089
11682W        W27816   9.792   5.725  14.834  0.0964  0.1106  0.0834
11683W        W27817   3.626  14.991   2.255  0.1228  0.3251 -0.1189
11684W        W27818   7.368   6.295   2.875 -0.0356  0.1833 -0.3411
11685W        W27819  17.441   6.009  14.976  0.0869  0.2259 -0.0619
11686W        W27820  16.333  12.377  13.529  0.1380  0.0798  0.2522
11687W        W27821  13.627  11.370   0.644  0.3874  0.1922 -0.1471
11688W        W27822  18.414   4.510   3.513 -0.1360  0.2235  0.1223
11689W        W27823  16.099  13.400  11.671 -0.1416  0.2751  0.0547
11690W        W27824   5.909  11.910  14.486  0.0316  0.0941 -0.1762
11691W        W27825   4.970   4.688   0.788  0.4955 -0.2837 -0.0007
11692W        W27826   2.974  18.446  11.257 -0.3725  0.2442 -0.2812
11693W        W27827  17.442   5.090  12.967  0.1644  0.2214  0.0074
11694W        W27828   9.762   7.728   1.193  0.0599  0.1381 -0.0795
11695W        W27829  14.357  16.451  11.371 -0.0716 -0.0466 -0.2345
11696W        W27830  10.101  12.774   0.152  0.0052  0.0868 -0.1007
11697W        W27831   6.893  16.809   5.775 -0.0512  0.0314  0.0484
11698W        W27832   5.640  13.274  11.321  0.1160 -0.1262 -0.0439
11699W        W27833   1.311  13.409   3.318  0.0303 -0.1259  0.0355
11700W        W27834  15.050   6.287   1.106 -0.1130  0.0214 -0.3731
11701W        W27835   3.352   2.481   4.526  0.2351  0.1596 -0.0723
11702W        W27836  11.781   9.429  15.066 -0.1643  0.1951 -0.1757
11703W        W27837   3.379  17.578   4.442  0.2720 -0.0836 -0.1199
11704W        W27838   6.038   3.501  11.275  0.1089  0.0787  0.1077
11705W        W27839  16.996  16.082  11.448 -0.1772  0.0691  0.0661
11706W        W27840   3.333  18.320   1.967 -0.0730 -0.1225  0.2720
11707W        W27841   4.323   8.842  12.006 -0.2410  0.1045  0.1073
11708W        W27842   3.242   1.009   1.988  0.0152 -0.1775 -0.2244
11709W        W27843  17.299   3.963   0.181 -0.1799  0.4762  0.2633
11710W        W27844  15.609   0.679  10.348 -0.4756 -0.0773 -0.1190
11711W        W27845  16.551  10.130   2.649 -0.2425 -0.1276  0.1009
11712W        W27846   8.378   1.686   1.443  0.0916  0.1722  0.2900
11713W        W27847   8.930  14.625  14.775  0.1819  0.0290  0.0346
11714W        W27848   8.335  10.428  11.647 -0.2696 -0.0347 -0.2619
11715W        W27849   2.139   3.018   4.660  0.3488 -0.1668  0.0732
11716W        W27850  12.328   2.643  13.299 -0.3508 -0.2781  0.2046
11717W        W27851  12.041  11.026  14.480  0.0634 -0.2850 -0.2102
11718W        W27852  12.567   6.258  11.861  0.2640  0.2142 -0.1116
11719W        W27853  14.466   4.466   4.020 -0.1107 -0.0856  0.2095
11720W        W27854  17.842   5.317   0.846 -0.0823 -0.3177 -0.1830
11721W        W27855  13.065  15.263  13.810 -0.2364  0.1280  0.3631
11722W        W27856   6.717  14.867   0.979 -0.2554  0.1754 -0.2501
11723W        W27857   4.950  17.282   1.888 -0.0525 -0.1633 -0.0129
11724W        W27858   6.335  11.355  12.632 -0.1392 -0.0271 -0.2222
11725W        W27859   3.386  13.758   2.877 -0.1765  0.1884  0.0367
11726W        W27860  12.956   7.473  15.332  0.2302 -0.0762  0.1505
11727W        W27861  17.829  10.545  14.924  0.1444 -0.0875  0.2170
11728W        W27862  10.016  18.318  11.982 -0.0108  0.1623 -0.5065
11729W        W27863  14.099  10.202   4.250  0.1562  0.0547  0.1035
11730W        W27864  14.551   9.310  10.376  0.1998 -0.0895  0.1411
11731W        W27865  14.248  17.833  13.317 -0.1762 -0.3963 -0.1163
11732W        W27866   2.908  10.640  13.232 -0.0310  0.0358 -0.0722
11733W        W27867  12.624   3.087   4.465 -0.0572 -0.0886 -0.1964
11734W        W27868   8.612   3.781  15.077 -0.0264  0.0048 -0.3109
11735W        W27869  12.335  17.743  13.369  0.1183  0.1303 -0.1009
11736W        W27870  10.746   9.684   0.916 -0.0329 -0.2120 -0.2654
11737W        W27871   8.139  12.805   2.763  0.0471  0.3785  0.1408
11738W        W27872  18.061   0.621   0.077  0.3033  0.0693 -0.0275
11739W        W27873   2.350  16.440   1.637 -0.1438 -0.0143  0.2720
11740W        W27874  10.855  15.505  11.445  0.0480  0.4857  0.5428
11741W        W27875   0.597   9.806   0.943 -0.1861 -0.1308  0.1270
11742W        W27876  17.788   1.897   3.926  0.1415  0.1305  0.0992
11743W        W27877  12.148  15.510  13.499  0.0446 -0.0891  0.1093
11744W        W27878  18.689   9.722   4.900 -0.0343  0.0593 -0.1948
11745W        W27879  15.457   8.049   1.707 -0.1954  0.0354  0.0446
11746W        W27880   2.598  18.483  13.964  0.3255  0.1070 -0.0229
11747W        W27881  12.988  10.374  14.386  0.0671  0.0403 -0.1760
11748W        W27882  18.244   9.414   4.476 -0.0361  0.0396 -0.0351
11749W        W27883  17.830   1.906  15.124  0.2263 -0.1323 -0.1583
11750W        W27884   4.840   9.794  12.848  0.1668 -0.0358  0.0638
11751W        W27885   7.475   1.604   1.294 -0.2931 -0.2410  0.1048
11752W        W27886   5.887  13.424  14.179  0.3786  0.0997  0.3176
11753W        W27887   0.890  10.730   2.841  0.0521  0.0096 -0.0983
11754W        W27888   6.527  12.638   4.951 -0.4535 -0.1773 -0.2022
11755W        W27889   6.772  16.567   4.172 -0.1638 -0.1589 -0.5443
11756W        W27890   5.988   3.685  14.113  0.2801 -0.0688 -0.1896
11757W        W27891  11.244   2.114  14.856 -0.2381  0.1944 -0.0643
11758W        W27892  18.692   8.109   1.532 -0.2935  0.1123 -0.1860
11759W        W27893  15.425   4.730   3.244  0.1284  0.1268  0.0568
11760W        W27894  18.105   1.814  14.105 -0.2451  0.0779 -0.2495
11761W        W27895  18.577   8.792   5.554 -0.0136  0.0127  0.3109
11762W        W27896   6.329   2.747   3.945  0.3140  0.1358 -0.0278
11763W        W27897  18.573  13.917   0.281  0.0575  0.0743  0.1488
11764W        W27898   2.695  12.765   4.904 -0.0097 -0.3039 -0.2236
11765W        W27899   6.820  12.270   3.824 -0.0369 -0.0822  0.0814
11766W        W27900  18.184  16.499  13.212  0.1321 -0.1564  0.2751
11767W        W27901  15.934   0.161  12.998  0.2440 -0.0057  0.2938
11768W        W27902   8.803  14.241  12.384  0.1548  0.0463  0.1258
11769W        W27903  12.525   6.546   4.756 -0.2255  0.1240  0.0922
11770W        W27904   6.974   1.117  13.999 -0.0315 -0.0755  0.2196
11771W        W27905   1.300  11.374  13.200  0.1428 -0.1797 -0.2147
11772W        W27906   5.931   5.948   2.798  0.2176 -0.1995  0.1351
11773W        W27907  11.142  11.274   4.974  0.1365 -0.0763 -0.1943
11774W        W27908   0.452   8.818   2.025  0.0193  0.1268  0.2396
11775W        W27909   6.483  13.927  14.766 -0.0536  0.5709 -0.0076
11776W        W27910  12.998   2.684   2.173  0.0888  0.3249 -0.0013
11777W        W27911   7.567  16.550  12.357  0.0544 -0.2975 -0.2038
11778W        W27912   5.016  16.124   4.234 -0.0952 -0.1042  0.0447
11779W        W27913   1.474   5.309   4.347  0.0857 -0.4534 -0.4089
11780W        W27914   5.213  16.926  11.358  0.3755  0.3637  0.1842
11781W        W27915  15.293  12.449   2.226  0.0707 -0.2155 -0.1018
11782W        W27916  14.141   1.497  11.986  0.0534 -0.1038 -0.1154
11783W        W27917   5.588  10.713   0.095  0.0449  0.0649  0.2461
11784W        W27918   0.049   3.324  12.413 -0.0374 -0.1849 -0.0349
11785W        W27919  11.253   2.977  15.269  0.0333  0.0662 -0.3978
11786W        W27920   0.889  16.732  12.099  0.1511  0.0463  0.2743
11787W        W27921   0.962  15.444  11.662 -0.0751  0.0332 -0.1276
11788W        W27922  15.378   3.405   4.499  0.2279  0.1904  0.0520
11789W        W27923   4.818  17.247  11.379  0.3295  0.0478  0.0007
11790W        W27924  17.992   0.261  11.655 -0.0956  0.4160  0.1454
11791W        W27925  12.550   8.542   3.667 -0.3585 -0.1933 -0.3130
11792W        W27926   3.386  11.464  10.769 -0.1861 -0.3509 -0.1267
11793W        W27927   7.830  16.190  13.093 -0.0041  0.2838 -0.0233
11794W        W27928   0.602   7.340  13.903 -0.1653 -0.1956 -0.2596
11795W        W27929   2.989   7.067   5.140 -0.0917 -0.0908 -0.1113
11796W        W27930  17.629  15.131   2.427 -0.2846 -0.2152 -0.1039
11797W        W27931   9.330   1.347  15.160 -0.2204  0.0599  0.1812
11798W        W27932   1.180  14.298   4.623 -0.3555  0.0927  0.3267
11799W        W27933   2.183   5.800  10.514 -0.1677  0.1434 -0.2888
11800W        W27934  18.013   8.107   3.021 -0.0447  0.1230 -0.1130
11801W        W27935  12.095  10.486   1.779  0.1684 -0.3453 -0.0445
11802W        W27936  16.311   6.301   0.345  0.0723 -0.0818 -0.0770
11803W        W27937   8.714   0.902   3.573  0.1930 -0.2610  0.0688
11804W        W27938   7.094  16.818  11.542 -0.1570  0.2398  0.0161
11805W        W27939  13.075  10.190  10.473 -0.0422 -0.1580 -0.1395
11806W        W27940   5.491   3.905  11.481  0.1280  0.0775  0.2193
11807W        W27941   5.164   1.973   2.136  0.1518 -0.2091  0.0177
11808W        W27942  18.254   8.921  12.855 -0.0575  0.2078  0.0831
11809W        W27943   9.051  15.655   5.245  0.1180 -0.0692 -0.0521
11810W        W27944  11.713  15.475   4.032  0.0888  0.1913 -0.0095
11811W        W27945   2.364   7.743   4.151 -0.0732 -0.3144  0.1390
11812W        W27946  14.399  17.441   2.094  0.1567 -0.1171  0.1753
11813W        W27947  11.566   7.880  12.354 -0.1113 -0.0638  0.0261
11814W        W27948  11.067  17.048   2.661  0.0310 -0.2841  0.0978
11815W        W27949   8.477   1.100   2.143  0.1394  0.0732 -0.1408
11816W        W27950  15.315   3.039  13.014  0.3594  0.2610 -0.0386
11817W        W27951   8.665  18.533   2.672 -0.2934  0.1776  0.1217
11818W        W27952  10.404   7.204   3.732 -0.4121 -0.1539 -0.0669
11819W        W27953  12.322  15.599  13.983  0.0735  0.3351 -0.0277
11820W        W27954   1.713   1.759  11.287  0.0936  0.1498 -0.2143
11821W        W27955  11.170  18.415   5.764 -0.1054 -0.0087 -0.1104
11822W        W27956   8.286  12.536  15.001 -0.1583  0.1617 -0.2863
11823W        W27957   3.706   1.079  12.211  0.1377 -0.1206 -0.0109
11824W        W27958  13.545  18.484  10.922  0.1561 -0.0096  0.1259
11825W        W27959   5.617   5.771  13.920  0.2864 -0.0986  0.1633
11826W        W27960   3.344  10.777  14.647 -0.2894 -0.1718 -0.5393
11827W        W27961  11.096   5.558  13.385  0.1666  0.1427  0.0416
11828W        W27962  14.971   3.311  14.782 -0.2297 -0.1812  0.1043
11829W        W27963   3.826  10.272   0.394 -0.1000  0.0003 -0.2051
11830W        W27964   6.400   2.000   1.026  0.0986  0.2567 -0.2186
11831W        W27965  16.165   1.550  12.794  0.2949 -0.2075  0.1262
11832W        W27966  13.427  13.035  13.946 -0.1237  0.2698  0.0860
11833W        W27967  10.876   8.055   1.341  0.2731 -0.1163  0.0673
11834W        W27968   7.256   1.664  14.083  0.1965  0.0355  0.0627
11835W        W27969   2.232   3.126   2.948 -0.2532  0.0846 -0.0570
11836W        W27970   7.621   4.784   3.485 -0.2896  0.1932  0.0546
11837W        W27971  12.909   1.527   5.052 -0.0386  0.0464  0.2448
11838W        W27972  16.585  15.277   2.648 -0.1215 -0.1276 -0.0945
11839W        W27973  16.326  15.919  14.053 -0.1222 -0.1478 -0.0603
11840W        W27974   7.126   1.815   5.330 -0.0196 -0.0808 -0.1414
11841W        W27975   7.284   1.631   4.424 -0.3270 -0.0825 -0.2121
11842W        W27976  12.777   2.389  15.008 -0.0802  0.2246  0.2503
11843W        W27977   7.614   3.236  15.301 -0.0634 -0.1194 -0.0906
11844W        W27978   5.897   4.205   4.646 -0.0081 -0.1192  0.3074
11845W        W27979   7.264  11.570  11.065  0.0767 -0.1467 -0.0374
11846W        W27980  17.168   7.320   1.403 -0.1147  0.0511 -0.0630
11847W        W27981  16.268  18.246   2.984  0.4344 -0.1051 -0.0540
11848W        W27982  15.514  15.009   4.825 -0.0586 -0.0213  0.1145
11849W        W27983   5.884  11.483   0.595  0.1079 -0.1298 -0.1678
11850W        W27984   7.129  15.909   0.868 -0.2352 -0.2500 -0.2248
11851W        W27985   8.084  14.713  10.476 -0.0796 -0.2270 -0.1932
11852W        W27986  12.776   7.548   2.582 -0.0067  0.0767 -0.0429
11853W        W27987   9.666   7.299   1.417 -0.2676  0.0178  0.0150
11854W        W27988   6.964   4.786   2.172  0.2842  0.1816 -0.1813
11855W        W27989   4.678  13.603   3.459  0.1419 -0.0371 -0.0320
11856W        W27990   3.424  13.911   4.155  0.1867  0.2048  0.4023
11857W        W27991  14.559   7.477  14.329 -0.1276  0.0384 -0.4384
11858W        W27992  11.052   9.012   5.295 -0.0607 -0.0300 -0.2841
11859W        W27993  14.978  15.056  11.696 -0.4969 -0.0461 -0.5350
11860W        W27994   0.949  17.492   5.587  0.1771 -0.0009 -0.2584
11861W        W27995  18.674   0.824  11.414 -0.0974  0.0176 -0.1088
11862W        W27996   5.228   3.185  13.792 -0.3742 -0.1513 -0.1354
11863W        W27997  17.408  15.786   5.456 -0.0803  0.2409  0.2595
11864W        W27998   9.813  17.872  14.062  0.2171  0.0539 -0.2982
11865W        W27999  16.500   7.327   0.184  0.0019 -0.1803  0.0497
11866W        W28000  12.207   0.745  12.240 -0.0864  0.5218  0.0642
11867W        W28001   3.517  13.597   0.673  0.0343  0.2530  0.0908
11868W        W28002  14.897  10.267  14.241 -0.0251  0.0011  0.3876
11869W        W28003  11.642   4.467  12.884  0.3420  0.1182 -0.0028
11870W        W28004  18.129   0.762  11.260 -0.3334  0.1608  0.0396
11871W        W28005   7.645   2.661   2.176  0.4175  0.0238  0.2520
11872W        W28006   1.264   0.853   1.798  0.0725 -0.0023  0.1563
11873W        W28007   1.920   0.403  10.930  0.1880 -0.0591 -0.1340
11874W        W28008   5.616  13.619  12.100  0.0024  0.0100  0.2619
11875W        W28009  18.130   6.098  12.530 -0.3393 -0.1781 -0.0135
11876W        W28010  15.811   0.487   4.235 -0.0308  0.3891 -0.2357
11877W        W28011  15.177   1.935  14.926 -0.0223 -0.0437  0.0086
11878W        W28012  12.789   6.830   0.916  0.0636  0.0483 -0.1182
11879W        W28013   0.058  13.693  13.389 -0.0690 -0.0196  0.0572
11880W        W28014  12.986  15.639  13.449 -0.1148 -0.3168 -0.2195
11881W        W28015   7.226   9.187  15.293  0.1615  0.2455  0.2309
11882W        W28016  15.320  14.424  10.788  0.0951  0.0182 -0.0534
11883W        W28017   7.360   2.736  12.125 -0.0089  0.1472  0.3442
11884W        W28018  17.959  10.425  13.789  0.0210 -0.0224  0.2067
11885W        W28019  11.277  12.900   3.680  0.0651  0.0767  0.1156
11886W        W28020  14.117   4.924  10.707 -0.0329 -0.2665  0.2672
11887W        W28021   0.437   1.206   3.767 -0.1809 -0.1322 -0.2903
11888W        W28022   0.358   1.471   2.522 -0.0001  0.1288  0.1152
11889W        W28023   0.090  14.670  14.532  0.3671  0.1580  0.0783
11890W        W28024  13.213   5.563   2.609 -0.0035 -0.2248 -0.0896
11891W        W28025  11.400   5.456   5.009  0.0548 -0.0175  0.0737
11892W        W28026  11.639  10.278   4.847 -0.0147  0.1221  0.0797
11893W        W28027  10.346   5.583  13.868 -0.1331 -0.2158  0.1864
11894W        W28028  13.281   1.472   5.409  0.1156 -0.3876 -0.0745
11895W        W28029  14.582   1.298  12.175  0.0615 -0.0979  0.2314
11896W        W28030  13.629  15.657   4.180  0.0097  0.1180  0.3106
11897W        W28031   0.238  16.219  13.064  0.0562  0.0173 -0.2014
11898W        W28032  10.270   4.384  14.788 -0.1228  0.3337 -0.0732
11899W        W28033   6.063   1.732   2.287  0.0589  0.1680  0.0426
11900W        W28034   3.429   0.674   0.432  0.0854 -0.2077 -0.1716
11901W        W28035   9.138  15.416  12.085 -0.0792 -0.0947 -0.1469
11902W        W28036  12.483  14.077  10.982  0.2863  0.2235  0.2795
11903W        W28037  14.290  18.233   1.796  0.0815  0.0225  0.0475
11904W        W28038  11.955   4.142   5.465 -0.4585 -0.4074 -0.0826
11905W        W28039   5.158  13.196   4.178 -0.2790  0.1714  0.1396
11906W        W28040   9.695  13.648  15.129  0.0743 -0.0506  0.0939
11907W        W28041   5.905   2.995  11.567 -0.0371 -0.0508  0.3169
11908W        W28042  16.711  18.398   4.530  0.3590  0.3306 -0.2365
11909W        W28043   4.218   1.679   9.914  0.2280 -0.0161 -0.1232
11910W        W28044  13.560   0.435   1.809 -0.2044  0.1355  0.1342
11911W        W28045  18.711   3.896   6.076 -0.0282  0.0554  0.0744
11912W        W28046  15.139   4.270   3.236 -0.0117  0.1258 -0.0971
11913W        W28047  18.187  15.192   2.423  0.0725  0.1267  0.0170
11914W        W28048   8.998   3.831  12.150  0.0562 -0.2459  0.2136
11915W        W28049  10.881   7.722  11.206  0.1394  0.1815  0.0236
11916W        W28050   0.644  17.640  12.389  0.0673  0.0659 -0.2382
11917W        W28051   2.360  16.021   0.698 -0.3129  0.0343 -0.1074
11918W        W28052  15.412   7.091  11.853 -0.2652  0.1962  0.0074
11919W        W28053  11.172   8.806   4.312  0.2927  0.1457 -0.1049
11920W        W28054   0.823  16.138  14.478  0.2531 -0.2580  0.0637
11921W        W28055  18.555   0.780   1.621  0.2285 -0.1563 -0.2055
11922W        W28056  13.247   4.456  11.004 -0.0582 -0.0606 -0.0653
11923W        W28057  12.442   6.883  12.496 -0.0517  0.0141 -0.2082
11924W        W28058  12.918   2.680   1.673  0.1497 -0.0566 -0.0400
11925W        W28059   2.292  11.819   4.066  0.1479  0.2380 -0.0301
11926W        W28060  11.218  16.673  12.561 -0.0915  0.0778  0.2419
11927W        W28061  12.992  15.930   0.386  0.0888  0.2217 -0.0183
11928W        W28062   4.199   1.437   1.836 -0.0145 -0.0753 -0.2362
11929W        W28063   1.901   6.216  14.153 -0.0427 -0.3473 -0.1763
11930W        W28064  15.645  18.529  10.225  0.2310  0.3513  0.2187
11931W        W28065   3.836  11.372   4.635 -0.1222 -0.0204  0.0519
11932W        W28066  13.302  13.143  14.485  0.0578 -0.0063 -0.0248
11933W        W28067  15.688  12.852   3.567 -0.2931  0.1727 -0.0577
11934W        W28068  16.472   7.909   1.703 -0.1432  0.2130 -0.0813
11935W        W28069  12.435   8.013  10.125 -0.0893 -0.1714 -0.2529
11936W        W28070  17.573   5.729  11.116 -0.2997  0.1130  0.1953
11937W        W28071  18.719   2.486   4.299 -0.1830 -0.3144 -0.0190
11938W        W28072   5.554   0.872  13.953  0.1510 -0.3565  0.0503
11939W        W28073   9.019   9.017   5.931 -0.2045 -0.1267  0.0110
11940W        W28074  10.021   2.601  13.226 -0.1599  0.0709 -0.1977
11941W        W28075  11.379  13.394   3.920  0.1045 -0.0684 -0.1374
11942W        W28076  16.291   8.676   1.894  0.2431  0.1259  0.1701
11943W        W28077  10.287  13.257  10.516 -0.2195 -0.0848  0.2818
11944W        W28078   5.247   7.509   3.942  0.3161 -0.0726 -0.3900
11945W        W28079  12.147  15.038  15.336 -0.1131 -0.2493 -0.1680
11946W        W28080   6.939  13.230   0.785 -0.4539 -0.2499 -0.4426
11947W        W28081  13.138  14.052   4.245  0.1663 -0.0492  0.1171
11948W        W28082  10.091   5.795  13.451 -0.0932  0.1262  0.0164
11949W        W28083  17.659   3.380  10.113 -0.0585  0.3066 -0.1426
11950W        W28084   1.890   4.801  14.171 -0.2046 -0.1320  0.2932
11951W        W28085   9.294   1.915   4.169 -0.1557  0.3402  0.3808
11952W        W28086  17.225  15.505   4.623 -0.1507 -0.1782 -0.0554
11953W        W28087  17.990   3.831   2.403 -0.1270 -0.1251  0.0661
11954W        W28088   6.267  14.071   2.695 -0.1146  0.0324  0.1400
11955W        W28089   6.271   1.876  14.886 -0.2545 -0.3880 -0.1412
11956W        W28090  16.498   2.990  13.018 -0.0399 -0.1326 -0.2290
11957W        W28091   5.757   5.454   1.702 -0.2288 -0.3560 -0.0456
11958W        W28092  12.444   6.922  14.222 -0.0296 -0.0464 -0.1827
11959W        W28093   5.182  12.331   1.205 -0.0177 -0.0746 -0.1563
11960W        W28094  15.232  13.786   2.345  0.1314  0.1158  0.4294
11961W        W28095   0.754  16.581  14.228 -0.0921 -0.1373  0.1110
11962W        W28096  14.463   7.228  12.305  0.2254  0.0697  0.1828
11963W        W28097   6.131   4.323  12.613 -0.1712  0.1159  0.0295
11964W        W28098  18.510  13.875  14.395 -0.2220 -0.1018  0.0721
11965W        W28099  16.081  14.602   5.410  0.0046  0.1166 -0.4591
11966W        W28100  14.782  15.894  14.030  0.0116 -0.0044  0.3685
11967W        W28101   7.166   2.838  13.458  0.0187 -0.0194  0.0212
11968W        W28102   6.160  15.043   0.674 -0.1097 -0.3364  0.0938
11969W        W28103   3.471  11.873  13.217 -0.0328  0.0319 -0.0085
11970W        W28104  15.937   4.320   1.603  0.2955  0.2203 -0.3374
11971W        W28105  18.696   9.958   3.245  0.1511  0.0371  0.2985
11972W        W28106  16.473  16.372  13.315 -0.0396 -0.1215 -0.1462
11973W        W28107   9.748   9.945   3.212  0.3703 -0.1202 -0.1214
11974W        W28108  13.730  14.898  10.524  0.0728  0.1362 -0.0910
11975W        W28109   0.794  17.143   5.088 -0.1006 -0.1517 -0.0791
11976W        W28110  11.364  11.102   9.768  0.4055  0.0842 -0.1048
11977W        W28111  16.570   8.303  13.274  0.3207  0.0521  0.0554
11978W        W28112  18.320  14.946  12.076  0.0197  0.1482  0.1504
11979W        W28113   0.038   2.845   0.346 -0.2425  0.0145  0.3797
11980W        W28114   9.355   3.380   2.007  0.2896 -0.1176  0.1430
11981W        W28115   8.751   9.949  14.138  0.0131  0.0863 -0.1505
11982W        W28116   7.221  14.233   2.497 -0.3849  0.0072 -0.0066
11983W        W28117  16.825   0.104  12.730  0.0462 -0.0899  0.1813
11984W        W28118   3.930  12.634   4.432 -0.0335  0.0692  0.0944
11985W        W28119  13.352   5.516  11.812 -0.2423  0.4077 -0.0202
11986W        W28120  12.182   1.324   2.940 -0.0228 -0.1107 -0.0276
11987W        W28121  17.626   0.901   0.618 -0.2201  0.0111  0.1662
11988W        W28122   6.070   5.082  13.763  0.2262  0.0542 -0.1075
11989W        W28123   1.721  11.717   0.602 -0.2049  0.1763 -0.1339
11990W        W28124  12.554  11.069   4.449 -0.1378 -0.1503  0.1960
11991W        W28125   7.416  12.424   0.576 -0.0925 -0.0082  0.0393
11992W        W28126  11.481   3.919  12.770 -0.2463  0.0892 -0.2254
11993W        W28127   9.089  16.744  11.611  0.0586  0.1402  0.2354
11994W        W28128  15.865   1.000  13.467 -0.2759  0.2222 -0.4147
11995W        W28129   6.355  11.903  11.844  0.1381  0.0579 -0.0340
11996W        W28130   5.487  13.895   2.124  0.4839 -0.0836  0.0724
11997W        W28131   0.589   7.106   3.759  0.1351 -0.0127  0.3687
11998W        W28132  11.172   0.491  13.951 -0.1537  0.0757  0.1634
11999W        W28133   4.059   5.287   3.866  0.1160 -0.2420 -0.1303
12000W        W28134   1.235   4.695  15.263  0.0210  0.0671 -0.0454
12001W        W28135  12.840   1.453   2.422  0.1352 -0.2481  0.0564
12002W        W28136  13.559  14.409   1.170 -0.0321 -0.0197 -0.0397
12003W        W28137  16.821   0.891   2.385  0.2356  0.3307 -0.1603
12004W        W28138   7.746  11.195  13.664 -0.0058  0.1290  0.0155
12005W        W28139  13.228   9.819   3.947 -0.1285 -0.0848  0.0038
12006W        W28140   4.810   6.765  11.318  0.3814 -0.0972 -0.1494
12007W        W28141   7.891   6.774   3.433  0.1798 -0.0593 -0.1267
12008W        W28142  16.335   9.791   5.016 -0.2231  0.2277  0.0198
12009W        W28143   1.266   3.443  14.174 -0.3404 -0.3608  0.1635
12010W        W28144  10.526  11.891  14.817 -0.3526 -0.0991 -0.1217
12011W        W28145  16.413  17.799   3.284  0.1594  0.0227 -0.0179
12012W        W28146  18.657   6.838  13.090  0.1450 -0.1467  0.2774
12013W        W28147  14.552   8.464  14.307 -0.0558  0.1891 -0.0311
12014W        W28148  13.297   0.231   4.775  0.2015  0.0308  0.1015
12015W        W28149  12.912   0.553   4.619 -0.1968  0.0767 -0.1305
12016W        W28150   8.070  15.029   0.504  0.0693 -0.0788 -0.0658
12017W        W28151  14.720   5.873  13.105  0.0961  0.0701 -0.3352
12018W        W28152   5.292  17.139   5.728 -0.1395 -0.3385 -0.2371
12019W        W28153  14.182   4.141   1.458  0.1954  0.0259 -0.1108
12020W        W28154   1.682   0.891  13.336 -0.1050  0.0338 -0.2654
12021W        W28155   4.023  10.537  12.116 -0.0398 -0.1996  0.5528
12022W        W28156  13.328  12.586   1.009  0.4313 -0.0411 -0.0227
12023W        W28157  15.718   6.651   1.701 -0.0986 -0.2669  0.0964
12024W        W28158  11.197   3.206   4.432  0.1867  0.2756 -0.0882
12025W        W28159  11.128  15.360  10.206 -0.0129  0.3576  0.0975
12026W        W28160  17.156   3.335  12.350  0.0546 -0.0264 -0.0739
12027W        W28161   7.852   1.150   2.768  0.0228  0.1374 -0.0656
12028W        W28162  12.737  15.404   2.405  0.2721  0.1991 -0.0999
12029W        W28163   3.729   2.372  10.184 -0.2107  0.4501 -0.1224
12030W        W28164  11.998   0.872   2.774 -0.0386  0.2124 -0.1236
12031W        W28165  17.580  11.966  11.006  0.3374 -0.4045  0.1374
12032W        W28166  11.840   1.880   4.200  0.1607 -0.0758 -0.2198
12033W        W28167   9.920   9.899  11.280 -0.0092 -0.1382 -0.1140
12034W        W28168  16.807  17.493   2.549 -0.0132 -0.2943  0.3427
12035W        W28169  16.909  17.839  13.201  0.0948  0.2152  0.2904
12036W        W28170   8.079  14.079   2.552 -0.1730 -0.0138 -0.4474
12037W        W28171  10.342  13.965   0.899 -0.0691 -0.0615  0.0746
12038W        W28172   8.857   7.155   1.422  0.0042 -0.1670 -0.3696
12039W        W28173   8.083   9.222   2.630 -0.1644  0.3017 -0.0742
12040W        W28174   5.683   3.504  13.051  0.4065 -0.1463 -0.2900
12041W        W28175  13.040   3.444   2.847  0.0830  0.0341  0.0632
12042W        W28176  16.077  10.687   0.034  0.1702  0.0079 -0.0250
12043W        W28177   6.337   7.522   0.622  0.0370  0.2802 -0.2390
12044W        W28178  16.152  16.242   4.953 -0.1583 -0.2071 -0.0513
12045W        W28179   3.553   9.287  15.191  0.2735  0.0925  0.0227
12046W        W28180  14.649   4.596   2.290 -0.2470  0.0113 -0.0265
12047W        W28181  15.168   4.584  12.621 -0.0674 -0.1160 -0.1562
12048W        W28182  18.222   6.214   2.123 -0.2206  0.0564 -0.2420
12049W        W28183  13.010   9.259   2.640  0.1751 -0.2592 -0.1372
12050W        W28184   6.559   1.101  12.273  0.0865 -0.1064 -0.3115
12051W        W28185   7.181  17.335   0.176  0.0777 -0.0364  0.1262
12052W        W28186  11.789   1.388   2.586  0.0917  0.0527  0.1474
12053W        W28187   8.931  13.233  12.098  0.0457  0.3262 -0.0682
12054W        W28188   4.926   6.180  13.628 -0.0354  0.3542  0.1028
12055W        W28189   6.506   1.871   3.068 -0.0871  0.1856 -0.0422
12056W        W28190   9.312  10.007   4.961 -0.1252  0.0444  0.3132
12057W        W28191  10.403   8.669  11.402 -0.1167  0.0633  0.1506
12058W        W28192   3.254   3.236  14.528 -0.2978  0.1409 -0.0176
12059W        W28193   2.831  10.388   5.335 -0.2479  0.0083 -0.1910
12060W        W28194   8.009  13.321   1.835  0.1837  0.2262 -0.0064
12061W        W28195   3.050  14.169  13.726  0.0538 -0.1144  0.2439
12062W        W28196   8.225  16.064  13.867 -0.0873  0.0805  0.1304
12063W        W28197  12.982  13.202   3.432  0.0268  0.1360 -0.3498
12064W        W28198  16.579   4.660  13.476  0.0615  0.0986 -0.0001
12065W        W28199   0.154   7.413  15.498 -0.2759 -0.1797 -0.1792
12066W        W28200  10.859   5.722  11.857  0.1310  0.1288  0.0540
12067W        W28201   0.739  17.750   3.793  0.1613  0.1614 -0.1991
12068W        W28202   9.444   8.932   9.872 -0.0336 -0.1503 -0.0228
12069W        W28203   5.818   1.036  13.128  0.0255  0.1912 -0.2754
12070W        W28204   2.876   1.870  10.256 -0.0331 -0.4995  0.0142
12071W        W28205  14.855   9.724  13.949 -0.1515  0.1616  0.0326
12072W        W28206   6.871  10.834  14.203  0.0340  0.2363  0.0405
12073W        W28207   3.179  16.312   2.756  0.1647 -0.0424 -0.5708
12074W        W28208   2.745  18.636  15.512 -0.0265 -0.0557 -0.0944
12075W        W28209   1.496   2.214  14.086 -0.2973 -0.0984 -0.0577
12076W        W28210   5.046  15.885   5.240 -0.0513  0.0320  0.2048
12077W        W28211  18.714   3.164   3.532  0.0143 -0.0387 -0.0390
12078W        W28212   5.725  17.993  15.093  0.2109  0.1375 -0.3360
12079W        W28213   4.674   0.832   4.976 -0.1419  0.3524  0.0545
12080W        W28214   4.053   3.223  15.051  0.0746  0.0687 -0.0692
12081W        W28215  11.175  17.478  12.953  0.2562  0.1320  0.1801
12082W        W28216   8.662   6.163   3.822  0.1660 -0.0623 -0.1041
12083W        W28217   6.525  10.679  11.003  0.1233 -0.1482 -0.0117
12084W        W28218   6.833   5.649   0.837 -0.3055  0.0297  0.1349
12085W        W28219   6.070   0.888  10.797  0.1146 -0.1874 -0.0408
12086W        W28220  17.696   2.714   4.417  0.2906 -0.0105 -0.1023
12087W        W28221  10.322  12.269   2.027  0.0677 -0.2722 -0.1224
12088W        W28222  14.411   0.922   4.186 -0.0202 -0.1365 -0.1352
12089W        W28223  16.976  13.584  10.446 -0.1033  0.0582  0.0031
12090W        W28224   2.230   6.043   3.224  0.2502  0.1740  0.2725
12091W        W28225  18.553  15.766   0.453  0.0782  0.2810 -0.1777
12092W        W28226  17.348  10.742  11.475  0.1396 -0.1949  0.0646
12093W        W28227  18.207  13.493   1.470  0.2258  0.0394  0.0554
12094W        W28228   1.603   6.124  15.354 -0.1322 -0.0789 -0.0639
12095W        W28229  14.748   9.452   1.086  0.0294  0.1383 -0.0764
12096W        W28230   7.694   2.306   0.420  0.1578  0.0001 -0.0515
12097W        W28231   6.770  10.438   4.174 -0.0407  0.1245  0.1969
12098W        W28232   1.449  14.334  14.425 -0.2243  0.0842 -0.1731
12099W        W28233   8.596   2.969  13.150  0.0449 -0.2309  0.0481
12100W        W28234  13.596  14.308   0.323 -0.1129  0.2931  0.0861
12101W        W28235  15.394   7.788  13.492 -0.4591 -0.0794  0.0683
12102W        W28236   0.159   6.711   1.950 -0.1729 -0.1246  0.0127
12103W        W28237  14.493   9.049   2.404  0.1950  0.2640 -0.1280
12104W        W28238   6.192  13.746  13.968  0.0655  0.1417 -0.1695
12105W        W28239  10.262  11.870   2.575  0.2263  0.0524 -0.1167
12106W        W28240  18.436   7.765  12.000 -0.0569  0.0292 -0.1381
12107W        W28241  17.121  16.034   9.728  0.0109 -0.2973  0.4021
12108W        W28242   9.768   5.701   4.793 -0.1576 -0.3423  0.1997
12109W        W28243  17.002   4.583   3.690 -0.0877  0.1921  0.1154
12110W        W28244  10.127   1.875   1.979  0.1946  0.1775  0.0785
12111W        W28245   8.841   8.122   3.058  0.0807 -0.2220 -0.3571
12112W        W28246   4.264  11.218   3.253 -0.1538  0.0206  0.1147
12113W        W28247  14.944  14.062   0.528 -0.0044 -0.4262 -0.0148
12114W        W28248   5.167  12.445  13.438  0.1456  0.4956  0.2504
12115W        W28249  11.092   5.723   5.382 -0.1482  0.0820 -0.1041
12116W        W28250  13.078  14.748  11.062  0.0969 -0.2341 -0.0947
12117W        W28251   2.351   9.287   1.341 -0.3279  0.1371 -0.2036
12118W        W28252  17.487   5.801   3.492  0.0719 -0.2206 -0.2434
12119W        W28253   9.978  11.023   9.595 -0.3377  0.1635 -0.0778
12120W        W28254  15.453   8.643  12.385  0.0817  0.1963 -0.4143
12121W        W28255  14.565  13.053  11.549 -0.1084 -0.2919  0.1086
12122W        W28256  11.890   8.787  13.871  0.0487  0.5395 -0.3786
12123W        W28257   9.702   8.619  10.224  0.2072  0.1057 -0.0051
12124W        W28258  14.742  18.195  14.417 -0.3173 -0.0481 -0.1795
12125W        W28259  11.713  14.579  15.349  0.1460 -0.2008  0.1382
12126W        W28260  10.229   7.929  12.682 -0.1085  0.0979  0.0244
12127W        W28261   3.239   9.511  13.090  0.0133  0.0976  0.0178
12128W        W28262   0.904  10.239   1.667 -0.1388 -0.0450  0.0501
12129W        W28263  17.504  13.614  10.640 -0.2440 -0.3256 -0.1462
12130W        W28264  12.987  12.673  13.069 -0.3403 -0.1560  0.1066
12131W        W28265   4.926  13.598   4.350 -0.1251 -0.0955 -0.0437
12132W        W28266  16.689   3.767   1.537 -0.0437 -0.0227  0.0885
12133W        W28267  13.872  14.900   1.164  0.0544  0.1713  0.4554
12134W        W28268  14.892   8.309  10.405  0.0008 -0.0321  0.2916
12135W        W28269   5.453   7.209   5.497  0.0930 -0.1955  0.1152
12136W        W28270   3.082   8.193   3.829  0.1535 -0.0606 -0.1683
12137W        W28271   4.021  11.558  12.388  0.1518  0.1924 -0.1500
12138W        W28272   0.862   3.657  14.261  0.0418 -0.1436  0.3078
12139W        W28273   1.198  12.272  13.947  0.1683 -0.1263 -0.2930
12140W        W28274   9.301   8.034   2.846  0.1076  0.2526 -0.1967
12141W        W28275   0.377   6.153  12.623 -0.0601  0.2181  0.1124
12142W        W28276   2.727   0.216  15.167 -0.1570 -0.2511 -0.1044
12143W        W28277   0.182  15.316  14.736 -0.0832 -0.3920  0.1063
12144W        W28278  15.004   9.963  15.191  0.1290 -0.1073 -0.2414
12145W        W28279   1.421   4.552   3.799  0.1167  0.2355 -0.4069
12146W        W28280  12.108   4.470  14.100 -0.2661 -0.0260 -0.0709
12147W        W28281   7.131  12.576   2.450  0.1735  0.1732  0.1647
12148W        W28282  17.899  15.220  12.614 -0.3558 -0.1974 -0.1386
12149W        W28283  10.373   6.976  12.654 -0.2643  0.0450 -0.0071
12150W        W28284   1.296  11.620   3.585  0.1005 -0.0716 -0.1362
12151W        W28285  12.925   6.331   1.802  0.2331 -0.2085 -0.0145
12152W        W28286   8.889   6.604   0.262 -0.0407  0.0750 -0.1818
12153W        W28287   1.360  12.812   1.447  0.5253 -0.0220  0.1065
12154W        W28288  16.029  16.396   2.445 -0.2001  0.2595  0.0467
12155W        W28289   1.023   0.962  11.798 -0.0352 -0.3619  0.1247
12156W        W28290   7.511   1.644  10.676  0.0940  0.1536 -0.2475
12157W        W28291  16.066   2.844   3.951  0.2246 -0.2971 -0.0524
12158W        W28292  14.105  18.496  13.759 -0.0086 -0.0283 -0.1628
12159W        W28293  10.704   6.369   1.907 -0.0493 -0.1907 -0.0253
12160W        W28294   4.623   8.041   2.757 -0.1575  0.3530 -0.2239
12161W        W28295   7.302   3.476  13.304  0.1231  0.1601  0.1875
12162W        W28296   4.332   0.372   0.111  0.2104  0.0024 -0.0766
12163W        W28297   3.446  11.020  14.153 -0.0548  0.0931 -0.0413
12164W        W28298   0.117   7.689  12.316 -0.0229  0.3293  0.0756
12165W        W28299  11.120  16.221  14.253  0.1105 -0.3024 -0.2100
12166W        W28300   3.414   8.583   3.456  0.3035  0.2002 -0.0033
12167W        W28301   0.208  16.616   2.261 -0.0623  0.0124  0.2345
12168W        W28302   5.939  13.300   5.378  0.0080 -0.2828  0.1384
12169W        W28303   8.275  15.225  12.215 -0.1034 -0.1404  0.1174
12170W        W28304  15.996  10.758  13.703  0.3498  0.0779 -0.0357
12171W        W28305   5.731   4.152   1.824  0.0614 -0.0797 -0.2623
12172W        W28306   6.983   2.920   0.922  0.2567 -0.0455 -0.0312
12173W        W28307   5.139  12.707   0.324 -0.1250  0.4652  0.1861
12174W        W28308  18.573   2.795  12.954  0.1097  0.1640  0.3492
12175W        W28309   6.848  18.465   1.460 -0.1873  0.0145 -0.1349
12176W        W28310   7.124  10.897  12.200 -0.1239  0.1782  0.1562
12177W        W28311  15.602   9.003   3.539 -0.0594  0.2439  0.0079
12178W        W28312   9.628  14.704  13.862  0.0733  0.2713 -0.2338
12179W        W28313   1.525   4.018   3.696 -0.1057 -0.3788 -0.2782
12180W        W28314   8.810   6.670   5.057 -0.3115 -0.0379 -0.1319
12181W        W28315   6.214   1.401  15.002 -0.2153 -0.1811  0.2168
12182W        W28316   3.987   2.219   2.534 -0.2139 -0.5827 -0.1224
12183W        W28317   9.234  10.970   5.157 -0.0278  0.0006 -0.0525
12184W        W28318  16.798   6.361   3.912 -0.2179 -0.1818  0.2350
12185W        W28319   7.980  18.269  11.093  0.0696 -0.1268  0.2065
12186W        W28320   5.736   5.240   5.782 -0.1238 -0.3404 -0.1437
12187W        W28321   8.455   1.927   3.515 -0.1204  0.0540  0.1447
12188W        W28322  14.811  18.013   0.221 -0.2139 -0.0187 -0.2894
12189W        W28323   4.803   6.418   0.327 -0.0009 -0.0796  0.1698
12190W        W28324   2.567  13.079   0.961  0.1591  0.0172 -0.1333
12191W        W28325   9.835  17.770   1.057  0.1294 -0.0105 -0.0708
12192W        W28326   9.730   0.208  14.184  0.2859 -0.2909  0.0048
12193W        W28327   0.466  16.053  15.335  0.0298  0.0216  0.0079
12194W        W28328  16.063  14.010  15.432  0.2326 -0.1932 -0.1954
12195W        W28329   1.471  17.255  14.078  0.0472 -0.2108  0.1718
12196W        W28330   6.131   3.010  14.742  0.1039 -0.0423 -0.0589
12197W        W28331  18.348   3.472  14.400  0.1342  0.0277  0.1960
12198W        W28332   6.576  15.095  11.486  0.0157  0.1659  0.2409
12199W        W28333   8.555  14.566  10.478 -0.0524  0.1740 -0.0658
12200W        W28334  16.991   8.981  14.102  0.1420  0.0528  0.1133
12201W        W28335  13.650  10.969   5.454 -0.1226 -0.2458 -0.1027
12202W        W28336   3.945  13.528   0.970  0.0294 -0.0726  0.1681
12203W        W28337  17.724  10.841  11.726  0.0004 -0.1310 -0.1081
12204W        W28338  10.934   5.344   2.734 -0.1014  0.1392  0.1526
12205W        W28339  12.047  10.766  12.037 -0.0446  0.4416 -0.3958
12206W        W28340  13.803   8.908  12.186 -0.0225  0.0952 -0.0068
12207W        W28341   8.997   1.493   3.716  0.0760 -0.0957  0.0207
12208W        W28342  11.262  16.749  15.500  0.0257 -0.0875 -0.2757
12209W        W28343   8.051   6.667   1.122  0.1064 -0.1592 -0.0376
12210W        W28344  12.558  17.193  11.195 -0.0793 -0.0138 -0.2076
12211W        W28345   1.634   9.639   3.372 -0.2473  0.0934 -0.0398
12212W        W28346   2.299   5.225   2.925 -0.0398 -0.0395  0.0696
12213W        W28347   5.722   9.783  11.937 -0.1665  0.1175 -0.0604
12214W        W28348   5.095  11.965   3.273 -0.0391  0.0521  0.0118
12215W        W28349   3.774  16.399   4.240 -0.0776  0.1138 -0.1626
12216W        W28350   4.214   0.179   3.828 -0.0856  0.0661 -0.1431
12217W        W28351  14.197   9.669  11.779 -0.1901 -0.1176  0.0802
12218W        W28352   2.964   8.603   1.258 -0.0942 -0.0240 -0.1508
12219W        W28353  17.742   0.012   4.046 -0.1161 -0.2706 -0.1387
12220W        W28354  15.314  10.959   2.396 -0.2038  0.1742 -0.0859
12221W        W28355  17.359   0.050  12.838  0.1148  0.0344  0.3897
12222W        W28356  11.208   0.759  10.385 -0.0708  0.2544 -0.2183
12223W        W28357   0.095  15.658   6.035 -0.0497 -0.1058  0.0660
12224W        W28358  17.931  11.843   0.431 -0.2491  0.1401  0.1350
12225W        W28359   8.056   4.431   1.779 -0.2279 -0.1398  0.0103
12226W        W28360   0.646  15.290  14.048 -0.1617 -0.1276 -0.1150
12227W        W28361   6.962   6.166   2.580 -0.2596 -0.2321 -0.0231
12228W        W28362   0.519  10.864  11.420  0.0306 -0.0187  0.0014
12229W        W28363   2.297   2.491  11.938 -0.1941  0.2829  0.0103
12230W        W28364  16.444  10.700  15.111 -0.2637 -0.1548 -0.1076
12231W        W28365   6.290   3.359  11.680 -0.1514  0.0851  0.0407
12232W        W28366  13.215   7.159  14.866  0.0089 -0.0988 -0.1995
12233W        W28367  13.939   6.280   2.144  0.0143 -0.0495 -0.0659
12234W        W28368  16.952  10.057  13.158  0.0842  0.0838  0.4540
12235W        W28369  17.675   2.069  13.954  0.2157 -0.1826  0.0072
12236W        W28370  11.021  18.573   4.604  0.0700  0.0792  0.2576
12237W        W28371   5.170  13.448  11.295  0.1221 -0.0759 -0.1530
12238W        W28372   3.787  12.446  12.575 -0.2146  0.0001  0.0121
12239W        W28373   1.066  12.862   4.054 -0.1015  0.0360 -0.0397
12240W        W28374   6.541   3.613  13.983 -0.2052  0.2776  0.0756
12241W        W28375   9.142  17.172   2.545  0.0707  0.1093 -0.0538
12242W        W28376  15.798   5.427   0.337 -0.4253 -0.0954 -0.0599
12243W        W28377  15.917   8.004  13.596 -0.2041  0.0910  0.0831
12244W        W28378  10.220   1.027   3.785 -0.3354 -0.0569  0.2594
12245W        W28379  13.120   6.568   4.066  0.1500 -0.2262 -0.1364
12246W        W28380  13.522   8.635  11.409  0.0194  0.0816 -0.2277
12247W        W28381   4.515   3.214  10.399 -0.0319  0.0714 -0.0088
12248W        W28382  13.863   9.623  15.567 -0.5452  0.0315  0.2180
12249W        W28383  12.300   5.133   0.564  0.0690  0.0942  0.0437
12250W        W28384  17.373  10.523   3.817  0.0949 -0.0301  0.0259
12251W        W28385   8.735   7.466  11.727  0.1114 -0.2105 -0.2007
12252W        W28386  10.066  12.425   4.566 -0.1000 -0.0293 -0.1599
12253W        W28387   8.872   6.105  14.100 -0.1097  0.0473  0.0122
12254W        W28388   9.543  14.884  12.643  0.3138 -0.0425  0.0988
12255W        W28389   8.144  17.855  11.806  0.0732 -0.1360  0.3380
12256W        W28390  14.520  17.876   5.287 -0.0211 -0.2453  0.0807
12257W        W28391  14.888   8.670   2.138 -0.2795  0.0226 -0.1609
12258W        W28392  10.940  14.440  14.409  0.3746  0.0269 -0.2260
12259W        W28393   2.623   5.936   1.322  0.0330 -0.3229 -0.2205
12260W        W28394   7.407  17.841  13.087 -0.0340  0.2394 -0.0010
12261W        W28395   8.983   5.868   0.748 -0.1557  0.0602 -0.1419
12262W        W28396   2.792   1.249  13.446 -0.0348 -0.3391 -0.1773
12263W        W28397   9.003  11.246   2.781  0.0733  0.0560 -0.1151
12264W        W28398   6.198   7.086   0.928 -0.0031 -0.0107  0.2935
12265W        W28399  11.902  13.359   0.094  0.1484  0.2528  0.1146
12266W        W28400  14.991  16.535   3.974  0.1161 -0.1847  0.1543
12267W        W28401  12.988  17.428  12.025 -0.0197 -0.1370  0.2203
12268W        W28402   7.470   9.058  12.445  0.2357  0.0765  0.2842
12269W        W28403   2.477  16.424  14.365 -0.1312 -0.4451 -0.1185
12270W        W28404   3.155  11.160   5.310  0.0693  0.2120  0.0692
12271W        W28405  15.408   9.946   2.168  0.0232 -0.0325  0.2414
12272W        W28406  11.436   0.216  12.338 -0.2160  0.0369 -0.0402
12273W        W28407   4.897   0.279  12.486  0.0276  0.1456  0.0101
12274W        W28408   5.154   9.673  14.524 -0.0585  0.0648  0.0587
12275W        W28409   4.719  16.495   0.167  0.2027  0.2814  0.0376
12276W        W28410   0.346  16.213  14.498 -0.1255  0.1904 -0.0858
12277W        W28411  12.029   2.471   2.510 -0.0415 -0.2562 -0.0592
12278W        W28412  11.099   4.219  15.111  0.2463 -0.2203  0.2602
12279W        W28413  16.903   1.279   5.219  0.0554  0.2960 -0.0066
12280W        W28414   9.033   2.019  10.378  0.1954  0.0899  0.4482
12281W        W28415   0.581   7.138  10.424 -0.1334 -0.6013  0.0613
12282W        W28416   7.302   0.734   1.369  0.3393 -0.1683  0.1309
12283W        W28417  17.541   6.989   4.223 -0.3348  0.0982  0.1178
12284W        W28418   3.983  18.101  15.103 -0.0719  0.0704  0.1296
12285W        W28419   6.580   0.361  10.430  0.0390  0.1224  0.2912
12286W        W28420  11.154  14.850   1.651  0.3706  0.2133  0.1039
12287W        W28421   2.624   2.644   1.706  0.1179 -0.1038 -0.0613
12288W        W28422  15.403  11.925   1.583  0.0274  0.2256  0.0994
12289W        W28423   5.992   8.671   4.975 -0.0879 -0.0345  0.0081
12290W        W28424  11.896   4.116  12.599 -0.1379 -0.0996  0.1317
12291W        W28425  15.236   4.403  11.206  0.1080  0.2630  0.3485
12292W        W28426  15.575  13.380  11.991 -0.1187 -0.1762  0.1635
12293W        W28427   8.446   1.008   0.569  0.0344  0.1282  0.1846
12294W        W28428   3.149  12.525   0.203 -0.1542  0.1556  0.1981
12295W        W28429  17.832   0.757   1.116  0.0910  0.3272  0.0310
12296W        W28430  10.646   8.998  11.061 -0.0993  0.0045  0.0379
12297W        W28431   8.475   1.178  11.402 -0.2789  0.1074 -0.0177
12298W        W28432  13.998  15.965   3.975 -0.0583  0.1001  0.0279
12299W        W28433   0.248   1.042  10.959  0.2044 -0.1141  0.0351
12300W        W28434  12.498  10.803  15.560 -0.0765 -0.0855  0.1611
12301W        W28435   2.334  12.928  15.561 -0.2858  0.1514  0.1197
12302W        W28436   4.428  14.379   3.788  0.0375 -0.3763 -0.1370
12303W        W28437  13.431   1.342   4.806 -0.0012 -0.1767  0.0673
12304W        W28438  16.851  10.985   2.299 -0.1486 -0.2563  0.2570
12305W        W28439   8.964  14.167   4.476 -0.0981 -0.0822  0.0439
12306W        W28440  10.872   7.540  15.519 -0.0897 -0.0452 -0.4303
12307W        W28441  14.947   6.445  13.997  0.0818  0.0121 -0.1889
12308W        W28442   9.311   8.834   2.103  0.0663  0.1442 -0.0117
12309W        W28443  11.119   8.192  11.090  0.2133  0.0010 -0.1376
12310W        W28444  13.097   2.161   3.778  0.0824  0.0952 -0.1135
12311W        W28445  14.848  15.693   0.869 -0.3500  0.1965  0.0070
12312W        W28446   0.044   3.349  15.527  0.1605  0.0980 -0.1093
12313W        W28447   7.725  18.592  10.874  0.0675 -0.0388  0.1608
12314W        W28448  17.149   9.787   0.331  0.3789 -0.0875  0.1959
12315W        W28449   6.738  18.178  11.851  0.1220  0.1864 -0.0731
12316W        W28450   4.946  12.711  11.128  0.0131  0.1042  0.1940
12317W        W28451  14.725   2.989  11.686 -0.1084 -0.0633 -0.0085
12318W        W28452   6.267   1.684  13.324 -0.1123 -0.0264 -0.2503
12319W        W28453   4.453   7.569  13.901 -0.0175  0.0943  0.3076
12320W        W28454   2.573   5.765  15.300 -0.1108  0.1200  0.0001
12321W        W28455  10.889   0.832   4.467  0.1429 -0.1705  0.3505
12322W        W28456  17.712   0.423  14.761 -0.0369  0.2402 -0.3621
12323W        W28457   6.799   0.605   9.413  0.1886  0.0237 -0.0359
12324W        W28458   2.951  13.379   2.854 -0.3344  0.1628  0.2574
12325W        W28459   5.661   0.329  14.656 -0.0503 -0.1763  0.1362
12326W        W28460   9.943  11.808  15.540 -0.0337  0.0886 -0.0651
12327W        W28461   5.681   5.472   0.049 -0.0195  0.0705  0.0700
12328W        W28462   2.832  13.037   0.177 -0.0375  0.0549  0.3835
12329W        W28463   0.181  15.981   0.946 -0.1826 -0.3150 -0.3967
12330W        W28464  15.649   4.133   0.565  0.0074  0.1655 -0.2286
12331W        W28465  15.013   7.508  13.190  0.1044  0.2035 -0.0129
12332W        W28466  16.815   7.344   0.604 -0.2888  0.0096 -0.2589
12333W        W28467  15.833  12.320   1.511 -0.0158  0.3566 -0.2683
12334W        W28468  18.598  13.826   4.121 -0.2240  0.1292  0.1694
12335W        W28469   0.387  17.055   1.415  0.1858 -0.2698 -0.0765
12336W        W28470  14.592  11.520   4.493 -0.1208  0.3113  0.3655
12337W        W28471  16.255   9.338  15.208  0.3063 -0.1319  0.1975
12338W        W28472  12.070   0.547  11.770 -0.1121  0.1186  0.0053
12339W        W28473   8.602   6.036   2.789  0.0612 -0.1218 -0.0157
12340W        W28474  13.933   6.982   2.384  0.1051  0.0847 -0.0465
12341W        W28475   3.385  11.565  14.121 -0.0299  0.4478  0.0355
12342W        W28476   4.280  15.119  12.224  0.0172 -0.0374 -0.0164
12343W        W28477  13.311  10.854   2.152  0.1087 -0.0750  0.0056
12344W        W28478   4.919  18.522   0.113  0.2394  0.2376 -0.1861
12345W        W28479  18.226   9.754   1.788 -0.2391 -0.1073  0.0469
12346W        W28480   2.329   3.455   2.562 -0.0342  0.0527 -0.1399
12347W        W28481   3.729   2.244  12.973 -0.0688 -0.0775 -0.0706
12348W        W28482  10.009   1.270  10.907  0.1898 -0.3310 -0.4240
12349W        W28483  18.172  17.987  13.416 -0.0701 -0.2285  0.2482
12350W        W28484   4.366  18.117   3.400 -0.0192  0.0731 -0.0648
12351W        W28485   3.523  16.923  13.168  0.1075 -0.1253  0.1837
12352W        W28486   8.415   8.234  14.606 -0.2289  0.0281  0.0507
12353W        W28487  15.853  12.044   4.645  0.0496  0.0493  0.2051
12354W        W28488  10.128  18.394   0.887 -0.1404 -0.2788  0.0107
12355W        W28489   5.154   6.955  12.811 -0.0466  0.0494 -0.0870
12356W        W28490   7.848   8.643  13.862 -0.0486 -0.5370  0.3310
12357W        W28491  15.257  17.932  12.623 -0.1260 -0.0599 -0.1904
12358W        W28492   5.723   0.306   0.455 -0.1263 -0.1041  0.1917
12359W        W28493   1.526   7.958   5.361 -0.2108 -0.2778  0.2046
12360W        W28494  17.920   2.829   3.094  0.3768  0.0630  0.3210
12361W        W28495   6.143   0.930  13.566 -0.0496 -0.0157  0.0035
12362W        W28496   3.513   0.668  11.955 -0.0692 -0.0496  0.3165
12363W        W28497   6.409  13.848   1.260 -0.0515  0.0889 -0.2179
12364W        W28498  17.079   6.919  15.272 -0.2943  0.1063 -0.0290
12365W        W28499   3.046  12.714   3.273 -0.0949 -0.0978  0.2498
12366W        W28500  14.094   9.758   0.417 -0.4058 -0.0194 -0.0830
12367W        W28501   7.886   7.536   4.002 -0.0227  0.4387  0.0491
12368W        W28502   6.289  18.176   3.055  0.4202 -0.0982 -0.3388
12369W        W28503   0.682  16.285  12.699  0.2245 -0.0763 -0.0601
12370W        W28504   2.245  14.005   5.577  0.3083 -0.1429  0.1469
12371W        W28505   1.643   5.826  13.054  0.0972 -0.0375 -0.0234
12372W        W28506   4.640   6.322   4.391  0.2416  0.2005  0.1808
12373W        W28507   1.479   8.631  13.360  0.1300  0.0856  0.0614
12374W        W28508   1.284   2.863   0.785  0.1437  0.1746 -0.1845
12375W        W28509   1.477   3.040  15.224 -0.0427 -0.4547  0.0023
12376W        W28510  15.007  12.922  13.811 -0.0475 -0.2603 -0.4103
12377W        W28511  10.393  14.828  11.749  0.2343 -0.1511 -0.0225
12378W        W28512   5.508  12.477   2.714  0.1814  0.1587 -0.0238
12379W        W28513  10.318  17.965   4.204 -0.2660 -0.1861 -0.0071
12380W        W28514  15.591  18.639   3.570 -0.1649 -0.1653 -0.0275
12381W        W28515  13.618   6.849   4.477 -0.3500 -0.0738  0.1375
12382W        W28516   6.384   8.511   4.297  0.3869 -0.1548  0.3527
12383W        W28517   5.796   3.781   4.334  0.0770  0.0672  0.0720
12384W        W28518   3.059   8.759   2.711 -0.0388  0.3041  0.2373
12385W        W28519  12.841  11.938   5.529  0.0077  0.0517 -0.2174
12386W        W28520  18.020   2.276  12.228 -0.1956 -0.1631  0.1285
12387W        W28521  13.120   0.129  11.028 -0.2805  0.0197  0.0503
12388W        W28522  11.737   7.246  13.632 -0.0536 -0.2556  0.0192
12389W        W28523  15.451   3.230   0.347 -0.3420 -0.2186 -0.2026
12390W        W28524   6.250   0.266  11.309 -0.0258 -0.1385 -0.0075
12391W        W28525   6.017   0.424  11.751 -0.0097  0.1062  0.0696
12392W        W28526  16.986   0.896  12.981  0.0872 -0.3134  0.1395
12393W        W28527  11.570  14.879   2.285 -0.4923 -0.0942  0.0041
12394W        W28528   0.734   1.937   4.354  0.1153  0.1738 -0.0453
12395W        W28529   0.578   7.584  15.531 -0.0090  0.0907  0.0302
12396W        W28530   2.381  17.335   2.287  0.1362  0.1512  0.2319
12397W        W28531  17.582   3.147  14.652  0.0005 -0.0293  0.3539
12398W        W28532   0.197  14.174   0.072 -0.2534 -0.1066  0.2924
12399W        W28533   3.506  14.132  14.046 -0.2819  0.0204 -0.0234
12400W        W28534  16.277   1.530   1.747  0.0613  0.1247 -0.0576
12401W        W28535  18.389   3.158   0.167  0.3317 -0.1692  0.0916
12402W        W28536   8.724   7.445  12.258 -0.3776 -0.2892  0.1641
12403W        W28537  16.161  17.940   1.869 -0.1419 -0.0314  0.2249
12404W        W28538  12.068  10.636   2.265  0.1754 -0.0969 -0.1876
12405W        W28539  18.695  12.825  12.860 -0.1689 -0.0760  0.1587
12406W        W28540  18.362   9.730  15.578  0.2587 -0.0845  0.0824
12407W        W28541   3.836  10.285  14.171  0.1040  0.0266 -0.2168
12408W        W28542   6.868  10.242   3.704 -0.0515  0.0402  0.3102
12409W        W28543  14.635   8.738   0.182  0.1554 -0.1561  0.0668
12410W        W28544   9.276   2.051   1.626 -0.2693  0.0710  0.4643
12411W        W28545   5.697   1.000  12.596 -0.1164 -0.1126  0.1194
12412W        W28546  12.786   8.900  14.080  0.0366 -0.2061 -0.1990
12413W        W28547   8.704  16.894   0.306  0.1136 -0.1211 -0.1737
12414W        W28548  10.725  13.812   2.071 -0.1819 -0.1631 -0.2359
12415W        W28549   9.794  14.738   0.977  0.1163  0.0004 -0.1906
12416W        W28550  17.637   9.652   0.528  0.2592  0.1400  0.2676
12417W        W28551   2.551  14.939  15.507  0.0277 -0.1797 -0.0925
12418W        W28552   4.986   9.401   9.659 -0.2652 -0.1099 -0.0776
12419W        W28553  12.041   9.825  10.776  0.1230 -0.1934  0.1709
12420W        W28554   2.713  13.233   4.918  0.0364  0.2248 -0.3904
12421W        W28555   3.200   1.205   5.399 -0.1375 -0.0097 -0.1251
12422W        W28556   5.043  11.267   5.648  0.1534  0.0938  0.2075
12423W        W28557   2.751  12.559   1.058 -0.2399  0.3423 -0.0412
12424W        W28558  17.515  14.000  13.412  0.1758  0.2028 -0.1175
12425W        W28559  11.411   0.886   2.112 -0.2044 -0.1486 -0.2284
12426W        W28560   0.008   1.077   0.771  0.0380  0.2326 -0.0637
12427W        W28561  10.494   0.667   5.031 -0.2563  0.1195 -0.2427
12428W        W28562  12.843   8.833   3.069  0.1109  0.2502  0.2077
12429W        W28563  10.581  10.415  10.902  0.3865  0.0530 -0.2383
12430W        W28564   4.182   2.373  12.276 -0.0724  0.1743  0.2410
12431W        W28565  10.214   0.414  15.011 -0.1926 -0.0677  0.0875
12432W        W28566   4.010   3.552   1.524 -0.1897 -0.2373  0.0017
12433W        W28567  11.698  11.579   5.544  0.1129 -0.2829 -0.3287
12434W        W28568  18.412   3.017   3.074  0.1676 -0.2229  0.1085
12435W        W28569   2.246  16.774   4.086 -0.2266  0.2028  0.1115
12436W        W28570  12.017   8.127  13.374 -0.1038  0.4981  0.0481
12437W        W28571  13.163  14.019  11.499  0.4503 -0.0717 -0.0069
12438W        W28572   4.584  11.756  11.987 -0.0948 -0.1763 -0.1536
12439W        W28573  11.152   6.185  14.270 -0.1082 -0.0038  0.2930
12440W        W28574   3.551  15.324  14.431  0.0958 -0.3297  0.0139
12441W        W28575  18.260  15.617   0.056  0.0062 -0.0596 -0.0279
12442W        W28576   5.014   3.729   4.896 -0.4050  0.0245 -0.0013
12443W        W28577   0.404   1.808   0.261  0.0101  0.3434  0.2169
12444W        W28578  11.966   4.018   3.636 -0.2838 -0.0381  0.0315
12445W        W28579   1.187   8.322  14.467  0.1936  0.0743  0.2998
12446W        W28580   0.527  14.056   4.015 -0.4805 -0.2291  0.0454
12447W        W28581  13.681   1.028  12.813  0.0406  0.1781  0.3055
12448W        W28582  11.925  13.442  10.756  0.2483  0.0809 -0.0627
12449W        W28583  16.285  14.952   0.009  0.0087  0.0155 -0.0089
12450W        W28584   3.161  15.743   2.010 -0.1134 -0.1166  0.2169
12451W        W28585   5.660   9.079  10.242 -0.4147  0.1401  0.2464
12452W        W28586   2.877  12.505   4.321 -0.2345  0.1582 -0.2408
12453W        W28587   9.202   3.773  11.154 -0.0978 -0.1651 -0.0083
12454W        W28588  14.355   9.705   1.334  0.0219  0.0462 -0.1310
12455W        W28589   2.569   7.626  11.027 -0.2295  0.2077 -0.0092
12456W        W28590  13.073   1.547  11.838  0.2647  0.0333 -0.0985
12457W        W28591  16.816   7.039  14.336 -0.1028 -0.0402  0.1554
12458W        W28592  15.746  17.228  12.140 -0.2228  0.2234 -0.1138
12459W        W28593  10.266   3.199  15.322 -0.1495  0.2343  0.2450
12460W        W28594  18.133   4.505   0.224  0.0858 -0.3902 -0.2169
12461W        W28595  14.315  11.694  10.198  0.3923  0.1559  0.0662
12462W        W28596  12.572   9.769   3.122 -0.0052  0.0120  0.2196
12463W        W28597   3.912   2.099  15.111  0.2436 -0.1190  0.3650
12464W        W28598   5.169   0.509  13.329 -0.1608  0.0847 -0.0990
12465W        W28599  16.250  17.753  11.656 -0.1149 -0.0852  0.0082
12466W        W28600   2.792  16.738   5.357 -0.1420  0.0774 -0.0747
12467W        W28601   3.501   6.725  13.647 -0.0442  0.0329 -0.1136
12468W        W28602   4.498   7.989   2.024  0.0101 -0.0250  0.1286
12469W        W28603  17.505   7.322   4.615  0.1380  0.0037 -0.0165
12470W        W28604  10.378   0.703  12.650  0.0652  0.1470 -0.0998
12471W        W28605   2.239  13.435   4.874  0.2120 -0.1857  0.1276
12472W        W28606  15.632  15.035   3.686  0.3334  0.0065  0.2806
12473W        W28607  14.482   9.361  11.421 -0.2012 -0.2106 -0.2019
12474W        W28608  15.624   0.691  14.184 -0.0233  0.2967  0.0481
12475W        W28609  11.190  14.454   0.014  0.2201  0.2440 -0.4315
12476W        W28610  15.093  11.224  13.359  0.5009 -0.0197  0.2543
12477W        W28611   0.884   1.945  15.533 -0.0908  0.2038 -0.1945
12478W        W28612   1.130   6.434   4.385 -0.0115  0.1338 -0.0642
12479W        W28613   0.857  13.707   5.347 -0.1010  0.0340 -0.2611
12480W        W28614  18.369   9.181   0.739  0.0981 -0.4969 -0.1811
12481W        W28615  10.221  15.985  12.814  0.1600  0.0614 -0.1272
12482W        W28616   9.553   7.200  14.570 -0.2532  0.1367 -0.2528
12483W        W28617  16.445   6.722   1.833 -0.0226 -0.2446  0.0818
12484W        W28618   8.340   2.853   3.166 -0.1869 -0.1663 -0.1046
12485W        W28619   9.442  12.854  10.829 -0.0162  0.1082  0.0893
12486W        W28620  17.010  11.537   0.496  0.0646 -0.3104 -0.3636
12487W        W28621   2.250  14.865   0.290  0.0589  0.2153  0.1131
12488W        W28622  14.097  13.837   2.980  0.1133  0.2545 -0.0440
12489W        W28623   0.711  13.371  12.749 -0.2181  0.1593  0.0323
12490W        W28624   9.973   9.926   2.142  0.0516  0.1313 -0.1721
12491W        W28625   8.875   3.194   3.537  0.0975 -0.0994 -0.0672
12492W        W28626  17.362  16.164  13.541  0.0487 -0.3155  0.1600
12493W        W28627   0.237  17.413  12.187 -0.0219 -0.1008  0.0104
12494W        W28628   8.212   3.960   4.537 -0.1152 -0.0739  0.4140
12495W        W28629  13.500   9.892   1.396  0.0181 -0.0559 -0.4251
12496W        W28630  10.930  13.271  10.400 -0.0716 -0.0130 -0.1414
12497W        W28631   6.030   2.368  10.875  0.4048 -0.2756  0.3659
12498W        W28632  14.494  13.606   3.203 -0.2390 -0.0556 -0.2053
12499W        W28633  13.059  16.391  12.677 -0.0731 -0.2628 -0.0968
12500W        W28634  18.378   9.686  12.435  0.2784  0.1367 -0.1750
12501W        W28635  14.372   4.886  12.251  0.0392 -0.1796  0.1547
12502W        W28636  13.238   0.317  11.533  0.3113 -0.2828 -0.1499
12503W        W28637   3.116  13.787  14.027 -0.0085 -0.2224 -0.0555
12504W        W28638   5.968  10.976  14.675 -0.0250  0.2079  0.0378
12505W        W28639   4.084   0.846   2.834 -0.2483  0.0067 -0.1148
12506W        W28640  16.438  10.926   0.433 -0.0949  0.1439  0.0279
12507W        W28641  13.436   5.536  13.180  0.0406  0.3218 -0.3008
12508W        W28642  11.970  13.935   4.359 -0.1169  0.1991 -0.3181
12509W        W28643  17.098   0.106   4.650  0.0424 -0.3316  0.0392
12510W        W28644   4.249  15.751   3.079  0.1847 -0.0124  0.0367
12511W        W28645   8.700   2.494   1.299  0.0122  0.0235 -0.1333
12512W        W28646   1.503  17.795  12.488  0.0094 -0.1035  0.0120
12513W        W28647   5.445   3.422   0.113  0.0918 -0.3051 -0.4155
12514W        W28648   6.995   4.263   1.151  0.1299 -0.1747  0.1097
12515W        W28649  12.678  15.192  14.149 -0.1668  0.1196  0.0538
12516W        W28650   5.229  11.168  12.048 -0.0827 -0.0202 -0.0888
12517W        W28651   5.086  14.216   1.239  0.0772  0.0523 -0.0583
12518W        W28652   0.538   3.726  14.722 -0.1341  0.0080 -0.2204
12519W        W28653   0.858   3.385   4.729 -0.0239  0.1508 -0.1173
12520W        W28654  18.278  13.630  13.643 -0.0773  0.3897 -0.3281
12521W        W28655  18.063   8.530   4.812 -0.0574  0.2675  0.0223
12522W        W28656  18.380   3.180  10.969  0.1562 -0.0902  0.1875
12523W        W28657   7.481   4.358   0.214  0.0379 -0.0594 -0.3077
12524W        W28658   6.299   5.140  12.739  0.1230 -0.2549 -0.0146
12525W        W28659   7.681  18.125  10.683  0.1184 -0.4789  0.0094
12526W        W28660  15.551  14.880   1.629 -0.3297  0.1839 -0.1082
12527W        W28661  16.551  17.308  14.520 -0.1082 -0.2169  0.1095
12528W        W28662   7.686   7.333  13.126  0.2484 -0.3240  0.0170
12529W        W28663   7.708  16.314   1.595 -0.2011 -0.1243  0.0777
12530W        W28664   3.290   6.079  12.197  0.2381  0.0591 -0.0731
12531W        W28665  12.410   8.766   5.116 -0.0944  0.0563 -0.3448
12532W        W28666  10.440   2.547   3.599 -0.1472  0.0103 -0.0256
12533W        W28667   2.634   7.040   2.397 -0.0710 -0.2614 -0.0948
12534W        W28668  17.929   2.617   3.613  0.0304 -0.0290 -0.0774
12535W        W28669   1.915   5.041   2.626 -0.0069 -0.2127  0.0390
12536W        W28670   0.836  16.725   4.073 -0.0919 -0.1596 -0.1515
12537W        W28671  15.740  10.943   4.061 -0.2274  0.2611  0.1147
12538W        W28672  13.264   0.795  14.433 -0.0163  0.2512  0.2602
12539W        W28673  13.749  11.989  10.744 -0.0732 -0.0960  0.1196
12540W        W28674   0.249   5.436   3.459  0.5502 -0.0455 -0.1971
12541W        W28675   0.475  11.458   2.681  0.1073 -0.1920  0.1861
12542W        W28676   6.792   9.135   5.142 -0.0516 -0.2256 -0.1276
12543W        W28677   6.572  13.566   3.224 -0.0802  0.1396 -0.0378
12544W        W28678   3.902   1.942  12.182 -0.0503 -0.2281 -0.0074
12545W        W28679   9.357   1.081  12.598 -0.0367 -0.3626 -0.2527
12546W        W28680   0.471  13.161   2.365  0.0141 -0.0428  0.1264
12547W        W28681   4.232   4.087  11.495  0.1411 -0.0195 -0.1658
12548W        W28682   2.766  18.660   3.558 -0.1821  0.0250  0.0229
12549W        W28683   7.291   4.762   2.575 -0.0346 -0.0600  0.2976
12550W        W28684   0.304   8.952   2.990 -0.1469  0.2783 -0.1131
12551W        W28685   4.432  16.195   0.951 -0.0045  0.3205 -0.1129
12552W        W28686  13.253   1.148   4.284 -0.1541 -0.1858  0.2046
12553W        W28687  13.635   3.625  12.541  0.2298  0.2245 -0.3031
12554W        W28688   8.014   8.853   2.073 -0.2470  0.0933 -0.2806
12555W        W28689  12.611   6.355   2.194  0.0891 -0.1941  0.1391
12556W        W28690  13.053   5.837   2.121  0.1742 -0.1337  0.0962
12557W        W28691   4.817  17.850  13.059 -0.2859  0.1919  0.0574
12558W        W28692   2.114   8.146  11.731 -0.0758  0.2858 -0.0575
12559W        W28693  11.601   4.968  15.471  0.0595 -0.1867 -0.0991
12560W        W28694   8.885  11.976   1.483 -0.1169  0.2815 -0.2229
12561W        W28695  11.998   1.529   2.092  0.0702 -0.1462  0.0152
12562W        W28696   1.738   7.750   3.514 -0.0907 -0.0108  0.0973
12563W        W28697   0.032   6.118   3.911  0.0948 -0.0740 -0.0733
12564W        W28698  14.240  10.854  15.353  0.0872 -0.0487  0.1416
12565W        W28699   4.747   2.337   2.957  0.1107 -0.1251  0.3146
12566W        W28700   7.994  12.660   4.902 -0.0788  0.0042 -0.0121
12567W        W28701   0.924   8.402  12.466  0.0513 -0.0920 -0.0782
12568W        W28702  16.978  17.294   3.444  0.0525  0.1093  0.0558
12569W        W28703   7.797   7.863   1.118 -0.2192 -0.0527  0.2151
12570W        W28704   1.883   8.024   4.945  0.0714  0.0707 -0.0869
12571W        W28705  15.016  13.000   1.293  0.0707 -0.1122 -0.3178
12572W        W28706   8.880  13.861   2.838 -0.1895  0.3444 -0.0634
12573W        W28707   3.984   4.420  12.363 -0.1581  0.2027  0.0465
12574W        W28708   0.556   4.296  15.030 -0.2606 -0.0746 -0.1487
12575W        W28709   0.801  18.280  13.060  0.1471 -0.0441 -0.1234
12576W        W28710  12.605   3.148   0.798  0.0867 -0.0933 -0.1528
12577W        W28711  17.883  16.086  11.145 -0.1853  0.1853 -0.3716
12578W        W28712  13.463  15.979  11.253 -0.1450 -0.0765 -0.0888
12579W        W28713  14.924   7.556  10.998 -0.0253  0.2217 -0.1053
12580W        W28714  13.404   8.936   3.136 -0.0124 -0.1213  0.2125
12581W        W28715   3.292   0.715   3.350  0.0112  0.1591  0.1001
12582W        W28716   8.696   3.801  11.138  0.1587  0.2246 -0.2275
12583W        W28717  15.004   8.263   2.451 -0.0946 -0.0174  0.0452
12584W        W28718   0.934  17.821   3.355  0.2796  0.0011  0.0419
12585W        W28719  10.434  16.573  15.365  0.1952  0.1493  0.1725
12586W        W28720  17.665  10.748  14.445  0.2545  0.0277  0.0630
12587W        W28721   0.650   3.533   0.023 -0.2789 -0.0414 -0.1400
12588W        W28722   3.048   6.331  14.217 -0.1470  0.1221  0.3717
12589W        W28723  10.043  11.888   2.099  0.2428  0.1183 -0.2366
12590W        W28724  15.505  16.018  15.221 -0.1783 -0.0595 -0.0239
12591W        W28725  10.135   7.503   2.260  0.0175  0.0044  0.0300
12592W        W28726  11.473  11.405   2.517  0.0218  0.2664  0.0944
12593W        W28727   6.340  14.043   0.497  0.0458 -0.4284 -0.1302
12594W        W28728  13.047   1.407   1.359  0.2653  0.0480  0.0206
12595W        W28729  14.347  14.489   3.361 -0.1096  0.0989  0.0676
12596W        W28730  12.607  11.888   4.088 -0.1107 -0.2550  0.0102
12597W        W28731   6.294  12.642  12.796  0.0832 -0.1445 -0.1216
12598W        W28732  14.806   3.174  14.347 -0.0746 -0.1668  0.1159
12599W        W28733  10.047   3.418   4.376 -0.0327  0.0075  0.0934
12600W        W28734  16.370   2.245  14.587 -0.1424 -0.0820 -0.1614
12601W        W28735  11.968   4.966   2.684  0.2148 -0.3186  0.0072
12602W        W28736  14.528  17.418  14.209  0.0918 -0.0236  0.3319
12603W        W28737  16.403   4.017  11.468 -0.2792  0.1207  0.0111
12604W        W28738   1.451   3.753  11.783  0.4599 -0.0294 -0.1039
12605W        W28739  15.844   4.229  11.983 -0.3700  0.0764  0.0011
12606W        W28740   1.701  17.238  14.982  0.0588 -0.0912  0.1908
12607W        W28741   3.468  15.242   0.993 -0.0231  0.1602  0.1859
12608W        W28742  10.227   2.779   3.070 -0.1628 -0.0211  0.4145
12609W        W28743   7.919  12.245  15.362 -0.2114  0.1559  0.0118
12610W        W28744   7.809  15.734   3.872 -0.3509  0.0465 -0.2106
12611W        W28745  13.028   3.351   1.530 -0.0485 -0.1883 -0.1810
12612W        W28746  11.419  11.485   1.197 -0.0519  0.0600  0.2336
12613W        W28747  14.619   6.075  11.122  0.1019 -0.1458  0.1827
12614W        W28748   3.126   0.578   4.792 -0.4187 -0.0551  0.1117
12615W        W28749   2.989   5.827   0.951  0.1167 -0.1276  0.3387
12616W        W28750  14.660   0.796   1.482  0.1594  0.3834 -0.1848
12617W        W28751   2.327  15.135  12.616 -0.0665  0.3539  0.2744
12618W        W28752   3.790  10.540  13.479  0.0513 -0.0078 -0.3376
12619W        W28753  15.620  11.425   4.195 -0.3838  0.1337 -0.0285
12620W        W28754   2.389   8.837  13.605 -0.3798  0.4491 -0.0172
12621W        W28755  17.110   5.133  12.541 -0.1824 -0.3888  0.1677
12622W        W28756   8.700  13.772   1.368 -0.0238  0.2143 -0.1947
12623W        W28757  11.696  14.958  14.426 -0.3970 -0.1254 -0.0699
12624W        W28758  13.348   8.584   0.523 -0.1773  0.1988 -0.2627
12625W        W28759   0.034   7.961  13.796  0.0350  0.0246  0.0003
12626W        W28760  14.494  10.984   3.794  0.3571  0.1945  0.2101
12627W        W28761   1.563   8.233   4.153  0.0204  0.0350 -0.0560
12628W        W28762  13.057  17.730  11.572 -0.0219 -0.0934  0.1328
12629W        W28763  10.353   7.845   1.064  0.0602 -0.1407  0.3992
12630W        W28764  11.167  14.775   2.555  0.1602  0.1467  0.0391
12631W        W28765   1.728   4.810   5.117  0.3001  0.1998 -0.0353
12632W        W28766   4.436   6.970   9.942  0.0239 -0.1466  0.0994
12633W        W28767  18.731   1.336  11.337  0.1045  0.0468 -0.0958
12634W        W28768  11.470  15.039   4.750  0.1895  0.1700  0.1176
12635W        W28769   6.946  17.575   4.082 -0.2713  0.1501 -0.1886
12636W        W28770   6.305  15.411   2.787 -0.1492  0.2719  0.0350
12637W        W28771   9.851  15.831   4.803  0.0002  0.0593  0.0768
12638W        W28772   3.772   9.411   5.660  0.3708  0.0920 -0.1254
12639W        W28773   9.966  11.261   5.714  0.1966  0.0591  0.1696
12640W        W28774   3.954  16.493  10.559  0.1367  0.0589  0.0768
12641W        W28775   9.603   7.099   3.987  0.3120  0.0384 -0.4444
12642W        W28776   9.313  14.565  13.094 -0.0423 -0.0911  0.0037
12643W        W28777  12.905   4.768  10.232 -0.0549 -0.3935 -0.4273
12644W        W28778   4.386   0.617   3.514  0.2261 -0.0643  0.0193
12645W        W28779  11.694   0.652  13.969 -0.0258  0.0182  0.0145
12646W        W28780   4.868   7.343  13.052 -0.0395 -0.1491  0.1582
12647W        W28781   7.645  16.767   4.520 -0.5114  0.0486  0.0081
12648W        W28782  17.232  17.154  14.176 -0.2049  0.2368 -0.1201
12649W        W28783   9.543  14.231  11.404  0.0502  0.0091 -0.1381
12650W        W28784   8.982  13.926   4.001 -0.2919  0.0399  0.0615
12651W        W28785  10.273  15.542  12.278  0.2520 -0.0625 -0.0783
12652W        W28786  16.783   0.705   3.388  0.2260 -0.0213 -0.2021
12653W        W28787   5.900  16.925   1.870 -0.1904  0.0637 -0.3449
12654W        W28788   2.916   8.107  13.522  0.1455 -0.4064  0.1120
12655W        W28789   2.838   8.709  13.371  0.0956  0.0067 -0.1797
12656W        W28790   9.320  12.915  12.091 -0.0065  0.4727 -0.0853
12657W        W28791  12.862  10.658  15.108  0.1258 -0.1605 -0.0909
12658W        W28792   5.055   2.086   3.700  0.3868 -0.1981  0.0487
12659W        W28793   6.521   8.860   2.933 -0.0913 -0.0144  0.0327
12660W        W28794   7.247  13.736   1.616  0.1536  0.2759  0.1059
12661W        W28795  18.584   3.085  12.053  0.3726  0.2691  0.2346
12662W        W28796   3.977  12.112   0.722 -0.1596 -0.1547 -0.0335
12663W        W28797  17.854  13.753  12.447 -0.3196 -0.1027 -0.1402
12664W        W28798  16.835  16.616   5.460 -0.1062 -0.1583  0.0620
12665W        W28799  11.046   9.027   2.401 -0.0350  0.4604 -0.0088
12666W        W28800   6.360  16.402  14.181  0.2543  0.1026  0.1949
12667W        W28801   5.810  14.150  15.053  0.1607 -0.0248 -0.2686
12668W        W28802   9.176   9.455   4.278  0.0844  0.2414 -0.1911
12669W        W28803   1.973   9.074   1.703  0.1028 -0.1462  0.1279
12670W        W28804  12.275  15.499   0.061 -0.0083  0.4468  0.3736
12671W        W28805   1.904  12.266   5.280  0.1606  0.2255 -0.3253
12672W        W28806  15.784  10.230   3.048 -0.0228 -0.1650  0.0292
12673W        W28807   2.887   0.965  13.942  0.1642 -0.0495  0.1272
12674W        W28808   7.983  13.510   3.519  0.0871 -0.1755 -0.2346
12675W        W28809  17.019   9.916   5.695  0.0777  0.2343 -0.0470
12676W        W28810  11.199  12.397   1.460 -0.2105  0.0518 -0.0308
12677W        W28811   0.493  10.675   1.940 -0.0714  0.0562 -0.2633
12678W        W28812   4.200   6.270  13.024 -0.4381  0.2964  0.2977
12679W        W28813   0.556  18.116   5.140  0.0587 -0.0218 -0.1927
12680W        W28814   8.462  13.260   2.582 -0.2471  0.1994 -0.4322
12681W        W28815   5.536   2.090  13.429 -0.2969  0.1525 -0.4370
12682W        W28816  17.088   1.221   2.698 -0.1335 -0.1465  0.0639
12683W        W28817   4.245   3.514   3.349  0.0051 -0.3557 -0.0585
12684W        W28818   5.227   9.695   0.293 -0.0271  0.0666  0.2757
12685W        W28819  15.004   6.481   4.191 -0.0972  0.0012  0.0329
12686W        W28820   1.631  16.906  12.156 -0.0011 -0.0013 -0.1042
12687W        W28821  15.767   2.731   1.964 -0.0548  0.1153 -0.0476
12688W        W28822   4.338  11.338   4.602 -0.0995  0.0649  0.0290
12689W        W28823   2.175  13.536  15.010 -0.0858  0.0022  0.3293
12690W        W28824  13.354  14.728  13.068  0.1642 -0.2317  0.0657
12691W        W28825   7.756  17.445  12.820  0.1434  0.3761  0.2700
12692W        W28826   4.877   9.877  12.340  0.2023  0.0263 -0.2374
12693W        W28827  16.418   8.160   5.893 -0.2800 -0.1296  0.0287
12694W        W28828  13.190   2.699  11.227  0.0492 -0.0621  0.0173
12695W        W28829   0.132  18.052  14.379  0.0269 -0.0557  0.1691
12696W        W28830   2.342  14.004   3.485 -0.0636  0.2098  0.2442
12697W        W28831  11.041  17.198  14.793 -0.3472  0.0575 -0.1198
12698W        W28832   9.259   5.095  12.261  0.1128 -0.1775 -0.2125
12699W        W28833   8.999   5.313  11.713 -0.0901  0.1184  0.1330
12700W        W28834   4.634  16.357   1.739  0.2001  0.2585  0.1555
12701W        W28835  10.638   5.032   0.461 -0.1587  0.2416 -0.0386
12702W        W28836  16.237  11.625  12.460  0.0054 -0.2745 -0.0035
12703W        W28837  16.332   1.208  11.259  0.2715 -0.2873  0.1851
12704W        W28838  11.254   3.172  13.294 -0.0871  0.0496 -0.0889
12705W        W28839   7.770  13.594   4.356  0.0354  0.2618  0.2348
12706W        W28840   0.746   6.066   4.478 -0.1312 -0.0252 -0.3553
12707W        W28841   6.410  15.231  15.397 -0.1654  0.0122  0.4598
12708W        W28842  10.902  18.265   4.077 -0.1094  0.2525 -0.0505
12709W        W28843   8.283   2.546  11.746 -0.0425  0.1589 -0.1164
12710W        W28844  12.179  10.430   3.314  0.0011  0.0202 -0.0449
12711W        W28845  18.058   3.385   4.052 -0.0775 -0.0967 -0.1479
12712W        W28846  10.910  18.520   2.936 -0.1927  0.0243 -0.0483
12713W        W28847  11.335  10.970   4.184  0.0876  0.3372 -0.0768
12714W        W28848  11.249   8.247  13.955 -0.0589  0.0594 -0.2362
12715W        W28849   9.679  13.465  13.677 -0.3283  0.2631 -0.0086
12716W        W28850   4.750  12.338  14.616 -0.0537 -0.1732 -0.0114
12717W        W28851  12.719  13.119  10.198  0.0235 -0.0914 -0.1547
12718W        W28852   5.746  16.786   4.474  0.0977 -0.1019 -0.1984
12719W        W28853   0.345  12.143   5.312 -0.0657 -0.1778  0.0594
12720W        W28854   2.281   3.664   0.416 -0.1391  0.0880  0.2129
12721W        W28855   8.866   3.520   1.181 -0.1924 -0.1734  0.0506
12722W        W28856   5.926   9.123   1.294  0.0155  0.0848  0.0551
12723W        W28857   6.541  12.009   0.980 -0.2156 -0.0793 -0.3131
12724W        W28858  11.774  14.367   1.158 -0.0258 -0.3290  0.0030
12725W        W28859  14.217   6.834  11.240 -0.1234 -0.1031 -0.3108
12726W        W28860  18.718  12.980   2.190  0.1591  0.1427  0.0841
12727W        W28861   0.621   7.385   2.256 -0.1005  0.1042  0.2415
12728W        W28862  18.442   5.401  13.191  0.0386  0.1218  0.0040
12729W        W28863  14.340   3.156  12.052 -0.0643  0.1665  0.0176
12730W        W28864  16.404  13.188  14.645 -0.2504  0.1575 -0.0603
12731W        W28865  13.364   7.510  13.310  0.1131  0.1285 -0.0943
12732W        W28866  10.766  16.046  13.920  0.0878 -0.3351 -0.1307
12733W        W28867  15.487  10.647  14.778 -0.1027  0.2481  0.0894
12734W        W28868  11.635  18.485   2.914  0.1680 -0.0005 -0.0945
12735W        W28869   2.491  14.315  14.100  0.1380 -0.1928  0.1230
12736W        W28870   8.043   4.592  12.428 -0.0921  0.0385  0.3334
12737W        W28871  13.101   7.323   1.266 -0.2371 -0.0302 -0.1924
12738W        W28872   9.055   9.188   3.833  0.0336 -0.0530 -0.1298
12739W        W28873   4.119   5.015  10.713 -0.0442  0.1415 -0.0367
12740W        W28874  18.484  13.222   1.828 -0.0409 -0.1929  0.1281
12741W        W28875   1.010  17.090  14.398  0.2271  0.3487 -0.1971
12742W        W28876  10.898   5.535  15.441  0.1215  0.0140 -0.1279
12743W        W28877   5.885   2.975   3.691  0.0430  0.5511 -0.0659
12744W        W28878   8.277  18.073  13.108 -0.0417 -0.1132 -0.1835
12745W        W28879   9.851   8.538  11.692 -0.0669  0.0872  0.1045
12746W        W28880  17.720  15.398  13.055  0.1555  0.2799  0.4258
12747W        W28881   4.500   6.501  11.688 -0.4219  0.0120  0.2103
12748W        W28882   5.893   8.069   3.179  0.0859  0.0701  0.2067
12749W        W28883   0.722   3.227   5.955  0.0761 -0.0053  0.0906
12750W        W28884  12.787  10.625   1.384 -0.2273 -0.1790  0.0888
12751W        W28885   0.009  10.156   2.442 -0.1356  0.0215 -0.2771
12752W        W28886  12.633  15.772   2.768  0.0687 -0.1434  0.0447
12753W        W28887   3.844  17.349  15.562 -0.1590  0.1220  0.0458
12754W        W28888   7.814   2.577  11.950  0.1180 -0.0962  0.4388
12755W        W28889   8.379   1.016   2.630  0.2980 -0.0369 -0.0370
12756W        W28890  11.867   9.312   1.120  0.0147 -0.1164 -0.3381
12757W        W28891   4.942   4.407  13.043  0.0565  0.0645 -0.1025
12758W        W28892   0.556  13.594   5.749 -0.1908  0.0935 -0.0788
12759W        W28893   0.752  15.625   5.621  0.2305 -0.0462  0.1712
12760W        W28894  16.650   9.726   5.413 -0.1964 -0.1689 -0.3154
12761W        W28895  10.963   2.990   1.946 -0.0952 -0.0621  0.2702
12762W        W28896  10.671   2.784   2.782  0.0895  0.1460  0.0252
12763W        W28897  12.177  10.493  12.455 -0.0979 -0.2090 -0.0812
12764W        W28898  16.909   8.120  14.473 -0.1200  0.0099 -0.2041
12765W        W28899  16.144   7.992   5.495 -0.0388 -0.2235 -0.6877
12766W        W28900   2.058  13.844   1.423  0.0885  0.2328 -0.2384
12767W        W28901  11.508   8.136   0.243  0.1978  0.2426 -0.4013
12768W        W28902   4.660   4.130   4.738 -0.0775 -0.1809  0.1435
12769W        W28903   0.597   7.818   2.587 -0.2199  0.3715 -0.2714
12770W        W28904   7.217   8.489   4.778 -0.1300 -0.1438  0.1341
12771W        W28905   3.066   9.611  11.653  0.0949  0.0744 -0.0700
12772W        W28906   7.994  10.718  15.459 -0.1394 -0.0754 -0.0611
12773W        W28907  12.742  11.006   0.398  0.0639  0.2051 -0.2316
12774W        W28908   5.778   9.517   4.535 -0.1181 -0.1647 -0.2433
12775W        W28909   9.274  12.143   4.015 -0.0248 -0.2756 -0.2744
12776W        W28910   3.522  16.294  10.736  0.0913 -0.0720  0.6297
12777W        W28911   0.713  10.417   4.073 -0.0423 -0.2578 -0.0626
12778W        W28912  15.294  18.612   2.995 -0.3121  0.0400 -0.0361
12779W        W28913  13.338   9.279   3.500  0.2561 -0.0980  0.0207
12780W        W28914   8.607  11.351  11.830 -0.1360 -0.4303  0.0403
12781W        W28915   6.422  18.508   3.540 -0.0842 -0.2183  0.2528
12782W        W28916   9.008   4.630   1.266  0.0884  0.4315  0.0093
12783W        W28917  16.363  16.674   2.226 -0.4521 -0.0393 -0.0432
12784W        W28918  10.509   3.663   0.792 -0.3401 -0.2641 -0.2083
12785W        W28919   6.134   8.035   0.389 -0.1300  0.0814 -0.0734
12786W        W28920  17.708  17.825   3.610  0.1810 -0.0365  0.2838
12787W        W28921   1.318  12.417  14.892 -0.2030  0.0168  0.0778
12788W        W28922  11.473  10.547  10.857 -0.1465  0.3037  0.0563
12789W        W28923   5.240  15.808  15.512  0.0074 -0.1286 -0.0986
12790W        W28924  15.918  12.162  12.433  0.1616 -0.0971  0.0306
12791W        W28925  17.060  16.212   1.644  0.1972 -0.3078 -0.1460
12792W        W28926  10.271   0.621  14.091 -0.2854 -0.1132 -0.3275
12793W        W28927   4.715   8.321  13.205  0.1515 -0.0786 -0.0581
12794W        W28928   8.817  10.360   0.741 -0.2009 -0.3290  0.2881
12795W        W28929  13.533   4.379  14.371  0.0865 -0.0139 -0.1031
12796W        W28930  18.698  13.614  13.961 -0.2619  0.1408  0.2580
12797W        W28931  13.954  16.896  12.839 -0.2101  0.3988 -0.3060
12798W        W28932  17.741  15.097   4.757  0.0855  0.4254 -0.1205
12799W        W28933  12.327   3.207  10.437 -0.0434 -0.0129 -0.1130
12800W        W28934   7.006  10.898  15.151 -0.3651 -0.1763 -0.1028
12801W        W28935  13.854  13.444  11.053 -0.3258 -0.2460  0.2367
12802W        W28936  13.635  13.652   4.997  0.1600  0.1682 -0.1384
12803W        W28937  15.378  15.144   2.039 -0.1419 -0.1162  0.1387
12804W        W28938   8.702  14.049   0.959  0.1718  0.2061  0.0598
12805W        W28939  15.677  17.993   1.651 -0.3430 -0.0076  0.1947
12806W        W28940  17.489  14.503   1.422 -0.2182  0.1205  0.2913
12807W        W28941  18.508  16.749   0.061  0.1493 -0.1210  0.0654
12808W        W28942  13.297   0.755  13.732 -0.1369 -0.4511  0.2990
12809W        W28943  14.137   8.914  15.111  0.2626 -0.0305  0.3824
12810W        W28944   5.023   4.630  13.866 -0.1181  0.1604  0.0877
12811W        W28945  15.882  10.040   2.188 -0.0675  0.2449  0.0481
12812W        W28946  13.844   3.694  13.546 -0.2163 -0.0420  0.2339
12813W        W28947   0.780  14.260  11.100  0.2429  0.3062  0.1461
12814W        W28948   1.837  11.354   4.146  0.0199 -0.0682  0.2981
12815W        W28949  10.044   1.580  14.025  0.1440  0.0706  0.2676
12816W        W28950  13.686   5.384   5.940  0.1697  0.2142 -0.2562
12817W        W28951   4.921  17.687  14.377  0.1416 -0.2016  0.0831
12818W        W28952  14.668   4.914  10.839  0.4138  0.3276 -0.2657
12819W        W28953  18.574  11.381  14.897 -0.1628  0.0869 -0.2568
12820W        W28954  16.129  13.566   2.549  0.2543 -0.2162 -0.0066
12821W        W28955   8.896   4.565   3.990 -0.5323  0.1510  0.1254
12822W        W28956   6.772  18.229   1.965  0.0081  0.0284  0.2301
12823W        W28957  15.808  18.649   4.040 -0.3238  0.1481 -0.1402
12824W        W28958  16.464   3.224   2.472  0.0781  0.1109 -0.3112
12825W        W28959   6.901   1.502  15.556 -0.0440  0.0566 -0.0222
12826W        W28960   1.618   0.452   0.393  0.1989  0.0101  0.4638
12827W        W28961   6.544  11.623  15.130  0.0082  0.0182  0.0833
12828W        W28962  16.503   6.801   3.153  0.1419  0.0007 -0.0425
12829W        W28963   5.712   8.312  13.304 -0.1948  0.1450  0.0331
12830W        W28964   3.494  11.568   3.350 -0.0975 -0.0998  0.1219
12831W        W28965   3.366   8.917  13.876 -0.0072  0.0966 -0.0084
12832W        W28966  13.013  17.281   0.317 -0.0653  0.0718  0.0414
12833W        W28967  12.397   8.924  14.525 -0.0558  0.1059 -0.0177
12834W        W28968   4.874  14.467   3.985  0.2017  0.0601 -0.2644
12835W        W28969  13.538  16.847  14.560 -0.1659 -0.0974 -0.0370
12836W        W28970   1.279   1.785   5.747 -0.2613  0.0000 -0.0577
12837W        W28971  11.935  13.570   1.438 -0.1746  0.0183  0.0531
12838W        W28972  10.059   1.587   5.260  0.1313  0.1487 -0.0354
12839W        W28973  18.014   0.210  12.227 -0.0004 -0.0907 -0.3002
12840W        W28974  16.535   4.613  15.214 -0.0937 -0.0856  0.0052
12841W        W28975  17.936   1.539   2.435  0.0593  0.0669 -0.2260
12842W        W28976  11.815  11.826   0.058  0.0619  0.1083 -0.1711
12843W        W28977  18.259  13.748   2.070 -0.1324 -0.1186 -0.2127
12844W        W28978  16.181  13.964   2.253  0.0122  0.0030  0.1186
12845W        W28979   1.084   2.359  14.421 -0.0499 -0.1087  0.1801
12846W        W28980  10.445   8.888  13.147 -0.0963  0.2648  0.2087
12847W        W28981  13.943   6.255  11.893 -0.0523 -0.1223 -0.2985
12848W        W28982   7.051   9.690   5.361  0.3696  0.0895  0.0071
12849W        W28983   6.625   7.500   3.101 -0.1238 -0.2179 -0.2478
12850W        W28984   8.738  18.344  13.248 -0.2413 -0.1104 -0.2288
12851W        W28985   0.567  14.119  12.361  0.5287 -0.0522  0.0582
12852W        W28986   1.919   9.721   3.779  0.2276 -0.3426 -0.0167
12853W        W28987  15.213   5.829  11.758 -0.0986  0.0742  0.1763
12854W        W28988   4.446  15.250  14.437 -0.2860  0.1398  0.1390
12855W        W28989  16.502   5.417   4.200 -0.1752 -0.0398  0.0433
12856W        W28990  13.872   1.278  12.450  0.2889 -0.1117 -0.0146
12857W        W28991   1.778  12.610  14.436  0.0480  0.1422  0.2438
12858W        W28992  13.765   6.571   0.564  0.2313  0.1299 -0.2221
12859W        W28993  11.911  15.087   2.630  0.0460  0.1047  0.1428
12860W        W28994   1.081  14.631   5.012  0.0776 -0.0942  0.1288
12861W        W28995  14.525  18.666  13.208  0.0074  0.0569  0.0519
12862W        W28996   9.360   5.225   1.807  0.0783  0.0171 -0.3505
12863W        W28997   5.854   5.030   4.257 -0.1541  0.2743  0.2007
12864W        W28998  12.404  15.762   2.162 -0.1057 -0.2713  0.1322
12865W        W28999   9.651   1.641  10.841 -0.1685 -0.0047  0.2990
12866W        W29000  15.499   6.884   4.489  0.0368 -0.0902  0.0922
12867W        W29001  15.072  13.588  12.056 -0.3541  0.0086  0.0265
12868W        W29002   1.714   1.672   3.844  0.1274  0.2790  0.0413
12869W        W29003  10.077  12.457   2.861 -0.0446 -0.0026 -0.1945
12870W        W29004   5.140  15.082   4.241  0.1832  0.0050 -0.1872
12871W        W29005   7.448   4.430  13.656 -0.1675 -0.0700 -0.1603
12872W        W29006   0.818  10.590   4.559  0.1696 -0.0267  0.0106
12873W        W29007   5.484  14.477   1.463 -0.1200  0.3380 -0.0088
12874W        W29008   9.121  11.589  11.895  0.0276 -0.2189 -0.1827
12875W        W29009  11.090   7.993  12.458 -0.0974  0.1052  0.0021
12876W        W29010   9.972  12.773   5.175  0.0336  0.0028 -0.0678
12877W        W29011  14.830  13.439   5.093  0.1668 -0.1154  0.0322
12878W        W29012   0.123   8.087  12.709  0.0370 -0.1798  0.0747
12879W        W29013   1.753   7.926  10.954  0.0672 -0.1706  0.1140
12880W        W29014  10.802   6.855  13.982  0.1069  0.4172 -0.1077
12881W        W29015   6.640  15.592  13.533  0.0313 -0.3433  0.0016
12882W        W29016  12.519   8.192  10.589  0.4939  0.1216 -0.0792
12883W        W29017  17.558   8.314   4.979 -0.0575  0.0687 -0.0123
12884W        W29018  17.973  14.106   5.584 -0.1033  0.0059  0.2797
12885W        W29019  17.323   2.242  13.086  0.0239 -0.4362 -0.0674
12886W        W29020   4.658  12.409  13.237  0.1865  0.0591 -0.1399
12887W        W29021   2.347  16.169   2.936  0.1741 -0.3741  0.0729
12888W        W29022   0.137  15.812  11.153  0.0057 -0.3516  0.3280
12889W        W29023   7.468  17.426  13.343  0.3835  0.1619  0.0055
12890W        W29024  16.845  16.012   4.290  0.1937  0.0057  0.0944
12891W        W29025  14.351   4.177   3.060  0.1601  0.0079 -0.1283
12892W        W29026  11.223   6.643   4.600  0.0806  0.1122  0.0265
12893W        W29027   5.415  13.199  15.334  0.3708 -0.3075  0.2401
12894W        W29028   0.341   1.698   4.515  0.0016  0.2000  0.5649
12895W        W29029   8.322   2.800   1.451 -0.1348  0.2192  0.1978
12896W        W29030  14.259   4.723  13.704 -0.0932 -0.0971  0.1205
12897W        W29031   8.034  11.264   2.383 -0.1979 -0.0458  0.0283
12898W        W29032  13.023  14.943   2.581 -0.2224 -0.1026 -0.2148
12899W        W29033  10.180  10.949  10.080  0.0675  0.0277 -0.3743
12900W        W29034  10.504   2.655  11.473 -0.1791 -0.1217 -0.0362
12901W        W29035   2.552  13.020  14.233  0.4496 -0.0162  0.0305
12902W        W29036   4.878   8.138  12.037  0.0263 -0.1103 -0.0115
12903W        W29037   3.181  15.704  11.021  0.0937 -0.0552 -0.1396
12904W        W29038  17.621   7.520  11.177  0.0307  0.0735 -0.1887
12905W        W29039   4.035  17.080  13.252  0.1469  0.3340  0.0565
12906W        W29040   8.446   1.753  15.487  0.0426  0.0453 -0.1993
12907W        W29041  12.365  13.324   2.764  0.1059 -0.1556 -0.0734
12908W        W29042   7.414  15.341   3.946  0.0675 -0.2545  0.0661
12909W        W29043  10.343  15.544   4.002  0.1889 -0.0976  0.2234
12910W        W29044   8.849   4.902  11.441  0.1902 -0.0526 -0.3231
12911W        W29045   2.890  10.937   1.672  0.1929  0.3718 -0.0300
12912W        W29046   9.296   5.257   4.740 -0.0872 -0.1869 -0.1231
12913W        W29047   9.533  10.137  12.858 -0.0972  0.1067 -0.0484
12914W        W29048  14.604  14.328   0.200  0.0899  0.1219 -0.0358
12915W        W29049   9.015  18.226  10.983 -0.0891  0.1539 -0.4330
12916W        W29050   6.994   9.138   0.996  0.1855  0.0347 -0.1079
12917W        W29051   6.484   1.608   0.208  0.2393 -0.4007 -0.2780
12918W        W29052  15.830  13.683  11.277  0.0835 -0.2589  0.0559
12919W        W29053   1.141   9.357  14.396 -0.2242  0.0300  0.4962
12920W        W29054   0.535  15.651   0.112 -0.0663 -0.0017  0.1413
12921W        W29055   1.868   0.280  13.060 -0.2196 -0.2457 -0.1271
12922W        W29056  16.327  15.638  12.751 -0.0795 -0.1810  0.0967
12923W        W29057   2.810   4.346  12.428 -0.1983  0.0927  0.0480
12924W        W29058  10.505   3.733   4.525  0.0552 -0.0547  0.1392
12925W        W29059   8.966   6.061   2.451  0.0257 -0.1092 -0.1234
12926W        W29060  14.129   7.897   0.303 -0.2532 -0.2724  0.0802
12927W        W29061   4.565   8.820   4.952  0.0123  0.1527  0.0296
12928W        W29062   1.636   6.369   3.880  0.0260 -0.1631  0.0127
12929W        W29063   8.581   0.345  14.114 -0.0699 -0.1465  0.0403
12930W        W29064   2.686  17.357  10.375 -0.2772 -0.0615  0.3123
12931W        W29065  10.205   8.063  14.540 -0.4896 -0.0494  0.2328
12932W        W29066  11.362  16.798   0.448  0.1848  0.0525  0.2802
12933W        W29067  13.526  16.468  14.909 -0.1567  0.1634 -0.2696
12934W        W29068   3.831   3.796  14.314  0.0794 -0.1186  0.0194
12935W        W29069   7.499   3.802  10.775  0.0001 -0.0075  0.1581
12936W        W29070   7.199  10.265   4.267  0.0038  0.0258 -0.0602
12937W        W29071   1.885  13.416   0.824 -0.0454  0.2153 -0.4064
12938W        W29072   3.351  11.275  13.724  0.2437 -0.4378  0.1437
12939W        W29073   2.675  10.898   5.562 -0.0817  0.1663  0.0885
12940W        W29074   2.224  11.716  14.528 -0.4428  0.0646 -0.2952
12941W        W29075   1.803   7.822  11.551 -0.2096  0.0051 -0.0178
12942W        W29076   6.802  13.557  10.732 -0.2395  0.0621  0.0442
12943W        W29077   9.341  10.412   3.251 -0.0672  0.1837  0.1443
12944W        W29078  17.884   6.391   2.479  0.1779 -0.1103  0.0882
12945W        W29079  15.245  15.392  11.098  0.1855  0.4067 -0.2221
12946W        W29080  17.029   8.038  15.000  0.1755 -0.2244 -0.4490
12947W        W29081   4.712  10.113   3.690 -0.2552 -0.1481  0.1094
12948W        W29082  10.942   5.343  13.822 -0.0177 -0.1090  0.2517
12949W        W29083   2.685   0.106   4.837  0.0291  0.0319 -0.2566
12950W        W29084  15.921   4.572  15.328  0.0551 -0.2212  0.2476
12951W        W29085   8.393   7.352   4.740 -0.0249  0.0837 -0.0394
12952W        W29086  17.764   7.236  14.225 -0.2699  0.1314 -0.5736
12953W        W29087   0.612  15.892  14.902  0.2615  0.0305  0.0868
12954W        W29088   8.773   9.268   1.893  0.1868  0.1004 -0.1106
12955W        W29089  18.171   9.164   1.319 -0.2471 -0.1772 -0.0071
12956W        W29090  13.603  16.578  12.850  0.0958  0.1079 -0.1299
12957W        W29091   3.872   6.240  11.300  0.1165 -0.0311  0.0660
12958W        W29092   3.648   8.160   1.501 -0.1681 -0.0835 -0.0533
12959W        W29093  14.120   7.406  11.263  0.1798 -0.0162 -0.1764
12960W        W29094   3.753  11.086   1.285  0.1193 -0.0522  0.0740
12961W        W29095  18.248   6.454   3.197  0.2210 -0.0105  0.1638
12962W        W29096   5.351  12.402   1.794  0.2395  0.2517 -0.1133
12963W        W29097   5.007  11.841  11.669 -0.1185 -0.3720 -0.0665
12964W        W29098  12.249   4.282  15.045 -0.1486  0.0803  0.1061
12965W        W29099   7.450   6.278  14.590 -0.1886 -0.0038  0.0870
12966W        W29100  18.544  10.922  11.218 -0.0021  0.0720  0.3776
12967W        W29101   7.681   3.715  10.209 -0.1303 -0.5173 -0.0572
12968W        W29102   1.735  16.241  13.350  0.0502  0.0547 -0.1179
12969W        W29103   2.744  15.063   4.247 -0.1069  0.0653 -0.0736
12970W        W29104   8.368   5.147  11.260 -0.0332  0.2447  0.3820
12971W        W29105  12.314   6.186  12.251  0.3369  0.0146 -0.1462
12972W        W29106  11.675   0.402   9.695  0.1742 -0.0133  0.1384
12973W        W29107   1.713  10.125   3.533 -0.1563  0.0378  0.0789
12974W        W29108   4.058   6.644   1.256  0.0925 -0.0723 -0.0353
12975W        W29109   0.987   1.258  13.781 -0.0657 -0.0003 -0.2607
12976W        W29110   6.105   0.126  12.118  0.0503  0.0566  0.1822
12977W        W29111   5.573   7.287  15.147 -0.0916  0.0880 -0.2668
12978W        W29112  17.136   3.545  15.436  0.0760 -0.4165  0.0658
12979W        W29113   2.225   0.557   4.552  0.0450 -0.0662 -0.0593
12980W        W29114   0.789   1.986  15.053 -0.1815  0.0649 -0.0674
12981W        W29115  10.212   0.670  13.609 -0.1153  0.2906 -0.0861
12982W        W29116  11.529  14.389   2.439 -0.3515  0.1581  0.3517
12983W        W29117   2.162  17.095  12.470  0.1068 -0.1882 -0.0458
12984W        W29118   0.050   7.069   2.267 -0.3448  0.0451  0.1056
12985W        W29119  11.346  10.744  15.089  0.0227 -0.3452 -0.3398
12986W        W29120  10.489  12.440  14.219  0.2329 -0.0756  0.0308
12987W        W29121   6.527   8.407   2.657  0.0915  0.0743  0.1044
12988W        W29122   5.592   2.310   4.654  0.0652 -0.2486 -0.0058
12989W        W29123   6.757   9.618  11.967 -0.2544  0.1503 -0.1671
12990W        W29124  16.187   9.625  14.144 -0.3261  0.1025 -0.1206
12991W        W29125   6.556   2.051   0.501  0.1597 -0.0618  0.3484
12992W        W29126  14.327   3.589  10.637 -0.1945 -0.1003 -0.2301
12993W        W29127   0.908  12.274  12.978  0.1217  0.0985  0.3682
12994W        W29128  16.096  18.193   1.403 -0.0743  0.0431 -0.0638
12995W        W29129  16.092  15.024   3.509 -0.1403  0.0878  0.1394
12996W        W29130   7.888   6.674   4.470  0.0333 -0.1059  0.2691
12997W        W29131  15.465  18.399  13.296 -0.1645 -0.0175  0.1284
12998W        W29132   0.468   7.249  14.783  0.1675  0.0209  0.3705
12999W        W29133   4.869   7.169  13.973 -0.1180 -0.2150 -0.0457
13000W        W29134  13.341   5.892  15.551  0.3305  0.2979  0.0546
13001W        W29135   1.027  13.716  13.028  0.0358 -0.0439  0.0333
13002W        W29136   3.053  14.778  14.626 -0.1336  0.2917  0.1025
13003W        W29137  10.697  10.908   1.753 -0.1305 -0.1962  0.2549
13004W        W29138  11.098   9.600   0.136 -0.2318  0.2093 -0.0537
13005W        W29139   6.977   7.979  11.816  0.0369 -0.1602  0.1492
13006W        W29140   1.939   1.760  15.279  0.0880 -0.3436  0.0747
13007W        W29141  11.008  17.095   4.449  0.1555 -0.3464  0.1195
13008W        W29142   4.004  13.309   4.848 -0.0641  0.0291  0.2735
13009W        W29143   7.163  17.194  11.262 -0.0286  0.0831 -0.2145
13010W        W29144   6.661  15.498  10.829 -0.2834 -0.0253 -0.0108
13011W        W29145  11.741   0.475   2.225  0.3058  0.1166  0.3330
13012W        W29146   2.528   9.207  13.230 -0.1332  0.3290 -0.0955
13013W        W29147   3.009   0.360   0.018 -0.2355  0.0949  0.0253
13014W        W29148   3.299  16.499  15.234 -0.0858 -0.0553  0.1350
13015W        W29149   8.810   2.700  14.127  0.1975  0.0148  0.0716
13016W        W29150   0.115   8.263  11.890 -0.1778  0.2620  0.3115
13017W        W29151  14.462   5.127   3.130 -0.2327 -0.2114  0.2623
13018W        W29152   8.901  15.546   4.207  0.1004  0.1324  0.1597
13019W        W29153   1.223   3.369   0.916 -0.1572 -0.1281  0.1113
13020W        W29154  11.485   5.028  11.529 -0.1003 -0.0842  0.1883
13021W        W29155  11.675   4.437   5.896 -0.1572 -0.1055  0.0714
13022W        W29156   9.741   2.180  13.453 -0.0505 -0.1793  0.0447
13023W        W29157  14.571  11.209  14.053  0.0930 -0.0999 -0.4068
13024W        W29158   7.388   0.167  10.669 -0.0694 -0.0245 -0.2270
13025W        W29159   6.639  16.528   2.483  0.0207  0.4343 -0.3450
13026W        W29160   3.610  14.455   0.806 -0.0357 -0.0637 -0.0190
13027W        W29161  16.902   7.949   0.706  0.0591  0.0102 -0.2435
13028W        W29162  11.433   6.831  15.100 -0.2951 -0.0550 -0.0787
13029W        W29163  13.841   3.176   2.931  0.0833  0.1090 -0.0669
13030W        W29164  15.354   9.571  10.129 -0.0953  0.3144 -0.1011
13031W        W29165  11.121  17.744  15.445 -0.2512 -0.1169 -0.2980
13032W        W29166   4.317  16.456  14.565  0.0905  0.3479  0.2632
13033W        W29167  11.586   9.995  11.560  0.0551  0.1566 -0.0238
13034W        W29168  10.927  14.052   3.230 -0.0699  0.0017 -0.1007
13035W        W29169   9.664   6.168  13.194  0.0208  0.3712  0.0914
13036W        W29170   9.477   2.024  12.706 -0.2810  0.1563 -0.3098
13037W        W29171   7.597   6.222  11.717 -0.0872  0.1655  0.0503
13038W        W29172  15.251   0.296  14.095  0.2220 -0.1020 -0.2095
13039W        W29173  12.892   0.761   0.241 -0.2368 -0.5330 -0.1596
13040W        W29174  13.364  15.698   1.100 -0.0550 -0.0610  0.0054
13041W        W29175   1.921  13.338  13.173  0.2122 -0.0940 -0.3530
13042W        W29176   1.857   6.253   2.896 -0.3646  0.0531 -0.1137
13043W        W29177  11.915  17.170   4.121  0.1758 -0.1009 -0.0074
13044W        W29178   1.438  18.014   1.848 -0.0184  0.0319 -0.1974
13045W        W29179   3.203  10.257   3.412 -0.2656 -0.1213 -0.3413
13046W        W29180  13.967   5.445   3.295 -0.2150  0.1281  0.4050
13047W        W29181  13.766   4.276  12.062 -0.1596 -0.1605  0.1731
13048W        W29182   8.908  15.730  13.491  0.1896 -0.0827 -0.1809
13049W        W29183  15.503   7.562   1.443 -0.2987 -0.2104 -0.0949
13050W        W29184  13.901  10.142  11.038  0.1341  0.1547  0.1278
13051W        W29185  13.273  13.399   1.069 -0.0144 -0.1022 -0.1084
13052W        W29186  10.627  13.244  14.271  0.1705  0.1895  0.1757
13053W        W29187  12.095   6.634  14.448 -0.1137 -0.0910  0.1583
13054W        W29188   6.218   8.261   2.255  0.3233  0.1221  0.0703
13055W        W29189   3.544  18.170  11.211 -0.2522 -0.2852 -0.0629
13056W        W29190   5.572  10.481   0.587 -0.2410 -0.0242  0.0236
13057W        W29191  17.244   3.060   5.162  0.2070  0.0427 -0.1992
13058W        W29192   9.810   9.441  12.189 -0.0514  0.2279 -0.0793
13059W        W29193   7.350   0.239  15.080 -0.2111  0.0305 -0.1048
13060W        W29194  12.355  18.278  13.352 -0.1212  0.1225  0.1327
13061W        W29195  13.607  16.130   1.256  0.1518  0.1683 -0.0213
13062W        W29196   1.916  14.735   4.769 -0.0431  0.2067 -0.2331
13063W        W29197   5.892   2.792   4.359 -0.1609  0.3265  0.0950
13064W        W29198   3.751   5.864   4.818 -0.2882  0.0696  0.1379
13065W        W29199   7.430   7.887   0.781 -0.0551  0.0652  0.1128
13066W        W29200  16.755   3.592  12.395 -0.2308  0.0860  0.0147
13067W        W29201  18.543   3.549  11.213 -0.1822  0.4551  0.1480
13068W        W29202  18.216  18.644   4.022 -0.0103  0.2928 -0.0093
13069W        W29203   9.523   0.556  10.793  0.2120  0.1629 -0.0636
13070W        W29204  12.053   0.080  11.454  0.4819 -0.0582 -0.2381
13071W        W29205  15.229   7.954  15.480 -0.1996  0.2395  0.2130
13072W        W29206   7.139  15.351  11.754 -0.1952 -0.1093  0.0403
13073W        W29207   3.147   2.803  11.977 -0.3631  0.2184 -0.0389
13074W        W29208  14.963   6.290  12.208  0.0882  0.0548 -0.2888
13075W        W29209  11.835   9.908  15.010 -0.0650 -0.0735  0.0344
13076W        W29210   9.174  11.389   3.459 -0.0792 -0.0473  0.1226
13077W        W29211   9.422   6.578   1.089 -0.2963  0.2231 -0.1489
13078W        W29212   3.362   7.124   1.375  0.0811  0.2559 -0.2622
13079W        W29213   9.055   8.290  13.884  0.0204 -0.1309  0.0905
13080W        W29214   6.649  14.158   0.952  0.0374 -0.1052 -0.0187
13081W        W29215   5.816  11.972  13.845 -0.1069 -0.0501  0.1500
13082W        W29216   4.196   7.017  12.447  0.0216  0.0512 -0.1902
13083W        W29217   0.145   1.452   1.611  0.1474 -0.1023  0.2834
13084W        W29218  10.725  16.311   3.420 -0.2149  0.0719 -0.1989
13085W        W29219   6.213  12.365   9.393 -0.1851  0.0018  0.2520
13086W        W29220   0.421  11.321  12.237  0.0973 -0.1088 -0.2196
13087W        W29221  15.592  17.483   1.563 -0.2593  0.2289  0.0360
13088W        W29222   9.323   7.102  13.758 -0.3304  0.3988 -0.0626
13089W        W29223   6.498   7.125   0.121  0.1231  0.3033  0.2536
13090W        W29224   2.888  11.543   1.938 -0.0808  0.0214  0.0647
13091W        W29225  10.573   5.947  14.231  0.2391 -0.0361 -0.2600
13092W        W29226  17.192  15.949  10.955 -0.1152  0.0001 -0.0836
13093W        W29227   9.304   4.551   0.161 -0.0471  0.1619 -0.1368
13094W        W29228  18.405   2.880   4.758  0.1536  0.0453  0.1001
13095W        W29229  12.479   0.518  13.163 -0.0911  0.1395  0.2741
13096W        W29230   4.353   5.684   3.746  0.2463 -0.1010 -0.0343
13097W        W29231   2.078   4.031   3.557  0.0763  0.5824 -0.0897
13098W        W29232  10.539  16.676   0.670 -0.2192  0.1335 -0.2552
13099W        W29233   9.143  18.101   5.311 -0.0830  0.1092 -0.0888
13100W        W29234  14.450   9.346  14.272  0.2009  0.0682 -0.1591
13101W        W29235   9.032   6.329  14.965  0.2422 -0.1223  0.1568
13102W        W29236  16.594  16.624  15.520 -0.0565 -0.0138  0.5804
13103W        W29237  16.725   5.486  12.627 -0.1075  0.1109  0.1727
13104W        W29238   7.888   7.568   0.036 -0.0981  0.1293 -0.0308
13105W        W29239  13.397  17.987   5.080 -0.0324  0.2754  0.0714
13106W        W29240   2.309  18.077   5.156 -0.1877  0.2270  0.0473
13107W        W29241  13.489   2.284   0.030  0.1084  0.0043  0.1560
13108W        W29242   1.760  15.887  14.368  0.1036  0.2392 -0.1912
13109W        W29243  12.305  14.985  11.778  0.0356 -0.0330 -0.3395
13110W        W29244  12.236   3.946  12.125  0.2547 -0.3365 -0.1217
13111W        W29245   2.711  15.372  12.852 -0.1736  0.0290 -0.1705
13112W        W29246  13.795  18.312  12.734  0.0490  0.2326  0.2197
13113W        W29247  17.419   0.828  13.208 -0.2519  0.0425  0.1294
13114W        W29248   3.506   2.510  14.841  0.0684  0.2176 -0.0303
13115W        W29249  17.816  10.305  11.678  0.1033  0.1143 -0.0986
13116W        W29250   6.395  15.899   3.625  0.0218  0.1862 -0.0079
13117W        W29251   4.399   7.404   1.553 -0.0252  0.3307 -0.1014
13118W        W29252  13.287  18.569  14.797 -0.3748  0.1852 -0.0604
13119W        W29253   0.730   3.886   0.484 -0.4653 -0.0002  0.0878
13120W        W29254   9.596  13.400   4.436 -0.1764 -0.2739 -0.0708
13121W        W29255  12.940   0.192   0.368  0.1136 -0.1609  0.1199
13122W        W29256   4.201  13.777   2.361  0.1805  0.1832  0.0835
13123W        W29257  15.232   5.115   3.571  0.0770 -0.0566 -0.0490
13124W        W29258  18.318  18.382  14.940  0.1341 -0.1120 -0.1591
13125W        W29259   1.664  14.181   0.127  0.0205 -0.0321  0.1228
13126W        W29260  17.658   0.689  10.856  0.0402  0.2903  0.3917
13127W        W29261  14.540   2.408  13.495 -0.1863 -0.0162 -0.0607
13128W        W29262  18.157  16.204   2.646 -0.1579 -0.1406  0.0184
13129W        W29263   7.885   6.462   2.117 -0.2656  0.2922 -0.1563
13130W        W29264   1.584  12.005   5.794  0.1085 -0.1582 -0.0473
13131W        W29265   5.025   1.263  15.230  0.0218 -0.1425  0.0576
13132W        W29266  10.896   4.446   5.336 -0.0980 -0.1311  0.2581
13133W        W29267   2.392  13.572   2.057  0.0241 -0.2010 -0.3863
13134W        W29268   8.498  10.420  12.501  0.0152  0.1835 -0.0558
13135W        W29269   6.338   7.590  15.097  0.0542 -0.1017  0.0685
13136W        W29270  16.294  17.742  11.160 -0.1070  0.0533  0.0184
13137W        W29271  17.101  18.110  14.477 -0.2340 -0.0243  0.0782
13138W        W29272   5.636   1.842   1.967 -0.4328  0.1005 -0.0009
13139W        W29273   7.322  10.058   0.218  0.3029  0.2244  0.0744
13140W        W29274   0.421  13.729  15.327 -0.1700  0.4505 -0.2313
13141W        W29275   1.853  17.903   5.140 -0.1042  0.0639  0.0627
13142W        W29276   1.450   8.341  13.943 -0.1467 -0.1010  0.1872
13143W        W29277  17.408   9.288  12.587 -0.0901  0.2066  0.0777
13144W        W29278  17.782   7.123   0.479  0.1049 -0.0340 -0.1595
13145W        W29279  11.627  16.440   0.130 -0.0720 -0.1990  0.0352
13146W        W29280   1.322  16.446   3.101  0.0665 -0.0852  0.0974
13147W        W29281  13.115  18.231  11.006  0.0380 -0.1868  0.0510
13148W        W29282  17.270   6.421   1.598  0.3044  0.2118 -0.5182
13149W        W29283  18.249   2.720   0.455 -0.0306  0.0524 -0.1532
13150W        W29284   9.183  15.028  13.014  0.3275 -0.2559  0.1700
13151W        W29285   4.319  15.437  14.930 -0.0058  0.0420  0.0352
13152W        W29286   0.764   0.628   2.017 -0.0333 -0.2825  0.2558
13153W        W29287   9.672  18.486  11.287  0.0774  0.0119 -0.0066
13154W        W29288  11.402   6.665   0.259  0.0166  0.1118  0.2564
13155W        W29289   3.433   9.320  14.248 -0.2325  0.0057 -0.0038
13156W        W29290   8.265  11.621   4.486  0.1775 -0.1172  0.1206
13157W        W29291  10.233  17.477   0.173 -0.0224 -0.0305 -0.0425
13158W        W29292   9.237   8.738  12.446 -0.3058 -0.1501  0.2372
13159W        W29293   3.943  11.689  11.431  0.0792 -0.0186  0.0261
13160W        W29294   6.229   4.333  15.325  0.0707 -0.0622 -0.1081
13161W        W29295   0.484  18.235  12.044  0.0935 -0.2701  0.0101
13162W        W29296   6.297  14.124  11.787  0.1077 -0.2413  0.1276
13163W        W29297   3.509   8.679   1.460 -0.4137 -0.0593  0.1280
13164W        W29298   5.527  11.401  13.306  0.1540  0.3134  0.1678
13165W        W29299   3.707   9.419   3.548 -0.2943 -0.1395 -0.1098
13166W        W29300  17.569   4.340  10.849 -0.1437  0.2064  0.2212
13167W        W29301  18.179   8.673   3.955  0.0824  0.0223  0.0467
13168W        W29302   9.614  14.084  14.331 -0.0235  0.2118 -0.0935
13169W        W29303  12.843   9.175  11.916  0.0443 -0.3409  0.1396
13170W        W29304   3.494  16.019   2.407 -0.0652  0.0189 -0.2072
13171W        W29305   7.073   3.719  12.140 -0.1688 -0.1147  0.0707
13172W        W29306   4.657   0.606  13.698 -0.0848  0.3346  0.0177
13173W        W29307  16.334   9.086   3.653 -0.0896 -0.0727 -0.0704
13174W        W29308  12.393  15.477  12.527  0.2009  0.0061 -0.0503
13175W        W29309   1.449   4.789   3.322  0.0048 -0.1513 -0.2799
13176W        W29310   1.118   8.048   0.628  0.4155  0.1670 -0.1154
13177W        W29311  17.216  17.172  13.702 -0.0723 -0.0394  0.1044
13178W        W29312  15.769  18.075  13.969  0.5430  0.1879  0.0221
13179W        W29313  13.315  11.134  10.871  0.0259  0.0535  0.0858
13180W        W29314   1.890  14.792  14.994 -0.1871 -0.0164  0.0607
13181W        W29315  15.255  11.984   1.085 -0.0077  0.1116 -0.0910
13182W        W29316   0.027   1.238  12.777 -0.0427 -0.0146  0.0624
13183W        W29317   3.956   8.648   2.309  0.0616 -0.1261 -0.1906
13184W        W29318   2.005   8.281   0.834 -0.0376  0.0879  0.0659
13185W        W29319  16.419  17.286   0.091  0.1321 -0.2069 -0.0987
13186W        W29320   7.525  14.638   4.374  0.6741 -0.0920  0.0859
13187W        W29321  16.484   3.096  14.815 -0.1076  0.1476  0.0967
13188W        W29322   6.789   3.666  11.648  0.1726  0.0507 -0.3213
13189W        W29323   5.593   8.682   9.953  0.0908 -0.1829 -0.2562
13190W        W29324   0.211   8.931   4.524  0.1330 -0.0479 -0.0405
13191W        W29325   6.746   4.446  14.149  0.1116  0.2063 -0.0488
13192W        W29326   8.515  11.140   1.412 -0.3440 -0.2330 -0.0209
13193W        W29327  18.639   3.373   4.827  0.0228  0.1029 -0.3412
13194W        W29328   6.395   4.916   0.974  0.2251  0.1545 -0.0585
13195W        W29329   2.706   8.383   1.597 -0.0511 -0.1126  0.0186
13196W        W29330  13.065  17.517   2.188 -0.1388 -0.0860  0.1876
13197W        W29331   9.796  14.534   5.897 -0.0330  0.0802 -0.3104
13198W        W29332  16.461   5.349  12.198  0.0942  0.3650  0.0684
13199W        W29333   9.633  13.303   1.761 -0.0013 -0.0015 -0.0677
13200W        W29334  12.233   4.287   1.086  0.2303  0.1121  0.0600
13201W        W29335   9.609  11.529  11.752  0.3661 -0.0738  0.0310
13202W        W29336  15.531   5.646  13.212 -0.2996 -0.0215  0.0760
13203W        W29337  10.764   9.811   2.609  0.2897 -0.0217 -0.4135
13204W        W29338   9.581  12.204   2.829 -0.1289  0.2524  0.3587
13205W        W29339   1.870  12.084  14.081 -0.1113  0.0898  0.2224
13206W        W29340   3.350   0.716   5.194 -0.1248  0.4455 -0.0470
13207W        W29341   1.668  10.047  12.178  0.1584 -0.1286 -0.1058
13208W        W29342   6.204   8.690   1.046  0.2161  0.1657  0.4129
13209W        W29343  18.011   7.391   3.437  0.1822 -0.2841  0.0168
13210W        W29344   7.597  12.852  13.807 -0.0129 -0.1146 -0.4895
13211W        W29345   4.370   2.606   3.278 -0.0388 -0.1495 -0.0261
13212W        W29346  14.998   3.345   1.649 -0.0617  0.2313 -0.1170
13213W        W29347  16.274  17.232   0.683  0.3177 -0.2064 -0.0899
13214W        W29348  16.291  14.941  11.663 -0.0542  0.1719 -0.2055
13215W        W29349   9.675  11.116  15.167  0.2758 -0.0376  0.1192
13216W        W29350   6.010  12.611  14.290 -0.0074 -0.3885 -0.1778
13217W        W29351  14.555   8.014  13.064  0.1289  0.0242  0.3982
13218W        W29352  16.554  13.938  12.120 -0.1526  0.1020  0.0306
13219W        W29353   7.477  16.644  11.123  0.3758 -0.0307  0.0200
13220W        W29354   8.244   8.881   2.995  0.1511  0.1191 -0.0277
13221W        W29355   9.323   4.399   4.232  0.0084  0.2225 -0.1165
13222W        W29356   3.281  16.065   0.376 -0.0342  0.0492  0.1793
13223W        W29357   5.736   4.932  12.114  0.0183 -0.3003 -0.1010
13224W        W29358  16.468  11.374  14.534  0.1399 -0.0143 -0.0783
13225W        W29359  17.696   1.013  12.204 -0.0947  0.0714  0.1380
13226W        W29360  11.267  16.020  14.835  0.2548  0.0160 -0.0521
13227W        W29361  17.262  15.982   2.754 -0.0055 -0.0153  0.2309
13228W        W29362   6.798   0.246  11.199  0.0629  0.0682  0.0534
13229W        W29363  16.886   0.682  14.804 -0.2232  0.2055 -0.2362
13230W        W29364   9.767  12.530   0.625 -0.0208 -0.2531  0.1444
13231W        W29365  17.164   7.727  15.410 -0.1379  0.0583 -0.3616
13232W        W29366   9.283   9.419  11.726 -0.0290  0.1259 -0.0633
13233W        W29367  14.753  18.114  12.618 -0.1784  0.2687 -0.1473
13234W        W29368   3.548   5.633  15.260  0.0853  0.1350 -0.0587
13235W        W29369  15.382  18.083   4.250 -0.3272 -0.3517 -0.0611
13236W        W29370   7.415  14.869  15.117  0.5559  0.2905 -0.0205
13237W        W29371   5.080   5.066  11.937 -0.0310 -0.0665 -0.1568
13238W        W29372   0.625  18.176  14.767 -0.3052 -0.0272  0.0071
13239W        W29373  14.792   2.269  14.020  0.0826  0.1269 -0.0782
13240W        W29374  11.675  15.846  11.465  0.0588 -0.2942  0.0961
13241W        W29375  15.815  10.209   0.005 -0.1623 -0.0808  0.1609
13242W        W29376   3.470   1.525   1.906  0.1161 -0.1900 -0.2352
13243W        W29377   1.428  10.324   4.014 -0.0095 -0.1354  0.3346
13244W        W29378  16.724   6.540   0.163  0.3232 -0.1398 -0.1087
13245W        W29379   6.412  13.184  10.909 -0.1062 -0.2081  0.2015
13246W        W29380  17.387  13.320  10.245 -0.1722 -0.2608  0.1944
13247W        W29381   9.758  12.991  13.697 -0.2239  0.0327 -0.0837
13248W        W29382  18.463  11.093  13.932  0.2556 -0.2121  0.0426
13249W        W29383  10.672   0.314   3.677  0.1428  0.1574 -0.1840
13250W        W29384   6.563   6.698   1.761  0.0943 -0.1298 -0.4807
13251W        W29385   1.336   9.116  13.717 -0.0190 -0.3504 -0.1361
13252W        W29386   8.338   9.171   4.852 -0.3040 -0.1345 -0.4152
13253W        W29387   3.883   7.778   5.048 -0.0684 -0.0885  0.2712
13254W        W29388  16.591  15.107   3.836  0.2840  0.1948  0.1444
13255W        W29389   3.237  13.272  12.787  0.3750  0.0169 -0.0592
13256W        W29390  14.100   3.893  13.141  0.1230  0.1704 -0.2806
13257W        W29391   2.058  15.664   0.940  0.1425 -0.2720  0.2298
13258W        W29392   8.584   5.192   1.902  0.0952  0.3258  0.0603
13259W        W29393   7.119   1.702  14.575 -0.0537  0.0618  0.2429
13260W        W29394  15.562   9.150  12.353 -0.1604  0.0634 -0.3749
13261W        W29395   0.007  11.496  13.824 -0.0828 -0.2352 -0.0894
13262W        W29396   9.271   6.362   1.556  0.2361 -0.0742 -0.2820
13263W        W29397  10.814   3.130  13.037  0.1680  0.3520 -0.1228
13264W        W29398   7.919  15.336   4.259  0.1185  0.3706  0.1535
13265W        W29399   4.097  13.310  15.437 -0.2395 -0.1411  0.0298
13266W        W29400   1.524   7.281  14.647  0.0802  0.2719  0.1182
13267W        W29401  13.153   8.903  11.642 -0.1507 -0.3202  0.0595
13268W        W29402   8.127  17.447   2.749  0.0575  0.0930  0.0848
13269W        W29403   5.730  16.510  13.189 -0.1499 -0.0182 -0.0022
13270W        W29404   8.779   6.714   4.362 -0.0019 -0.2457  0.2064
13271W        W29405  17.186   1.531   4.647 -0.0091 -0.1064 -0.3869
13272W        W29406   4.168  12.039  12.179  0.1772 -0.0948  0.0389
13273W        W29407   4.267  13.022  11.772  0.1726 -0.1100  0.0164
13274W        W29408   9.762   0.968   4.516 -0.0453  0.0006 -0.0555
13275W        W29409  17.998  15.516  14.244 -0.2227 -0.1645  0.1628
13276W        W29410  11.360   0.860   1.597 -0.1162  0.3092 -0.1595
13277W        W29411  17.208  14.455   0.756 -0.2156  0.0019  0.1474
13278W        W29412   5.928  18.525   2.117 -0.1166 -0.0986  0.0078
13279W        W29413   7.041  11.868   1.047 -0.1539 -0.0195  0.1277
13280W        W29414  17.437   4.467   1.007  0.0068 -0.1731 -0.3741
13281W        W29415  16.261  13.670   1.685 -0.2459 -0.0147 -0.0300
13282W        W29416   3.792  15.932  12.307  0.3196 -0.2363 -0.0896
13283W        W29417   4.513   6.833   0.449 -0.2157  0.0218 -0.0852
13284W        W29418   5.853  10.287  11.715 -0.2219  0.2970  0.4937
13285W        W29419   2.277  17.637  15.044 -0.1953 -0.1318  0.0459
13286W        W29420   2.572   3.907   3.392 -0.0451  0.0718 -0.0440
13287W        W29421   5.860   8.533   4.464 -0.1066 -0.2378 -0.0006
13288W        W29422   0.164   6.717   4.572  0.4222  0.0556 -0.1461
13289W        W29423   7.263  16.437   0.188 -0.1738  0.2785 -0.0371
13290W        W29424  10.975  17.765   1.103 -0.3897 -0.1281 -0.3925
13291W        W29425   3.745   3.884  11.615  0.4250 -0.1086 -0.2006
13292W        W29426  17.290  17.303   1.976  0.1750  0.1119  0.0902
13293W        W29427  14.836   6.925   1.224 -0.2969 -0.2405 -0.2611
13294W        W29428   3.706   5.377   1.399  0.0757  0.1666  0.0732
13295W        W29429   5.319   9.549  11.645 -0.4796  0.5350  0.1255
13296W        W29430  10.062   4.039   1.636 -0.0066 -0.1699  0.1097
13297W        W29431   4.195   8.764   4.237 -0.0302 -0.0055  0.4082
13298W        W29432  16.855  10.866   3.344  0.1744  0.1365  0.0062
13299W        W29433   2.812  18.388  12.970 -0.3542  0.0807  0.1374
13300W        W29434   2.471   4.138   3.850 -0.0505 -0.2993  0.0763
13301W        W29435   6.107   5.758   1.514 -0.2157  0.0489 -0.0089
13302W        W29436  15.360  11.327  13.760 -0.1746  0.1280 -0.2849
13303W        W29437  11.643  10.525  11.858  0.3259  0.0957  0.0506
13304W        W29438   5.374  17.421  12.128  0.0629 -0.1337  0.0376
13305W        W29439  15.395  15.674   2.046 -0.4554  0.2323 -0.0107
13306W        W29440   1.791   9.284   5.194 -0.0397  0.1863  0.0766
13307W        W29441  11.245   3.105   4.980 -0.2220 -0.2150 -0.2505
13308W        W29442   1.009   7.061   3.559 -0.1172 -0.4312 -0.0855
13309W        W29443   9.671  14.958  14.300 -0.1697  0.0590 -0.0323
13310W        W29444  12.879   3.328  11.897  0.0350 -0.2819  0.0849
13311W        W29445   7.088   5.446   4.655  0.0753 -0.3095  0.0684
13312W        W29446  11.713  15.995   0.520 -0.1287 -0.1699 -0.0206
13313W        W29447   5.173  10.341   4.539  0.0972  0.0268  0.1844
13314W        W29448  11.212  13.362   4.650  0.1142 -0.1987 -0.1345
13315W        W29449   7.946  16.320   2.979  0.0877 -0.3120 -0.1635
13316W        W29450  16.373   3.657  15.518 -0.2578 -0.4287  0.0064
13317W        W29451  17.395  10.647   4.487  0.0624  0.0766  0.1651
13318W        W29452  18.422   4.653   1.255 -0.0325  0.1758 -0.1259
13319W        W29453   7.142  12.855  13.023 -0.0314  0.3463 -0.0472
13320W        W29454   6.138  10.074  12.108 -0.0313  0.2058 -0.0474
13321W        W29455  11.757  11.217  10.914  0.0438 -0.1357 -0.1428
13322W        W29456   2.592   4.508   4.999 -0.0364 -0.2830  0.1920
13323W        W29457   7.030   5.236   0.003  0.1203  0.2197 -0.0439
13324W        W29458   9.256   1.948  11.381  0.0343 -0.0490  0.0089
13325W        W29459   7.260  10.152  14.020  0.0096  0.1425 -0.2909
13326W        W29460  18.446   2.767   5.321 -0.2227 -0.0848 -0.1462
13327W        W29461   3.417  13.791  14.451  0.2018 -0.2092  0.0971
13328W        W29462  10.157   1.416   3.079 -0.1427  0.0962  0.0864
13329W        W29463   5.969  13.642   1.958 -0.4417  0.0712 -0.1014
13330W        W29464  15.575   7.578  15.411  0.0282 -0.0043  0.1365
13331W        W29465   3.025   1.748  14.668  0.0976  0.0889  0.3254
13332W        W29466  15.843   4.558  12.341  0.0682  0.0914 -0.1373
13333W        W29467   6.641  14.949   2.658 -0.1515 -0.0327 -0.1106
13334W        W29468   7.123   7.748   3.228  0.0654 -0.1644  0.0484
13335W        W29469   5.849   0.658   5.208 -0.3546  0.0904 -0.0356
13336W        W29470  14.772   2.139  14.531  0.1499  0.0118  0.0332
13337W        W29471   5.790   1.534   1.529  0.1162  0.1287 -0.4239
13338W        W29472   9.601  12.531  11.948  0.2934  0.1298 -0.1110
13339W        W29473  10.265   6.149   1.573 -0.3400  0.1367 -0.0441
13340W        W29474  18.485  15.987   1.766 -0.1604 -0.0922 -0.3000
13341W        W29475   8.894  11.195   5.497 -0.0288  0.1515 -0.2824
13342W        W29476  17.393   0.929   2.285  0.0212  0.0943 -0.2130
13343W        W29477  17.644   0.401   2.464 -0.0368  0.1002  0.1197
13344W        W29478   2.615   8.863  14.658 -0.0188  0.0190  0.0172
13345W        W29479  12.362  11.195   2.278  0.0683 -0.1188 -0.1853
13346W        W29480   0.655  16.378   2.445 -0.1522  0.0705 -0.3480
13347W        W29481   4.286  18.640  11.173 -0.1351  0.3005 -0.3761
13348W        W29482   5.239  14.107   1.743 -0.2565 -0.2380 -0.2502
13349W        W29483  11.139  15.476  12.981  0.0719  0.2172 -0.0838
13350W        W29484  17.558   9.900  11.900 -0.1848 -0.2228  0.2061
13351W        W29485   2.044   3.256   3.637 -0.2688 -0.0682 -0.1250
13352W        W29486  17.699  14.002  15.331 -0.0480 -0.2807  0.4434
13353W        W29487   0.554   2.125   2.948 -0.2422  0.2404 -0.0129
13354W        W29488   2.366  16.618  11.408 -0.0134 -0.1842  0.1037
13355W        W29489   4.214  16.998   9.360  0.1079 -0.0116 -0.1237
13356W        W29490  10.682   4.394   3.078 -0.0393 -0.0697 -0.0225
13357W        W29491   2.122  12.555   3.640 -0.0188  0.0434  0.1789
13358W        W29492  11.623  15.931   3.506  0.0276 -0.1022  0.1297
13359W        W29493   7.872  17.005  13.473  0.0541 -0.0858  0.0164
13360W        W29494  14.833   9.660   3.298  0.0988 -0.0074 -0.2860
13361W        W29495  11.520   6.498   1.638 -0.0245 -0.1948  0.2409
13362W        W29496   3.696  18.129   1.702 -0.0502  0.2235  0.1064
13363W        W29497  15.137   4.951  10.330 -0.1400 -0.3608 -0.0012
13364W        W29498  13.346   7.163  14.267 -0.0792 -0.2555 -0.2631
13365W        W29499   6.026   7.136  13.365 -0.0312 -0.2274 -0.2314
13366W        W29500   5.415   1.788   3.600  0.2939  0.2767 -0.3217
13367W        W29501   3.162  10.052  15.263  0.0843  0.0731  0.0881
13368W        W29502  13.362   9.004  12.751  0.2439  0.0869 -0.1116
13369W        W29503  10.626   4.258   4.377 -0.0417 -0.1650 -0.0616
13370W        W29504  13.057  16.706   1.150 -0.0441  0.0889 -0.5903
13371W        W29505   4.703  10.850   0.499 -0.1622 -0.0891  0.0874
13372W        W29506   9.052   2.731  13.443  0.1089  0.0710 -0.0946
13373W        W29507  18.275  16.755  12.670 -0.1723 -0.1055  0.2253
13374W        W29508  13.143   2.275  14.665  0.1095  0.0304 -0.0552
13375W        W29509   2.074   2.910   2.006 -0.3611 -0.0562 -0.3116
13376W        W29510   8.403  13.374  12.343  0.0516 -0.2896  0.0135
13377W        W29511  12.644  18.112  10.812 -0.2152  0.1251 -0.2750
13378W        W29512   0.531  12.275   0.248 -0.0458  0.0128 -0.3234
13379W        W29513  10.518  13.122   3.369  0.0089  0.1397  0.0830
13380W        W29514  12.341   1.038  14.605  0.1229 -0.0645  0.0301
13381W        W29515   4.177   2.879  14.654  0.3184  0.3164  0.0507
13382W        W29516  10.959   8.203  13.303 -0.1140  0.1132  0.2056
13383W        W29517  12.193  14.503  15.260 -0.0855 -0.0177  0.0005
13384W        W29518   2.618  15.541  14.120 -0.1836 -0.2412 -0.2171
13385W        W29519   0.518  10.340  11.377  0.1383  0.0773  0.0367
13386W        W29520  15.251   7.413   2.710  0.0642  0.1580  0.3263
13387W        W29521   3.854   9.688  10.584 -0.0850 -0.0107 -0.2742
13388W        W29522   2.419   6.418   4.196  0.3044  0.2237 -0.0120
13389W        W29523   0.684  18.654  12.741 -0.3526 -0.4343  0.0588
13390W        W29524   5.762   6.154  12.893 -0.2425 -0.1025  0.1432
13391W        W29525   1.442   3.115  13.301 -0.0938  0.0892  0.0702
13392W        W29526   1.268   8.031   6.061  0.1626  0.0550  0.0427
13393W        W29527   9.842  13.842  11.307  0.0236 -0.0605 -0.1125
13394W        W29528  14.069   7.201  10.783 -0.0728  0.3005  0.0477
13395W        W29529   7.854  11.131   1.296  0.0296  0.0915  0.0183
13396W        W29530  15.122  17.442  13.695 -0.2198  0.0373  0.0080
13397W        W29531  18.050  10.823  10.669 -0.1318 -0.3349  0.0663
13398W        W29532  17.384   9.987   1.800 -0.2444  0.2127  0.0876
13399W        W29533   3.643   7.307   1.862  0.2748  0.2773 -0.0736
13400W        W29534  15.005  14.282  14.149 -0.0154  0.3249 -0.1364
13401W        W29535  10.052   2.863  14.111  0.0711  0.1915  0.0745
13402W        W29536   8.175  11.442  13.523 -0.0267  0.1417  0.1508
13403W        W29537  15.901  11.071   1.334 -0.1806 -0.1701 -0.3052
13404W        W29538  12.460   3.601   5.360  0.2152 -0.2901  0.2176
13405W        W29539  12.074   6.257  14.798  0.0165  0.1276  0.1182
13406W        W29540  12.213   7.195  15.224  0.0588 -0.2761 -0.0735
13407W        W29541   7.042   5.771  10.957 -0.1784 -0.0765 -0.1268
13408W        W29542  10.926  15.014   2.946  0.0325 -0.0809 -0.1686
13409W        W29543   6.277   0.325   2.074  0.1603  0.1871  0.3367
13410W        W29544  12.958   6.366   3.690 -0.0711 -0.1089 -0.2174
13411W        W29545  16.633   0.548  12.819  0.1640 -0.1924  0.1706
13412W        W29546   8.096  12.141  10.937 -0.0385 -0.0322  0.3898
13413W        W29547   1.643  10.874   3.376 -0.0017  0.1021  0.0476
13414W        W29548  14.766  15.251  13.498  0.2741  0.0065  0.1121
13415W        W29549  18.341   9.668  14.043 -0.0927  0.2061 -0.2274
13416W        W29550   8.193   3.895  15.559 -0.1386  0.0124 -0.1325
13417W        W29551  15.412   3.039   1.767 -0.1128 -0.0920 -0.1789
13418W        W29552   0.860   3.976   1.710 -0.1540  0.0246  0.0450
13419W        W29553   6.272  11.487   3.285 -0.1303 -0.1860 -0.0016
13420W        W29554  18.528   1.214  13.540 -0.3524  0.1164  0.3431
13421W        W29555  11.332   1.302  12.235  0.2352  0.0588  0.0987
13422W        W29556  13.783   4.556   1.076 -0.3689 -0.1652  0.1890
13423W        W29557   6.467  10.122  11.097  0.1155  0.0540 -0.1142
13424W        W29558  17.908   4.238   2.081 -0.0184  0.0048  0.0970
13425W        W29559  17.427  15.267  14.171  0.1766  0.2727  0.1625
13426W        W29560  14.274   3.842  13.683  0.3453 -0.2920  0.0655
13427W        W29561   4.863   9.346  11.536  0.2202 -0.5103 -0.2929
13428W        W29562   7.352  12.712   3.209  0.1285 -0.2670  0.0559
13429W        W29563  11.045   5.287  11.494 -0.2795 -0.0198 -0.1174
13430W        W29564  11.734  13.517   4.563  0.2000  0.4120  0.1778
13431W        W29565   3.192  16.447   1.164 -0.4307 -0.1760 -0.2664
13432W        W29566  18.480  13.244  11.206 -0.2464 -0.2122 -0.1485
13433W        W29567  18.186  18.297   5.391  0.0986 -0.1575 -0.0960
13434W        W29568  14.547  10.489  13.449  0.1260 -0.0653  0.1511
13435W        W29569   9.133   3.568   0.552 -0.0010 -0.1965 -0.0174
13436W        W29570  14.502   4.432   1.766  0.0076  0.0271 -0.2124
13437W        W29571  10.253   7.549   4.402  0.2803  0.0387  0.3557
13438W        W29572   8.358   7.145   4.252  0.2473 -0.1028  0.3894
13439W        W29573   4.609   9.218   1.719  0.1283  0.1915  0.0591
13440W        W29574   5.221  16.227  11.490 -0.0401  0.1397 -0.3132
13441W        W29575   4.500  11.273  10.476  0.0023  0.1418  0.0503
13442W        W29576  14.271   4.561  13.173  0.2956 -0.2032  0.1881
13443W        W29577  10.202  13.434  14.152  0.1773 -0.1438 -0.3450
13444W        W29578  10.547   9.363  10.593 -0.1554  0.5452  0.2284
13445W        W29579   0.562   1.967   3.814 -0.1878 -0.0865  0.0120
13446W        W29580   1.089  12.994   2.989 -0.0452 -0.2017 -0.2058
13447W        W29581  16.698  14.951  11.946  0.2135  0.0397 -0.1787
13448W        W29582   8.100   0.761  14.671  0.0687 -0.1150 -0.5455
13449W        W29583   9.640  12.792  15.242 -0.0313 -0.0175 -0.2620
13450W        W29584  13.072   1.585   4.502 -0.0277  0.3122  0.0944
13451W        W29585  11.685   6.222   1.968 -0.2730  0.0773  0.2191
13452W        W29586  14.486   0.566   5.036  0.0593  0.1360  0.1382
13453W        W29587   5.828   7.894   2.191 -0.0278 -0.0430 -0.2566
13454W        W29588  16.303   0.579   1.047  0.2013 -0.1197 -0.0239
13455W        W29589   5.586   4.050  10.924 -0.2281  0.2480  0.2211
13456W        W29590   1.302   9.238  12.043  0.0115  0.1984  0.2908
13457W        W29591   1.402  17.108   1.125  0.1983  0.2785  0.1816
13458W        W29592   4.064  11.332  10.820  0.0873  0.1249  0.0664
13459W        W29593  10.464  15.153  11.293  0.1431 -0.0253 -0.0070
13460W        W29594  13.282   1.860   4.985 -0.1331 -0.1756  0.0431
13461W        W29595  12.035   6.310  11.849 -0.0854 -0.0833 -0.2638
13462W        W29596   4.413  11.587  12.741 -0.1665  0.0061 -0.1261
13463W        W29597   5.975  15.195  12.453  0.1341  0.1419  0.0807
13464W        W29598   5.388   2.703   3.314  0.3250  0.0085 -0.1046
13465W        W29599  10.014  16.401  14.855  0.2236 -0.0768  0.0746
13466W        W29600   4.319  13.692   0.255  0.0514  0.0792  0.1677
13467W        W29601  10.888   2.346  14.300 -0.2393  0.1979  0.0399
13468W        W29602  10.023   4.970  15.452 -0.0757  0.1207 -0.0524
13469W        W29603  13.051   9.423   3.097  0.4316 -0.0550 -0.3110
13470W        W29604   0.567   0.841  13.197  0.0061 -0.3790 -0.1586
13471W        W29605  17.824  12.974  14.061  0.1793 -0.3151  0.1721
13472W        W29606  17.318   2.953   4.182  0.3757  0.0658 -0.3228
13473W        W29607  13.084   4.137  10.670 -0.0274  0.0846  0.3829
13474W        W29608   2.623   1.967   0.794 -0.0442  0.1286 -0.3616
13475W        W29609   6.945   8.100   1.592  0.1198 -0.0011 -0.0135
13476W        W29610  12.394  10.638   4.811 -0.0749 -0.0260 -0.2683
13477W        W29611   8.387  15.692  13.440  0.1123  0.0701 -0.0118
13478W        W29612   7.827  16.340   0.202 -0.1139 -0.0155 -0.0679
13479W        W29613   7.923  17.740   1.978  0.2613 -0.2278  0.0776
13480W        W29614   8.017  13.236   2.983  0.0704  0.0491 -0.1719
13481W        W29615   5.740   3.885  14.877  0.1103  0.0158 -0.0581
13482W        W29616   5.902   5.210  11.758 -0.0861  0.1303 -0.2062
13483W        W29617  10.304  12.907  14.079 -0.2730  0.0016 -0.2489
13484W        W29618  14.426  16.281   0.832  0.0775 -0.0262  0.2468
13485W        W29619   3.318   6.111   4.838 -0.1534 -0.2088  0.0184
13486W        W29620   1.384  15.837  13.348 -0.1087 -0.0775  0.3511
13487W        W29621   1.810  15.969  11.256 -0.1106 -0.0529 -0.0192
13488W        W29622   4.894  16.775   0.552  0.0315 -0.0481 -0.3881
13489W        W29623   3.570   8.168  11.752 -0.1929  0.0594  0.0003
13490W        W29624  11.361   6.964   4.997  0.1372  0.1035 -0.0621
13491W        W29625   9.693  13.182   3.245  0.3843 -0.1038  0.2281
13492W        W29626   4.300  10.308  11.733 -0.1061  0.4712 -0.1140
13493W        W29627  16.733  11.689   4.992 -0.0652  0.4002 -0.3850
13494W        W29628   4.245   0.722   4.825  0.1828  0.3809  0.0918
13495W        W29629  16.123  15.953  14.488 -0.2167 -0.1499 -0.0544
13496W        W29630  11.303  13.039   2.125  0.2569 -0.0100  0.0724
13497W        W29631   9.504   7.936  12.151  0.2144 -0.1685 -0.1144
13498W        W29632  11.031   9.503   5.126 -0.2910 -0.1840  0.2119
13499W        W29633  11.578   5.902   4.295 -0.2331 -0.0334  0.0277
13500W        W29634   1.196   3.325   2.376  0.3797 -0.1091  0.4164
13501W        W29635   1.534  12.481   4.593  0.1192 -0.3663 -0.1539
13502W        W29636   2.931  16.806   4.758  0.2452 -0.1479 -0.0030
13503W        W29637   8.067   4.765   0.830 -0.1260 -0.0561  0.0805
13504W        W29638  10.351  15.831   0.433 -0.0180  0.1275  0.1136
13505W        W29639  17.123  12.841  13.521 -0.0334 -0.1871 -0.2806
13506W        W29640  13.987  15.048   4.871 -0.0098  0.1997 -0.2165
13507W        W29641   6.851  16.179   2.187 -0.0925  0.0411  0.2356
13508W        W29642   1.934  14.445   2.297 -0.0037  0.2189 -0.0901
13509W        W29643  17.723   8.479   4.048  0.0727  0.1380 -0.1989
13510W        W29644   1.811  13.085   4.067  0.1522  0.1732  0.1379
13511W        W29645  15.011  14.468   2.897 -0.0280 -0.3569  0.0797
13512W        W29646  13.181   4.867  12.610  0.0131  0.1107 -0.1186
13513W        W29647   9.163  11.317  11.460 -0.1196 -0.0263 -0.0540
13514W        W29648  13.713  13.165   0.159  0.0302  0.0091 -0.0073
13515W        W29649  18.702   3.834   1.945  0.1999  0.1666 -0.2557
13516W        W29650   7.229  12.651   1.000 -0.4463  0.2840 -0.1684
13517W        W29651  14.218  15.018   2.990 -0.3219 -0.0104  0.3280
13518W        W29652  10.180   4.992   0.291 -0.1064  0.0542 -0.1588
13519W        W29653  14.746   0.972   4.957  0.0215 -0.3470  0.0220
13520W        W29654  12.621   7.496  11.131  0.1225 -0.1934  0.1752
13521W        W29655   7.520  14.415   1.181  0.0574 -0.1772 -0.0298
13522W        W29656  11.412   4.956  13.358  0.0878 -0.2383 -0.0803
13523W        W29657   0.312   4.232  10.470 -0.0514 -0.1367 -0.2196
13524W        W29658  18.430   8.489  13.643 -0.0534  0.3787  0.0632
13525W        W29659   9.782   9.237   2.215 -0.2342 -0.1999 -0.1033
13526W        W29660  16.867   1.102   9.914  0.1020 -0.1487  0.1987
13527W        W29661  14.426  12.550   0.331  0.1273  0.1980 -0.1594
13528W        W29662  12.332  16.695   1.362 -0.2188 -0.2254  0.0947
13529W        W29663   1.392  14.711   3.541 -0.0889  0.2855 -0.0408
13530W        W29664   3.508   5.845   1.442  0.0722 -0.1276 -0.1002
13531W        W29665   9.709   9.909   1.050 -0.1861 -0.3076  0.1038
13532W        W29666   3.847  10.234   4.080  0.0720 -0.0479  0.0163
13533W        W29667   8.684   5.812   0.182 -0.1094  0.2381 -0.2604
13534W        W29668   3.446  17.139   4.701  0.0766  0.0992 -0.2860
13535W        W29669   6.742   3.379  13.128 -0.1181  0.2104 -0.1256
13536W        W29670   9.940  12.535  12.949  0.1438  0.3248  0.0924
13537W        W29671  10.361  15.427  13.164 -0.2209 -0.3878  0.0928
13538W        W29672  18.552  10.696  14.355  0.0292  0.0066 -0.0858
13539W        W29673   0.722  13.237  13.261  0.2216  0.0901 -0.0096
13540W        W29674  16.739   9.567  13.404  0.2335  0.4213 -0.0315
13541W        W29675  11.317   4.695  15.137  0.0135 -0.2392 -0.3499
13542W        W29676   5.373   5.743  14.320  0.2222 -0.1465 -0.3034
13543W        W29677   8.197  11.427   1.769  0.2048  0.2238 -0.2599
13544W        W29678  18.423  11.024   5.288  0.1257  0.1284 -0.1984
13545W        W29679  12.491  16.257   2.599 -0.3570  0.0663  0.1434
13546W        W29680   6.315  18.241   0.404 -0.1412 -0.0204 -0.1194
13547W        W29681  13.216   5.557   0.756 -0.1182  0.0888 -0.0758
13548W        W29682  10.564   3.645  13.008 -0.2394 -0.4312 -0.0708
13549W        W29683  16.604  18.039  11.390  0.1475  0.2952 -0.0639
13550W        W29684  15.018   6.484  13.072  0.1193  0.1565 -0.1911
13551W        W29685  18.049  10.756  15.469  0.0804  0.0548 -0.0226
13552W        W29686   8.748  18.267   3.530  0.0517  0.0791  0.1129
13553W        W29687   0.587   5.474   3.910  0.1546 -0.0543 -0.1924
13554W        W29688  16.264   2.238   0.798 -0.2726 -0.0331 -0.2430
13555W        W29689  11.823   4.931   3.557  0.1481 -0.1823  0.1303
13556W        W29690   9.307   2.860  12.946  0.0656  0.2519 -0.0871
13557W        W29691  11.859   4.018   1.374 -0.1170  0.0915  0.2151
13558W        W29692  15.236  12.194  11.538 -0.0203 -0.0561  0.1423
13559W        W29693  17.880   4.140   2.824 -0.0333  0.2595  0.2293
13560W        W29694  14.498   9.327   1.625 -0.1040 -0.0175  0.1722
13561W        W29695   0.930   7.095  12.649  0.0069  0.0590 -0.0236
13562W        W29696  18.142   0.897   1.837  0.0886 -0.0359 -0.1241
13563W        W29697   3.935  16.787  15.436  0.0531 -0.1914  0.0876
13564W        W29698  10.570   7.243   0.217 -0.1910  0.1240 -0.0183
13565W        W29699   6.199   9.254  10.992  0.1205  0.2479 -0.2286
13566W        W29700  11.368   5.033   3.347 -0.0647 -0.2344 -0.1161
13567W        W29701   6.441  11.518   1.872  0.1072  0.2763 -0.0187
13568W        W29702   0.392  17.330  12.741 -0.2360  0.1671  0.0802
13569W        W29703  17.587   3.906   1.876 -0.1614  0.1668  0.1276
13570W        W29704   3.247  11.119  11.063  0.1713  0.0733 -0.0082
13571W        W29705   6.854  16.873   0.941  0.0624  0.2431  0.0951
13572W        W29706   5.922  17.178  15.123 -0.0572 -0.0285 -0.0396
13573W        W29707   5.543   6.339   4.365  0.3509  0.0727 -0.2809
13574W        W29708  17.211   3.355   4.616  0.1738 -0.0751  0.0449
13575W        W29709   9.555   3.538  13.120  0.1798  0.1169  0.2354
13576W        W29710   5.117  17.255   0.482 -0.0312 -0.2603  0.2502
13577W        W29711  18.572   4.849   2.787 -0.0676 -0.2156 -0.0680
13578W        W29712   4.054  14.227   4.107 -0.2343  0.0562 -0.0531
13579W        W29713   9.056   7.014  11.960  0.0570  0.0025 -0.0318
13580W        W29714  17.216   7.854  13.025  0.1067  0.2604  0.1900
13581W        W29715  16.438  11.004   1.238  0.0457 -0.1418 -0.0619
13582W        W29716   0.431   0.947   1.828 -0.1756  0.4059  0.1033
13583W        W29717   1.179   5.594  12.605 -0.0126 -0.1676 -0.1795
13584W        W29718  13.819   7.017  15.551  0.0113 -0.0203  0.1331
13585W        W29719   8.837   8.758   0.308 -0.2077 -0.0052  0.5860
13586W        W29720   8.286  17.483  10.503  0.0649 -0.0899 -0.0253
13587W        W29721   1.153   7.081   0.614  0.0597 -0.0371  0.1010
13588W        W29722   2.287   4.791  12.069  0.2175  0.1290  0.1313
13589W        W29723  16.852   6.812   1.495 -0.0225 -0.0005  0.1886
13590W        W29724   1.760   2.960  12.434  0.2251  0.0381  0.0356
13591W        W29725  14.504  14.903  12.457  0.3591 -0.0474 -0.0735
13592W        W29726  15.277   5.906   4.355 -0.2143 -0.2470  0.0869
13593W        W29727   7.983   6.039  11.403 -0.0420  0.0861  0.1579
13594W        W29728  17.923   5.026   3.866 -0.1463  0.0265 -0.1274
13595W        W29729  13.322  16.903   0.272  0.2350  0.2058  0.1041
13596W        W29730  16.172  11.302   1.709 -0.0070 -0.0779 -0.0304
13597W        W29731   0.947   4.155  14.595  0.2416  0.0657 -0.0038
13598W        W29732  15.385  11.234   5.368 -0.2659 -0.1658 -0.0212
13599W        W29733   5.245  17.171   5.076  0.2090  0.1214  0.1695
13600W        W29734   0.175   5.537   5.134 -0.3590 -0.0721 -0.2495
13601W        W29735   1.300  16.857  14.790 -0.2307  0.0850  0.3930
13602W        W29736   2.107  16.992   4.598 -0.0890  0.4199  0.1129
13603W        W29737  18.161   0.667  12.248 -0.2249 -0.2350 -0.2188
13604W        W29738   9.599   0.356   1.425  0.1508 -0.0155 -0.0343
13605W        W29739   5.049  11.324   4.102 -0.0591 -0.2239 -0.1037
13606W        W29740  15.563   8.730   4.695 -0.0181  0.1756 -0.1370
13607W        W29741  13.924   9.706  12.468 -0.0037 -0.0914  0.0420
13608W        W29742  16.373   3.862  12.618  0.2002 -0.1399  0.0363
13609W        W29743  14.402   2.959   0.037  0.0474  0.0019 -0.1586
13610W        W29744   6.922  14.892  15.008 -0.0219 -0.2449  0.2047
13611W        W29745  10.831  14.209  13.981 -0.2860  0.4202  0.0384
13612W        W29746  15.688  10.648  12.121 -0.0912  0.0481 -0.0388
13613W        W29747  15.597   5.900  13.695  0.1078 -0.2022  0.2320
13614W        W29748  14.628   5.351  11.553  0.0242  0.1531  0.0697
13615W        W29749   0.181  16.094  12.575  0.1052  0.2571 -0.2691
13616W        W29750  17.777   4.380   1.609  0.0460 -0.0194 -0.0330
13617W        W29751   7.302   5.230   3.719 -0.1194 -0.1283 -0.3831
13618W        W29752  18.579  12.841  15.127 -0.3596 -0.1015  0.2014
13619W        W29753   6.551   3.691   3.467 -0.2032 -0.0924  0.1679
13620W        W29754  17.950   7.980  12.794  0.1853 -0.2929 -0.1880
13621W        W29755  13.174   0.262  14.530 -0.0299 -0.3637 -0.0230
13622W        W29756   5.791  15.206   1.582  0.1766 -0.1794  0.1255
13623W        W29757   4.849   2.997   1.328 -0.0818 -0.3896 -0.1500
13624W        W29758  11.655  14.224  13.515  0.2867  0.0434 -0.0316
13625W        W29759  10.030   6.322  13.540 -0.2297 -0.0424 -0.1400
13626W        W29760   3.669   8.939   5.892 -0.3069  0.1597 -0.3486
13627W        W29761  12.365   7.808   5.237  0.1124  0.0961 -0.1302
13628W        W29762  12.198  10.085   3.940 -0.0415 -0.2280  0.0979
13629W        W29763  11.633   2.104  13.289 -0.0663  0.0424  0.3413
13630W        W29764  13.344   6.234   1.345  0.1637  0.3702 -0.1345
13631W        W29765   5.617   9.972   4.447 -0.0007  0.2265 -0.4974
13632W        W29766  18.182   8.075  13.260 -0.0561 -0.1160 -0.1441
13633W        W29767  10.730  16.458   1.511  0.1201  0.2244 -0.1203
13634W        W29768  13.677   0.794   1.394 -0.0796 -0.1216 -0.1084
13635W        W29769  16.092   6.727   3.992 -0.1073  0.2219  0.1208
13636W        W29770   8.235   8.290  12.300 -0.1031  0.3449 -0.3770
13637W        W29771   7.351  18.533   1.330 -0.0113  0.0358 -0.0420
13638W        W29772  17.961  15.708  15.232  0.1846 -0.0267  0.0656
13639W        W29773  14.504   9.889   4.136 -0.1452 -0.0575 -0.1861
13640W        W29774  15.701   3.687  14.157  0.3367 -0.1959 -0.2036
13641W        W29775   1.685  11.482  12.161  0.1323 -0.1744  0.0721
13642W        W29776   4.091  17.313  14.215  0.1951  0.1394 -0.2772
13643W        W29777   8.477  16.491   0.963 -0.2770  0.1168  0.3235
13644W        W29778   8.449   2.974   3.606  0.2764 -0.1214 -0.1183
13645W        W29779  10.996  17.036   1.715 -0.1262 -0.0447  0.1940
13646W        W29780  10.146   6.891  13.466 -0.0063  0.2163 -0.0443
13647W        W29781  12.450   4.909   2.703  0.1686 -0.1139  0.2385
13648W        W29782  16.990  13.172   4.266  0.1708  0.1135  0.2946
13649W        W29783  18.169  16.196  14.184 -0.1110  0.0441  0.1525
13650W        W29784  18.413  15.224  14.464  0.1878 -0.0903 -0.0334
13651W        W29785   5.895   6.660   1.133  0.0957  0.1773  0.1025
13652W        W29786   4.799  12.470  10.740 -0.1076  0.1212  0.1076
13653W        W29787  15.064   9.063  13.886 -0.3422 -0.1187  0.1352
13654W        W29788  11.788  15.698   0.115  0.0522 -0.2118  0.2448
13655W        W29789   8.800   1.783  14.518  0.1671  0.0592  0.0284
13656W        W29790  18.281   2.210   0.372  0.1761 -0.0291  0.1752
13657W        W29791   2.079   1.104  11.660  0.2444 -0.2766 -0.2422
13658W        W29792  17.874  12.823  12.524 -0.3428  0.0807 -0.1280
13659W        W29793   0.527  12.494  13.230  0.1875 -0.0311  0.0008
13660W        W29794   0.019   9.719  13.687 -0.1413 -0.0840  0.1800
13661W        W29795   7.888   7.139  12.680 -0.2588 -0.0343 -0.2424
13662W        W29796   6.833   5.127   3.473  0.0749 -0.0200 -0.0785
13663W        W29797  15.768   9.871   3.894 -0.1479  0.0768 -0.1247
13664W        W29798  15.231  15.398   3.799  0.0149  0.2198 -0.0115
13665W        W29799   4.524   0.716   3.041  0.1120  0.2575  0.3172
13666W        W29800  10.927  18.716  14.464 -0.2198 -0.0182 -0.2061
13667W        W29801   2.079   7.645   4.550  0.5523  0.2809  0.0193
13668W        W29802  14.677  14.053  13.829  0.0428 -0.1450  0.3029
13669W        W29803  13.633   8.950   1.321 -0.0181 -0.0458 -0.1560
13670W        W29804  12.215   2.220  12.636  0.1333  0.1187  0.0501
13671W        W29805  11.020   6.185   4.443 -0.0115  0.2996  0.1497
13672W        W29806   9.841   4.587  15.077  0.3533  0.1078 -0.0639
13673W        W29807   5.925  14.246   3.598 -0.3413  0.1345  0.0371
13674W        W29808   4.096   3.211   3.681  0.0723 -0.1923 -0.0062
13675W        W29809   6.910   5.351  15.038  0.0827 -0.2227 -0.0285
13676W        W29810   0.215   5.598  10.728  0.0265  0.0312  0.0116
13677W        W29811   0.199   1.948   0.714 -0.2605  0.0453  0.1859
13678W        W29812  12.242   5.264  14.902  0.0283 -0.0932 -0.0120
13679W        W29813  14.973   0.013   1.285 -0.0160 -0.1799  0.0172
13680W        W29814  13.891  17.798  14.959 -0.2793  0.2802  0.2234
13681W        W29815   0.936   6.357   2.806  0.1449  0.3110 -0.1601
13682W        W29816  11.382  18.072  12.211  0.0066  0.1691 -0.0374
13683W        W29817  12.279  14.069   3.983 -0.1627 -0.1125 -0.0732
13684W        W29818   1.042   5.203   1.399 -0.0896  0.1551 -0.0768
13685W        W29819  18.679  10.796   3.150 -0.2331  0.2548 -0.0377
13686W        W29820  11.052   2.582  11.784  0.0977 -0.1665  0.4695
13687W        W29821   2.368   6.119  14.168  0.1219  0.0244  0.0490
13688W        W29822  14.709  13.039   0.453  0.1133 -0.2473 -0.1064
13689W        W29823   5.573  14.554  14.111  0.1247 -0.1206 -0.0631
13690W        W29824  15.045  16.227  13.779  0.0270  0.0670 -0.0643
13691W        W29825   5.491  11.941   4.248  0.0630 -0.1949 -0.2712
13692W        W29826  10.493   0.474   0.380  0.0831  0.3540  0.3068
13693W        W29827   5.399   8.809   0.285 -0.0086  0.2303  0.2569
13694W        W29828  16.120   9.881   1.005  0.1046 -0.1062 -0.2173
13695W        W29829  16.522  16.291   2.450  0.1166 -0.2361  0.1960
13696W        W29830   0.374  14.426   3.710  0.1914  0.1123  0.1163
13697W        W29831  17.049  16.077   2.285  0.1125  0.2551  0.1606
13698W        W29832  15.356   1.116  13.443 -0.3902  0.0407  0.4799
13699W        W29833  18.432  16.083  13.248  0.0829  0.1272  0.1110
13700W        W29834   2.949  16.213  12.177 -0.0988  0.0654  0.0496
13701W        W29835  17.284  12.850   0.494  0.0824  0.1219  0.2276
13702W        W29836   7.141  15.655   3.030 -0.0526  0.1988 -0.2769
13703W        W29837   5.901   6.944   4.658  0.0955  0.1234 -0.1281
13704W        W29838  14.430  11.397   2.800  0.4173 -0.1378 -0.2297
13705W        W29839  15.020  10.730  13.296 -0.1544 -0.1787 -0.1503
13706W        W29840   4.975  11.787   5.010 -0.2209 -0.2156 -0.1996
13707W        W29841   8.354  16.206   3.295  0.0870 -0.0820  0.3258
13708W        W29842   6.192  13.484  12.190  0.2723 -0.0456 -0.1440
13709W        W29843   5.209  14.386   3.098  0.0454  0.3851  0.1447
13710W        W29844   1.819  14.768  13.551 -0.0217 -0.0472  0.0528
13711W        W29845  16.368   4.375  11.863 -0.0096 -0.0100  0.2027
13712W        W29846   1.414   9.784  10.533 -0.1393 -0.2407 -0.0237
13713W        W29847   6.625   1.995  12.419  0.2231  0.1254  0.0352
13714W        W29848   1.216   5.404  14.096  0.2060 -0.2114  0.1422
13715W        W29849   1.507   1.050  14.173  0.0019  0.2440  0.1217
13716W        W29850   5.114  18.057   0.223  0.2369  0.0493 -0.0881
13717W        W29851   2.443   9.740  12.050  0.0737  0.0151  0.2994
13718W        W29852   5.755   9.548   1.123  0.0689 -0.1756 -0.2199
13719W        W29853   0.914   3.062   1.971 -0.0450 -0.3651  0.1348
13720W        W29854  12.065  15.947  14.236 -0.1327 -0.0274  0.1773
13721W        W29855   2.803  10.992  11.312 -0.1241 -0.0196 -0.1086
13722W        W29856  12.526   9.695   3.631  0.0378  0.0400 -0.0067
13723W        W29857  11.436  17.774  13.576 -0.1295  0.1716 -0.4475
13724W        W29858  14.307   5.802   0.059  0.1436 -0.0544 -0.0425
13725W        W29859  10.518  15.644  15.271 -0.1495 -0.1387 -0.0277
13726W        W29860  12.250   9.936   0.445  0.0484 -0.2264 -0.3695
13727W        W29861   4.686  16.722   3.324 -0.2033 -0.1551 -0.0742
13728W        W29862   9.365   8.646   0.496  0.0620 -0.2758 -0.3916
13729W        W29863   3.111   3.645   1.862  0.1785  0.2417 -0.0375
13730W        W29864  11.611   0.446  15.319  0.1638 -0.4323 -0.0384
13731W        W29865  12.750   5.690   4.546  0.1657 -0.0222 -0.1532
13732W        W29866  17.823   5.213  11.835  0.0357  0.0838 -0.1501
13733W        W29867  10.209   5.525  14.402 -0.1817  0.3603 -0.0796
13734W        W29868   5.852   9.649  11.462 -0.5557  0.3522  0.4449
13735W        W29869  18.373   3.139  12.686 -0.2591 -0.1492  0.0344
13736W        W29870  11.642  15.020  14.962 -0.2370 -0.2093  0.0043
13737W        W29871   8.049  13.387   1.212 -0.1949 -0.4299 -0.0055
13738W        W29872  15.829  16.315   5.335 -0.0481 -0.3705 -0.3688
13739W        W29873   6.893  15.078  13.362 -0.0483  0.3423  0.0806
13740W        W29874   9.741  11.217   2.625 -0.0651  0.2697 -0.1096
13741W        W29875   3.261   4.736   3.780 -0.1941 -0.3016  0.0407
13742W        W29876  18.604   7.922   4.139  0.0397  0.0125 -0.0521
13743W        W29877   0.009   9.416  15.190 -0.0266 -0.0079  0.1915
13744W        W29878  13.648  15.018  11.919  0.2503  0.1496 -0.0158
13745W        W29879  17.686   3.623   2.726 -0.1294  0.0047  0.2349
13746W        W29880   2.699  16.985  11.188 -0.2596  0.0622  0.0848
13747W        W29881   5.668   2.364  12.698 -0.0816 -0.0387  0.1477
13748W        W29882   5.465  14.477  15.426 -0.0405  0.3775  0.2794
13749W        W29883   0.974  17.074   1.960 -0.0833  0.1211 -0.2448
13750W        W29884   5.173   0.123   4.969  0.2982 -0.2316  0.0398
13751W        W29885  12.501   5.670   0.818 -0.1707  0.0003 -0.2753
13752W        W29886  13.265   7.716   0.053 -0.3926  0.0795 -0.0963
13753W        W29887  12.531   7.520  14.888 -0.0921  0.1098 -0.0525
13754W        W29888  11.134  15.765   4.568 -0.1276 -0.0756  0.0170
13755W        W29889  16.936  13.978   3.007 -0.2635 -0.2008 -0.0917
13756W        W29890  14.136  10.521   1.819  0.1868  0.0110  0.3294
13757W        W29891  10.029  16.250   0.180  0.0353  0.2126  0.2247
13758W        W29892   5.712   4.995  15.403 -0.2632  0.1176 -0.1269
13759W        W29893   6.258   6.544  11.913  0.3606 -0.0039  0.0220
13760W        W29894   5.281   1.570   2.366 -0.1398  0.0800  0.0286
13761W        W29895  17.087  12.092  11.656  0.0496  0.4031 -0.2160
13762W        W29896  17.600  10.973  10.106  0.0911 -0.0179 -0.2697
13763W        W29897   8.575  10.465  14.498  0.0043 -0.1639 -0.2718
13764W        W29898   9.667   9.930   1.560 -0.2760  0.2373 -0.2224
13765W        W29899  11.737  17.181   1.172  0.0430 -0.1291 -0.4990
13766W        W29900   8.561  11.339  14.208  0.1652  0.0271 -0.1437
13767W        W29901   9.328  15.563   1.288  0.2544  0.3151 -0.0941
13768W        W29902  14.022  16.326   1.386 -0.1221  0.1057 -0.3262
13769W        W29903  10.970   2.776  13.489 -0.1673  0.1861 -0.1154
13770W        W29904  15.243   4.626   2.218  0.0487 -0.4052  0.4071
13771W        W29905  18.622  17.413   5.456  0.3299  0.0350 -0.0624
13772W        W29906  12.873  12.597  15.021 -0.3445  0.0476  0.0187
13773W        W29907  16.659  11.133  14.089  0.2138 -0.0201 -0.0230
13774W        W29908  16.047  11.319  11.245 -0.2742  0.1973  0.4079
13775W        W29909  13.315  13.340  12.318 -0.2431 -0.1712  0.0577
13776W        W29910   3.302   0.819  13.589  0.2159  0.2503 -0.1872
13777W        W29911  15.408   8.198  13.270 -0.1975 -0.1601 -0.1619
13778W        W29912  12.732  13.936   3.875  0.0944  0.5193 -0.0535
13779W        W29913   7.607   6.811  11.701  0.0536  0.1352  0.1265
13780W        W29914   5.634  11.020   1.409 -0.2254  0.1100  0.1767
13781W        W29915   1.656   4.878   1.111  0.1225  0.1620  0.2292
13782W        W29916  12.419   4.106   5.440 -0.2656  0.1151  0.3197
13783W        W29917   0.934  12.651  12.687 -0.1168  0.1635  0.1167
13784W        W29918  15.324   0.992   1.175 -0.0393  0.0853 -0.1557
13785W        W29919  17.083   4.712   2.301  0.3091  0.2291  0.1137
13786W        W29920   3.816  13.148   2.170  0.1743 -0.2788 -0.3059
13787W        W29921  16.338   2.142   4.424 -0.0123 -0.3170  0.0792
13788W        W29922   2.062   4.787  14.855 -0.0261  0.1435  0.1896
13789W        W29923  15.565  13.195   3.232 -0.0948 -0.1045 -0.2150
13790W        W29924  18.560  17.665  14.732  0.0039 -0.1123 -0.1598
13791W        W29925  11.130  11.906   3.710  0.5407 -0.0121  0.0885
13792W        W29926  17.595   6.489  12.891 -0.0150 -0.3626 -0.0549
13793W        W29927   2.290  13.394   1.256 -0.0835 -0.2724  0.2503
13794W        W29928  15.646   7.735   0.329  0.0145  0.2065  0.1143
13795W        W29929   0.702  12.138  10.906 -0.1066  0.0917  0.1601
13796W        W29930  11.009  13.880   0.187 -0.0964 -0.1676 -0.3690
13797W        W29931   3.202  14.130   9.237 -0.2322  0.2460  0.0521
13798W        W29932  14.278   0.762  13.057 -0.0814 -0.0756  0.0955
13799W        W29933   7.765   4.575  14.883  0.1633 -0.1556  0.0591
13800W        W29934  17.762   8.244  14.269 -0.2902 -0.5070 -0.4319
13801W        W29935   2.777  17.457  11.348  0.1579 -0.0837  0.1642
13802W        W29936  18.729  16.696  11.205  0.1582  0.1727  0.1898
13803W        W29937  11.826   7.090  14.401  0.2049 -0.1570 -0.1026
13804W        W29938  16.507  10.438  12.957 -0.1366  0.0549  0.2682
13805W        W29939   5.756  14.880   1.173  0.0844  0.2941  0.1034
13806W        W29940   7.294   7.268   1.584 -0.0101  0.1722 -0.0943
13807W        W29941  16.126  10.733  12.365 -0.0593  0.1140  0.2593
13808W        W29942  16.178   0.507   4.645 -0.0155  0.1666  0.0020
13809W        W29943   4.647  12.197   3.107  0.0567  0.0490  0.1302
13810W        W29944   6.644   4.054   0.862 -0.0118 -0.1603  0.0326
13811W        W29945   5.553  16.005  15.008 -0.0547  0.0794  0.4225
13812W        W29946   1.918   8.198   3.743 -0.0511  0.1385 -0.0204
13813W        W29947  13.363  13.519  15.391  0.0838  0.1587 -0.3722
13814W        W29948   8.369  11.340  12.605 -0.1884  0.0604 -0.0561
13815W        W29949   4.493   8.410   3.037  0.0093 -0.0040  0.0273
13816W        W29950  17.432  11.791  13.231 -0.0010 -0.2696 -0.0671
13817W        W29951   0.118   1.267   5.145  0.0432 -0.0783  0.1476
13818W        W29952   6.143  16.658   4.798 -0.0938 -0.0356  0.2404
13819W        W29953  16.118  12.246   0.652  0.1272  0.0556 -0.0867
13820W        W29954   5.176   8.591   3.111  0.1706  0.1558 -0.1351
13821W        W29955   6.104   6.166   1.185  0.2653 -0.1363  0.0526
13822W        W29956   4.004   7.515  12.249  0.1259 -0.0263 -0.2004
13823W        W29957  15.434  13.092   0.965 -0.0925  0.1291 -0.1456
13824W        W29958  18.451   6.918   0.690  0.2930 -0.0318 -0.1071
13825W        W29959   5.680   8.513   3.350 -0.2983 -0.0887  0.1545
13826W        W29960   6.369  17.141   1.033 -0.0660 -0.0714 -0.0795
13827W        W29961  15.754  15.774  14.091  0.0879  0.1505 -0.1090
13828W        W29962   5.585  18.712   2.498  0.1646  0.2098  0.0030
13829W        W29963   9.224   9.714   1.129  0.0705  0.0284  0.2704
13830W        W29964  13.920   8.072  10.492 -0.1088 -0.1904 -0.0731
13831W        W29965  15.469  15.728   0.058  0.2483 -0.1806 -0.0564
13832W        W29966  17.584  10.458   1.678 -0.1883 -0.1910  0.5387
13833W        W29967  13.151   5.231  14.944 -0.2545 -0.1638  0.0932
13834W        W29968  12.649  15.269  13.027 -0.0868  0.3301 -0.0572
13835W        W29969   2.584   6.108  12.752  0.3234  0.2836  0.2129
13836W        W29970   9.861   6.953   1.114  0.0528 -0.2003  0.0985
13837W        W29971   1.794  16.179  15.170 -0.2547  0.1751 -0.0541
13838W        W29972   6.759  16.842  11.922 -0.1346  0.1363  0.4507
13839W        W29973   2.975  15.262   2.183  0.2237 -0.0897 -0.0532
13840W        W29974  17.111   6.780   5.949  0.0148  0.1615  0.2073
13841W        W29975  17.763   4.763  12.136 -0.1222 -0.0625 -0.3346
13842W        W29976  14.130   3.182   1.440 -0.0349  0.0056  0.0696
13843W        W29977   7.422   7.252   4.047 -0.1344 -0.0966 -0.2749
13844W        W29978  16.613   2.195   3.562  0.0121  0.0193 -0.0663
13845W        W29979   2.657  16.165  13.334 -0.2729  0.1122 -0.2447
13846W        W29980   9.209   6.781   4.117  0.1161 -0.1814 -0.0400
13847W        W29981   1.676   4.243  12.022 -0.1025  0.0643 -0.2159
13848W        W29982  12.286   8.309   2.009  0.0195  0.2687  0.1322
13849W        W29983   2.314   7.376   0.556 -0.0574 -0.0389 -0.0055
13850W        W29984   1.929   1.285   2.968 -0.1013 -0.0231  0.0445
13851W        W29985  11.663  14.215  12.419 -0.3528 -0.2411  0.2263
13852W        W29986   9.329   6.716  15.015 -0.1256  0.1311 -0.1821
13853W        W29987  12.118   2.700  15.144 -0.1080 -0.0596 -0.1650
13854W        W29988  13.043  11.223  12.712 -0.1828  0.1678 -0.1286
13855W        W29989  13.101   8.288   3.678  0.0241 -0.1053 -0.0143
13856W        W29990   5.476  13.731  14.560  0.0738  0.1157 -0.2423
13857W        W29991  15.070   4.841  13.783 -0.1514  0.4583 -0.0536
13858W        W29992  10.939  15.942  12.165 -0.1441  0.0219 -0.0017
13859W        W29993  18.120   5.854   0.012 -0.2480  0.0266  0.1741
13860W        W29994   3.883   2.108   1.733  0.1272 -0.1813 -0.0772
13861W        W29995  10.992   1.387   2.756  0.1174  0.0463  0.2853
13862W        W29996  13.996  11.679  13.073  0.0419 -0.1728  0.0426
13863W        W29997  15.362  14.172   3.352 -0.2112 -0.1828  0.2271
13864W        W29998   8.798   9.718   2.089 -0.0943 -0.2323 -0.1521
13865W        W29999  14.812  13.411  13.727  0.3049  0.0792  0.2444
13866W        W30000  15.745   1.634  11.372  0.0419 -0.2178 -0.0924
13867W        W30001  10.548   0.218   2.535  0.1944  0.2762 -0.0812
13868W        W30002   6.414   6.828   4.463  0.0826  0.0814 -0.0435
13869W        W30003  12.690   4.286  15.292 -0.1891 -0.0072  0.3336
13870W        W30004   6.853   7.971   2.856  0.0926  0.1574  0.0924
13871W        W30005   9.508  16.711  11.266  0.2178  0.2667 -0.0738
13872W        W30006   0.253   7.640   4.420 -0.0198 -0.4216 -0.1142
13873W        W30007  17.225  14.871  11.923 -0.0753  0.0486 -0.2347
13874W        W30008   4.886  14.607   0.560 -0.1765  0.2322 -0.3156
13875W        W30009  15.088  12.451  15.269 -0.1718  0.1777  0.0589
13876W        W30010  17.878  17.705   1.263 -0.0031  0.0949 -0.1034
13877W        W30011  17.393   1.421   2.367 -0.2378 -0.2521 -0.1404
13878W        W30012   2.524   4.805   3.220 -0.1078  0.3428  0.3981
13879W        W30013  17.396   4.047   2.951 -0.2030  0.1083  0.2067
13880W        W30014   9.886  13.974  12.556  0.0972 -0.0463  0.1606
13881W        W30015   3.773   6.120  12.268  0.1099  0.0280  0.1388
13882W        W30016  18.586   1.623   2.005  0.2657 -0.3496 -0.0588
13883W        W30017   7.909   8.749   0.937  0.0592 -0.2098 -0.3266
13884W        W30018  15.779  15.895   4.959  0.0354  0.0749  0.1475
13885W        W30019  11.947   9.881   9.796 -0.1003  0.0014 -0.1426
13886W        W30020  16.805   1.752   1.402 -0.0921  0.0799  0.2276
13887W        W30021   3.584  15.940   3.603 -0.2228 -0.0845 -0.1205
13888W        W30022   2.121   6.410   3.649  0.1468 -0.0733  0.0244
13889W        W30023   6.295   3.262   2.380  0.1041  0.1944  0.1182
13890W        W30024   1.932   3.750   4.963  0.1191  0.2586 -0.1549
13891W        W30025   0.833  17.221  12.932  0.3794  0.1386  0.3257
13892W        W30026  10.152  17.426   4.180  0.0244 -0.0426 -0.0398
13893W        W30027   7.369   5.430   1.772  0.1259  0.0231  0.1107
13894W        W30028  15.524  14.196  13.885 -0.1391  0.2035 -0.2221
13895W        W30029  14.335  16.856   3.208 -0.1359  0.1199 -0.1142
13896W        W30030   7.650   4.971   2.907  0.1232 -0.2811 -0.2111
13897W        W30031  17.347   3.096  15.250  0.1702  0.0491 -0.1135
13898W        W30032   4.890  18.026  12.010  0.0566  0.0583  0.1101
13899W        W30033   9.090   4.466  12.782  0.0698 -0.2350  0.2575
13900W        W30034   7.845   4.586  13.463 -0.2552  0.0231  0.2041
13901W        W30035   9.757   2.376   0.042 -0.1370  0.0127 -0.2080
13902W        W30036  17.672   9.257  13.035 -0.3158  0.1390 -0.1072
13903W        W30037   6.408   9.450   3.476  0.0827  0.0047 -0.2673
13904W        W30038  10.651  11.587  11.546 -0.1035  0.1021 -0.0247
13905W        W30039  11.079  11.826   1.078 -0.1297  0.1259 -0.0674
13906W        W30040  14.251   6.204  11.476 -0.1394  0.2977  0.0074
13907W        W30041   6.353  17.889   1.175 -0.1243 -0.0090  0.0807
13908W        W30042   8.795  10.822   1.904  0.1294 -0.2601 -0.0607
13909W        W30043  14.727   9.718  12.456  0.1363 -0.0353 -0.0214
13910W        W30044  11.499   9.309   1.492  0.3065  0.2916 -0.0250
13911W        W30045  11.856   9.108   2.331  0.0804  0.1122  0.2533
13912W        W30046  11.833   2.523  13.328 -0.1496 -0.1529  0.0829
13913W        W30047   6.923   8.527   1.209 -0.2684  0.1598  0.1871
13914W        W30048   7.862  10.857  10.818  0.1257  0.2507  0.0291
13915W        W30049  13.065  17.081   1.985 -0.0434 -0.0527 -0.0628
13916W        W30050  11.773  10.352   0.047 -0.0424  0.0895  0.1554
13917W        W30051   0.539  15.630  10.827  0.0844 -0.1874 -0.2578
13918W        W30052   2.822  17.194  13.634  0.0553  0.3184 -0.1723
13919W        W30053  18.324   4.581  12.877  0.2126  0.0773  0.1096
13920W        W30054   9.939   8.192  12.081  0.1251  0.0614  0.3073
13921W        W30055   5.431   8.384   0.534  0.1801  0.0553  0.0377
13922W        W30056   5.909   8.488   0.232 -0.2239  0.1796  0.1676
13923W        W30057  12.375   2.143   3.266 -0.0322  0.0319  0.3679
13924W        W30058  17.531  17.719   9.972  0.1851 -0.1605  0.2373
13925W        W30059   4.690   3.505   3.531 -0.0753  0.3830  0.0140
13926W        W30060   6.298   3.706   3.043 -0.0354  0.0103  0.0728
13927W        W30061  15.126  11.584  10.881 -0.0156 -0.0525  0.3175
13928W        W30062  18.564   3.625   0.865 -0.0186 -0.4895  0.1799
13929W        W30063  17.761   5.304   1.344 -0.0914  0.1120 -0.1080
13930W        W30064   9.537  10.931   4.753 -0.0245 -0.0679  0.3370
13931W        W30065  15.480  16.848  10.661  0.0743  0.0368 -0.1497
13932W        W30066   8.396  17.588   1.933 -0.0241  0.0593 -0.0302
13933W        W30067   6.374   2.657  13.646  0.0348 -0.0077  0.1624
13934W        W30068  13.222   6.902  11.520 -0.1217 -0.2655  0.0531
13935W        W30069   4.990   0.212  13.820 -0.2014 -0.1199 -0.2452
13936W        W30070   1.022  12.569   2.683  0.0355 -0.0043 -0.0105
13937W        W30071   6.512  11.494  10.755 -0.0978 -0.0456 -0.0260
13938W        W30072  12.530  11.273  11.567  0.2026  0.1198 -0.0584
13939W        W30073   1.697   1.824   4.420 -0.2196 -0.0797  0.0789
13940W        W30074   4.283  16.516  12.705 -0.0146 -0.2974  0.1056
13941W        W30075   7.874  11.049  15.105 -0.1045 -0.3064 -0.1456
13942W        W30076   9.903   8.694   5.837  0.0189  0.3654  0.2050
13943W        W30077   4.447   3.622  15.134 -0.0992 -0.2364 -0.1099
13944W        W30078   6.023  16.171  11.888  0.1514  0.0730 -0.0525
13945W        W30079   4.105   9.241  11.294  0.2040 -0.0144  0.1280
13946W        W30080   4.069  17.656  13.283 -0.0106 -0.1281  0.0022
13947W        W30081  15.903  14.658  13.197 -0.1720 -0.0053  0.1349
13948W        W30082  13.614   8.842   4.301  0.1348 -0.3046  0.0932
13949W        W30083   6.262   1.648   0.671  0.1704  0.0137  0.0007
13950W        W30084   5.061  14.853  13.406 -0.0001 -0.1604 -0.2405
13951W        W30085  14.053  15.280   0.846  0.1274 -0.0838 -0.1058
13952W        W30086   8.027   2.717   0.699  0.4237 -0.1040  0.1569
13953W        W30087  11.098   1.042  14.694  0.4283 -0.1110 -0.0726
13954W        W30088  10.752   1.254   0.423  0.0933  0.0729  0.3308
13955W        W30089   3.336  12.350  13.271 -0.1875  0.0245 -0.0280
13956W        W30090  17.981   8.367  10.360  0.2818 -0.0446  0.1125
13957W        W30091  13.735  15.293  12.348  0.3337  0.3338 -0.0226
13958W        W30092  15.599  17.630  13.459 -0.1392 -0.0755  0.0439
13959W        W30093   2.607   4.438   1.936  0.0658 -0.1493  0.1987
13960W        W30094   1.238  10.614   0.506 -0.0961  0.0996  0.4051
13961W        W30095   7.231  16.609  13.954  0.1513 -0.1334  0.1799
13962W        W30096   3.586  14.415   4.203  0.0135  0.1213 -0.3319
13963W        W30097  16.797   5.425  13.861 -0.2648 -0.4143 -0.1731
13964W        W30098   2.795   7.500   2.106 -0.1688  0.0493 -0.0387
13965W        W30099  13.335   6.105   3.913 -0.0120  0.0581 -0.2253
13966W        W30100   2.805  15.975   2.895 -0.2095  0.1350  0.2609
13967W        W30101  16.045  18.329  15.234  0.1647  0.1683  0.2997
13968W        W30102   1.646   2.699   2.098 -0.0917 -0.0408 -0.0294
13969W        W30103   2.923  15.443  10.586 -0.3975  0.3234  0.1696
13970W        W30104   7.389  11.072  14.910  0.1473  0.0382 -0.0573
13971W        W30105   2.629  15.140   4.775 -0.0778 -0.3242 -0.0077
13972W        W30106   6.946   6.301   5.343 -0.0620  0.3387 -0.1171
13973W        W30107   0.205   2.496   3.209  0.3082 -0.2864 -0.0428
13974W        W30108   0.052  10.550  13.174  0.1524  0.1076  0.2795
13975W        W30109  16.411   6.139   5.776  0.0219  0.4007 -0.2198
13976W        W30110  13.393  12.088  14.245 -0.2826  0.3201  0.2390
13977W        W30111   9.908  13.449  11.641 -0.0241 -0.0198 -0.2322
13978W        W30112  16.197   5.784   3.983 -0.3216  0.1168 -0.2156
13979W        W30113  11.336  16.982   4.013  0.1991  0.0353 -0.0910
13980W        W30114   1.710   2.612  15.567  0.1498 -0.2290  0.0637
13981W        W30115   9.068  11.205   1.418 -0.0211  0.0957 -0.2669
13982W        W30116  14.464  11.308  15.106  0.5293 -0.0008 -0.0568
13983W        W30117   4.800  10.535  12.493  0.3711 -0.1866  0.1011
13984W        W30118  11.233   5.012  11.061  0.0013 -0.3482 -0.1071
13985W        W30119  12.586   3.105   3.614 -0.2157 -0.1297 -0.1843
13986W        W30120   9.980  16.647   0.670  0.1288 -0.1290  0.1695
13987W        W30121  18.696  14.451  13.333 -0.4118 -0.0221 -0.1509
13988W        W30122  13.260   6.154   4.790 -0.0683 -0.1923  0.0476
13989W        W30123  14.030  15.268  12.875  0.4722  0.0346  0.2917
13990W        W30124   4.423  15.401   1.690  0.0677  0.1514 -0.0551
13991W        W30125   8.350   6.969  11.120  0.2366 -0.2111 -0.1936
13992W        W30126  11.289   8.066   3.545 -0.1350  0.0527  0.1585
13993W        W30127   1.541   4.824  12.848 -0.0890  0.2967  0.0109
13994W        W30128  16.872   3.083  12.742  0.2165 -0.4829 -0.1317
13995W        W30129   3.867   7.724   0.119  0.3085 -0.1378 -0.1166
13996W        W30130   0.997   2.551   5.234 -0.1848 -0.1419  0.2572
13997W        W30131   5.817  17.877   4.936 -0.0283  0.0945 -0.0716
13998W        W30132   9.405  11.510  10.916  0.3254  0.0324  0.0591
13999W        W30133   6.437  13.107  13.311 -0.2089 -0.2081  0.0094
14000W        W30134  13.424  16.018   3.848 -0.2399 -0.2174 -0.1961
14001W        W30135  16.377  10.057   2.132 -0.3485  0.1353  0.2836
14002W        W30136  18.182  10.881   1.133 -0.0361 -0.4367 -0.0254
14003W        W30137  16.542  10.073  14.214 -0.0709  0.1838  0.0883
14004W        W30138  14.448   5.092   1.052  0.1412 -0.0722  0.1165
14005W        W30139   7.867   7.669  13.531  0.1151 -0.1063 -0.3051
14006W        W30140  15.057   8.452   4.005 -0.1679 -0.2920  0.3546
14007W        W30141  11.426   6.160  13.001 -0.2108 -0.1423  0.1799
14008W        W30142   7.828   7.193   5.646  0.2018  0.2586 -0.2360
14009W        W30143  15.257  16.181  11.476 -0.3638  0.0804  0.0583
14010W        W30144  14.812   4.150   5.000  0.2263 -0.2445 -0.1367
14011W        W30145   7.008  13.501   3.524  0.0819  0.1850 -0.4167
14012W        W30146   1.883   9.709  10.593  0.1772 -0.0456 -0.2412
14013W        W30147   1.581   9.522  11.644  0.1432  0.0411 -0.0298
14014W        W30148   4.841  12.341  12.547 -0.2383  0.1391  0.4042
14015W        W30149   6.027  12.836  14.711 -0.4154 -0.3345 -0.1046
14016W        W30150  16.277  11.270   0.790  0.2475 -0.1527 -0.0097
14017W        W30151   5.152  12.126   0.399 -0.0666 -0.3328 -0.3008
14018W        W30152  13.507  10.629   3.538 -0.1940  0.0468 -0.0902
14019W        W30153   4.583  11.003   0.078  0.1141 -0.0252 -0.1607
14020W        W30154  15.666   7.700  13.991 -0.0289 -0.0435  0.1795
14021W        W30155   8.299   4.870  12.069 -0.0211  0.1120  0.1670
14022W        W30156  13.403   5.934  12.635  0.1188 -0.0672  0.1232
14023W        W30157   6.872  18.215   0.243  0.1785 -0.0744  0.0651
14024W        W30158   6.221  17.449  14.473 -0.1993  0.1893  0.0412
14025W        W30159  14.543  17.342   0.357 -0.2349  0.1080 -0.0837
14026W        W30160   4.341   2.524   4.827 -0.0680  0.2494 -0.0261
14027W        W30161   0.553   4.799   5.077 -0.1691  0.3126  0.1173
14028W        W30162   5.442   7.213   0.423 -0.0936 -0.0153  0.2573
14029W        W30163   4.071   0.211   1.300  0.0064 -0.2682 -0.4512
14030W        W30164  17.447   0.572   0.239 -0.0715 -0.0158  0.1644
14031W        W30165   4.163  16.564  11.910  0.3337 -0.2821 -0.2249
14032W        W30166   8.394   9.541   4.490 -0.1927 -0.2859  0.0868
14033W        W30167  11.873  14.663  11.654 -0.0039  0.1524 -0.0241
14034W        W30168  13.430  14.222  12.844 -0.2299 -0.0784  0.0022
14035W        W30169   2.039   8.467  13.985  0.2328 -0.1669 -0.0851
14036W        W30170   2.681   3.366   2.989 -0.4121 -0.2323 -0.0678
14037W        W30171   7.730   1.703  13.103 -0.2386 -0.1232  0.1653
14038W        W30172   5.218  13.560  12.439  0.2097 -0.1604 -0.0323
14039W        W30173   9.441   8.360  15.183 -0.0984  0.0442 -0.2092
14040W        W30174  14.504  16.441  13.132  0.1832 -0.1861 -0.1221
14041W        W30175   0.446   7.659   3.939  0.1137  0.1674  0.3437
14042W        W30176   9.741  18.286   4.830  0.1508  0.0570  0.1876
14043W        W30177   9.226  11.146  15.385 -0.2214  0.3081  0.1634
14044W        W30178  14.239   6.429   3.206  0.0529  0.2562 -0.0053
14045W        W30179   5.997  16.274  13.852  0.1618  0.1315  0.1872
14046W        W30180   2.208   1.054  14.645 -0.0043  0.2157  0.1867
14047W        W30181  15.431   4.174  12.395  0.2845  0.0097 -0.0132
14048W        W30182   4.240  13.958  12.472  0.0716 -0.2404  0.0942
14049W        W30183   7.434  17.749  15.339  0.0696 -0.2155 -0.0528
14050W        W30184   5.155   6.277   1.645  0.1488  0.0652 -0.1551
14051W        W30185   4.960   4.443  14.938 -0.0508 -0.0971  0.2100
14052W        W30186   6.537   1.083   2.373  0.1381 -0.1820 -0.1363
14053W        W30187  13.056   4.360   3.010  0.0400 -0.3616 -0.4092
14054W        W30188   3.260  13.203   1.453 -0.2895  0.2757 -0.1845
14055W        W30189  17.382   0.679   2.791 -0.1369 -0.1106  0.0164
14056W        W30190  12.323  13.542  15.275 -0.4860 -0.0735  0.0696
14057W        W30191  18.409  12.136  12.172 -0.1469 -0.0765 -0.0251
14058W        W30192  18.692   5.008   2.254 -0.2085 -0.0697 -0.1130
14059W        W30193  16.413   9.155   2.054  0.1015 -0.1067 -0.1637
14060W        W30194  18.137  16.492   4.416  0.3231  0.2164  0.2822
14061W        W30195   0.251  16.940  15.498  0.0505  0.1085 -0.2627
14062W        W30196   0.313   8.451  12.320 -0.2091 -0.1330  0.1669
14063W        W30197  16.596  17.677  13.555 -0.0946  0.0853 -0.3971
14064W        W30198   7.802  13.261  11.626 -0.1694  0.2373 -0.0506
14065W        W30199  11.616   2.260   0.198  0.0869  0.0837 -0.0264
14066W        W30200   2.436  13.590  13.013  0.1460 -0.1964  0.2290
14067W        W30201   9.435   6.658   1.969  0.1060 -0.0742 -0.0543
14068W        W30202   3.212  12.529  12.413  0.0391  0.1844 -0.0329
14069W        W30203  14.435   7.682  10.896  0.2936 -0.3412  0.0793
14070W        W30204   9.118   9.670  14.065 -0.0313  0.0766  0.0168
14071W        W30205  18.644   7.116  11.494 -0.0335 -0.0852  0.3041
14072W        W30206  12.241  14.143   0.485  0.2145  0.1601 -0.2310
14073W        W30207   6.890  14.472   3.300  0.5036  0.2779  0.3431
14074W        W30208  14.940  14.837   5.126  0.2682  0.2101 -0.2051
14075W        W30209   9.029  16.749  14.315  0.3020 -0.0448 -0.0660
14076W        W30210  12.073  10.982  13.725  0.1441  0.3402 -0.0970
14077W        W30211   5.139   3.801  11.081  0.3886 -0.2349  0.2099
14078W        W30212   1.355  10.759  13.279  0.0714 -0.0898 -0.3269
14079W        W30213   3.531   7.188  10.977  0.0850  0.0430 -0.0057
14080W        W30214  13.057  16.322   3.018 -0.0339  0.0463 -0.3204
14081W        W30215  10.372   7.798  12.120 -0.0084  0.0405 -0.1317
14082W        W30216   9.188   1.335   0.516  0.0039 -0.2452 -0.2168
14083W        W30217   9.257   9.849  12.037  0.0704 -0.0020  0.0719
14084W        W30218  10.826  17.130  13.137 -0.0007 -0.1465  0.2389
14085W        W30219  14.194   0.139  11.359  0.0251  0.0010 -0.1912
14086W        W30220   7.622  10.099   1.454  0.1133 -0.0791 -0.0595
14087W        W30221  12.910  11.600   0.989  0.2975 -0.1843  0.0711
14088W        W30222  14.084   3.638  12.213 -0.1061 -0.0277 -0.4358
14089W        W30223  14.380   8.024  15.402 -0.0321 -0.0313 -0.1572
14090W        W30224   8.932  12.910  10.726  0.0937  0.1871  0.3087
14091W        W30225   8.738   7.663   5.048 -0.0618 -0.3438 -0.1793
14092W        W30226  17.443  17.727  11.366  0.3021  0.1854 -0.0083
14093W        W30227   6.864  12.986  10.910 -0.1460 -0.1958 -0.2520
14094W        W30228  17.371  15.150  14.623  0.0345  0.0004  0.1348
14095W        W30229   7.798   5.370   3.169 -0.1901 -0.0024 -0.2543
14096W        W30230   7.630   2.429   3.777 -0.3217 -0.2457  0.3121
14097W        W30231   5.610  14.231   0.961  0.1103  0.0445 -0.0181
14098W        W30232  10.796  15.879  10.683 -0.0326 -0.3401 -0.1597
14099W        W30233   6.827  17.525   3.277 -0.3340 -0.1434 -0.1042
14100W        W30234   3.960  18.698   0.190  0.1775  0.0108  0.4690
14101W        W30235   4.228   1.145  12.335 -0.2874 -0.0203 -0.1284
14102W        W30236  17.529  12.372   2.917 -0.0729  0.1121  0.0779
14103W        W30237   7.618  17.700  11.886 -0.1548  0.0980 -0.1439
14104W        W30238  14.735   3.943   1.514  0.0436  0.0253  0.1926
14105W        W30239  15.277   1.535  13.693 -0.0945 -0.0451 -0.0344
14106W        W30240   2.183  17.603   0.027 -0.2369 -0.0448 -0.0195
14107W        W30241  11.466   4.349  15.545 -0.1046  0.1704  0.1531
14108W        W30242  15.514   3.836  12.063  0.1571 -0.1021  0.1387
14109W        W30243  12.169  12.651  12.768  0.0040  0.1134  0.0441
14110W        W30244  13.078   1.655   3.442 -0.2721  0.1084 -0.2181
14111W        W30245   5.607  10.044  12.865  0.0502  0.1753  0.2159
14112W        W30246   6.258  14.754   1.111 -0.2159  0.2152 -0.0293
14113W        W30247   2.572  10.249  11.007  0.1039  0.0884 -0.2565
14114W        W30248   2.515   4.354   3.014 -0.1911  0.3400  0.1965
14115W        W30249   8.105   2.704  13.463 -0.2782  0.1182  0.2286
14116W        W30250   4.581  17.765   5.362  0.2241  0.0874 -0.0542
14117W        W30251  10.235   1.723   1.454  0.0238  0.3119 -0.0031
14118W        W30252  18.605   4.007   3.393  0.2029 -0.3222 -0.4784
14119W        W30253  18.642  12.226   1.802  0.2388 -0.1884  0.3531
14120W        W30254  17.845   2.438   0.395  0.0642 -0.3641 -0.0801
14121W        W30255  18.296  15.896  12.019  0.0070 -0.1086 -0.1978
14122W        W30256   7.379   8.919   2.576 -0.1916 -0.1190 -0.2073
14123W        W30257   8.436   9.494   9.772  0.4557  0.1085  0.1260
14124W        W30258   3.558  17.534   0.323 -0.0250  0.2012  0.1085
14125W        W30259  15.132   8.498   4.976  0.2106 -0.2872  0.1304
14126W        W30260   2.003   2.892  11.995  0.2403 -0.1384 -0.0608
14127W        W30261   7.428   2.092  11.306  0.0312  0.2038 -0.4477
14128W        W30262  13.970   9.394   3.997 -0.0133  0.1778  0.2132
14129W        W30263  14.322   4.306   0.261 -0.0962 -0.1552 -0.0313
14130W        W30264  13.504  16.183  13.999  0.2336  0.0535 -0.1211
14131W        W30265  15.202   1.144   3.958 -0.0085 -0.1566  0.1984
14132W        W30266   2.061   9.118   2.619  0.1021  0.0251 -0.1804
14133W        W30267  13.484   5.242   2.334  0.2188  0.3902 -0.1499
14134W        W30268  12.658  16.852   4.764 -0.1118 -0.0017  0.0379
14135W        W30269  12.812  16.775  13.432 -0.2750 -0.1484  0.0087
14136W        W30270  17.415   4.134  13.837 -0.0023  0.1531 -0.1885
14137W        W30271   6.817   4.421  11.035 -0.0347  0.1127  0.2401
14138W        W30272  14.862   6.286   3.165 -0.0448 -0.1103  0.2348
14139W        W30273  17.698  14.540   3.025  0.1866 -0.0511 -0.1324
14140W        W30274  13.499   1.616   3.081  0.1709 -0.2440 -0.3327
14141W        W30275   1.986  13.481   2.417 -0.2662 -0.0492 -0.1742
14142W        W30276   7.971   0.953  12.273 -0.2473 -0.0148 -0.0118
14143W        W30277   8.425  13.621   2.955 -0.2126  0.1681  0.1009
14144W        W30278   9.478   2.260   5.007  0.3012 -0.0345 -0.0401
14145W        W30279  16.896   4.608  13.856 -0.0463  0.0708 -0.0883
14146W        W30280   2.111   6.818  11.695  0.1950  0.0832  0.1885
14147W        W30281   8.651   2.439  15.099  0.0318 -0.3053 -0.2398
14148W        W30282   6.874  18.432   2.426  0.2390 -0.0852  0.1633
14149W        W30283   5.163   6.654  13.505  0.1196  0.2711 -0.0870
14150W        W30284  15.509  11.059  15.052  0.2111  0.1026  0.0833
14151W        W30285  11.625  17.094   9.534 -0.3714 -0.3036  0.0512
14152W        W30286  12.722  13.605  11.737  0.2117 -0.0764 -0.1638
14153W        W30287   2.009   6.179  13.083 -0.0281  0.1158  0.0446
14154W        W30288   1.105  12.167   2.305 -0.2929 -0.0866 -0.0962
14155W        W30289   8.700  15.236   3.835 -0.1042  0.0347  0.3491
14156W        W30290  18.050   4.761  12.530  0.2367  0.0972  0.1981
14157W        W30291   7.965   8.137   4.513  0.0512  0.2162  0.0600
14158W        W30292  11.044   1.217  13.514  0.0164  0.0581 -0.0144
14159W        W30293  10.511   3.133   0.956 -0.1878  0.1482  0.0088
14160W        W30294   5.726  12.748   3.620  0.0043  0.2374  0.5769
14161W        W30295  14.380  15.938   1.314  0.0958  0.0713  0.0161
14162W        W30296   9.467   6.482  12.799  0.1436 -0.0372 -0.1127
14163W        W30297   6.128   7.896  11.475 -0.0808 -0.2343  0.4997
14164W        W30298   4.280   9.675   0.494  0.1959  0.0600  0.0086
14165W        W30299   4.703   1.291   3.643  0.0736  0.2336  0.2586
14166W        W30300  11.808   4.786   3.090 -0.0755 -0.2096  0.2581
14167W        W30301   9.841   7.240   4.390 -0.3872 -0.1386 -0.3382
14168W        W30302  12.341   6.542  11.069  0.3233  0.2733 -0.1244
14169W        W30303  14.434  15.597  12.719 -0.0076 -0.0047  0.1565
14170W        W30304  10.054   1.900   3.042  0.2589 -0.0084  0.0718
14171W        W30305  12.768  10.491  11.297 -0.1294 -0.0999  0.1574
14172W        W30306  18.143   7.926  14.871  0.0753 -0.1448  0.2064
14173W        W30307  17.366   7.152   0.750 -0.1427  0.1352 -0.0941
14174W        W30308  12.264   4.530   5.159  0.0587 -0.2777 -0.0071
14175W        W30309   2.187  10.195  12.861 -0.0578 -0.0245  0.0508
14176W        W30310   8.744   1.401   0.274  0.0243  0.2357  0.2807
14177W        W30311   0.484  13.514   3.863 -0.0221 -0.2260 -0.3355
14178W        W30312  14.913   7.882   3.843  0.0743 -0.0361 -0.0190
14179W        W30313  10.297   5.536   4.941  0.1399  0.1556 -0.2531
14180W        W30314   7.313   0.014  11.235 -0.0606 -0.0659  0.1145
14181W        W30315   0.114  12.825  12.091 -0.0849 -0.1632  0.3517
14182W        W30316   8.931  11.607  10.618 -0.1655 -0.1275  0.0842
14183W        W30317  18.698   9.757  12.902  0.0682  0.0634  0.0754
14184W        W30318  17.505  12.407  12.836 -0.1559 -0.1674 -0.0994
14185W        W30319  10.609  12.885  11.573  0.2144 -0.1082  0.1014
14186W        W30320   9.446  18.020  12.278  0.0672  0.1641 -0.4235
14187W        W30321   0.250  11.283  11.244 -0.1955  0.0683  0.3176
14188W        W30322  11.735   4.855  12.547 -0.3415 -0.0834  0.2135
14189W        W30323  18.064   1.433   2.916 -0.2689  0.1020 -0.3053
14190W        W30324   0.691  13.118   1.501 -0.2375 -0.0130 -0.2894
14191W        W30325   1.913   3.764  11.967 -0.1082 -0.0069  0.1785
14192W        W30326   5.518   2.318   2.876 -0.0118  0.0535 -0.1606
14193W        W30327   6.986  11.023   2.384 -0.2984  0.1358  0.1477
14194W        W30328   3.919  12.868   0.166  0.0481 -0.2442  0.3316
14195W        W30329  11.207   2.892   3.543  0.1511  0.0452  0.2149
14196W        W30330   3.260   4.200   5.051  0.0814  0.0055  0.2958
14197W        W30331  10.870  11.145   0.713  0.0562 -0.0127  0.0944
14198W        W30332  16.920   0.589   0.221 -0.0116 -0.0390 -0.3146
14199W        W30333  13.580  14.478   2.105 -0.0543 -0.0288  0.1485
14200W        W30334   4.364  13.261  11.072  0.0665  0.4398 -0.3221
14201W        W30335   1.172  15.265   0.719 -0.2316  0.0559 -0.0182
14202W        W30336  13.619  13.201  14.991 -0.0836  0.3431  0.0686
14203W        W30337   5.481  17.521   5.410  0.1766 -0.1517  0.1078
14204W        W30338   8.777  10.536   0.268  0.1948  0.1728  0.3191
14205W        W30339   3.262  17.649  15.478  0.1155 -0.0419  0.1330
14206W        W30340   4.865  16.594  13.489 -0.0569 -0.3732 -0.0872
14207W        W30341  16.976   4.483   0.825  0.0519  0.0976  0.2176
14208W        W30342   0.755  15.768   1.681  0.1488  0.1997 -0.0644
14209W        W30343  10.008   2.091  12.980  0.1564 -0.0163  0.2887
14210W        W30344   5.448  11.636  11.810 -0.0155  0.0167 -0.0372
14211W        W30345   1.576  15.426  14.389 -0.1552 -0.0440  0.1506
14212W        W30346  14.471  18.535  12.691 -0.1688 -0.1960 -0.0493
14213W        W30347  14.210  11.471   1.865 -0.0336 -0.0782 -0.0680
14214W        W30348   0.455   8.893  15.171  0.3165 -0.0152 -0.2102
14215W        W30349  17.608  10.787  13.811 -0.0815 -0.3160  0.0078
14216W        W30350   4.918   6.546  10.426  0.0500  0.1340  0.2656
14217W        W30351  16.989   3.901  15.074  0.0845  0.1318  0.1186
14218W        W30352  15.199   3.576  15.487 -0.2893  0.0425  0.0316
14219W        W30353  17.001  14.158  13.587 -0.0352  0.1215 -0.1614
14220W        W30354  12.722  17.862   0.814  0.1752 -0.1451 -0.1937
14221W        W30355  10.355  13.142  11.936  0.1235 -0.2488  0.3334
14222W        W30356   9.727   9.412   6.079 -0.0322  0.0709 -0.0993
14223W        W30357   0.944   4.759  12.920  0.1432 -0.0183  0.2077
14224W        W30358  11.790   9.519  11.899 -0.4354 -0.2294  0.3895
14225W        W30359  14.603  14.120   3.055  0.0619  0.1131  0.1734
14226W        W30360   2.404   7.104   5.209  0.0749  0.0754  0.5195
14227W        W30361   5.396  15.550  14.111  0.0202  0.1239 -0.0143
14228W        W30362  10.807  11.121  14.735  0.1286  0.0819  0.0578
14229W        W30363  17.206   9.426  14.322  0.2205  0.0890 -0.0268
14230W        W30364   9.265   1.853   1.089  0.3786 -0.1621 -0.0906
14231W        W30365  16.708  12.272  14.308 -0.0697  0.0596  0.1928
14232W        W30366   9.788   3.315   1.231 -0.0403 -0.0378  0.1151
14233W        W30367  10.627  10.790   2.788 -0.1215  0.0162 -0.2753
14234W        W30368   3.949   7.524   0.703  0.2439  0.1643  0.0663
14235W        W30369   2.462  14.227   4.126  0.1777  0.3416  0.0467
14236W        W30370   2.176   7.178  12.062 -0.2535  0.1043  0.2409
14237W        W30371   5.192  18.304   3.683  0.1946 -0.0812  0.0720
14238W        W30372   5.769  14.764  11.625 -0.1768  0.0289 -0.0091
14239W        W30373   1.888  13.067   2.618 -0.2845  0.1734  0.0004
14240W        W30374   5.901   3.811  13.326 -0.0912 -0.4977  0.5061
14241W        W30375  14.978  14.491  12.551  0.3609  0.0558  0.2068
14242W        W30376   4.405   3.647  13.285 -0.2215 -0.0288  0.0597
14243W        W30377   8.411  16.882   1.318  0.1030 -0.0601 -0.0317
14244W        W30378   5.098  16.485  12.419 -0.0287 -0.0525 -0.0288
14245W        W30379   1.454  12.207   0.556 -0.0800  0.2618  0.0453
14246W        W30380  17.329   3.841  13.392 -0.0278  0.1608 -0.3615
14247W        W30381   3.855   2.989  12.524 -0.0785 -0.0590  0.1767
14248W        W30382   9.536   7.406   5.591 -0.2118 -0.2652  0.2968
14249W        W30383   3.715  10.620   1.449  0.1499 -0.2527  0.1482
14250W        W30384   4.628   5.550  14.713 -0.1637  0.1721 -0.1892
14251W        W30385  12.623  13.339  11.243 -0.1095  0.2020  0.1139
14252W        W30386  13.555   0.234   2.459  0.2726 -0.0103 -0.0719
14253W        W30387  18.378   1.631  11.798 -0.1535 -0.2578 -0.2114
14254W        W30388   4.323  17.882   3.947 -0.0067 -0.0601 -0.3063
14255W        W30389   0.678  10.514  11.821 -0.1680 -0.0524  0.0514
14256W        W30390   8.378  17.539  13.432 -0.1755 -0.2434  0.0441
14257W        W30391   6.219   3.052   4.640  0.1238 -0.2586 -0.1730
14258W        W30392  14.770  15.054   4.704 -0.1520  0.2635  0.0321
14259W        W30393  12.484   8.712  10.559 -0.1455  0.1077  0.0020
14260W        W30394   9.827   4.727   2.911 -0.1351 -0.1516  0.3007
14261W        W30395  16.457  11.196   5.272 -0.1455  0.1846 -0.2526
14262W        W30396   1.193  11.184   3.816  0.2610  0.0563 -0.0646
14263W        W30397   7.445  10.191  13.585  0.1800  0.1328 -0.1723
14264W        W30398   7.506   6.818   2.139  0.3952  0.0401 -0.3633
14265W        W30399  15.722  10.453  13.141  0.0516  0.2189  0.1494
14266W        W30400  10.260  17.500   1.179 -0.0864 -0.1442  0.4463
14267W        W30401  11.719  14.007  13.973  0.1672 -0.0080  0.2865
14268W        W30402  10.662   8.852  15.012  0.1807 -0.1240 -0.0713
14269W        W30403   0.088   3.953   2.923  0.2867 -0.4275  0.0176
14270W        W30404  17.407  14.940   1.179  0.1444  0.0273  0.3826
14271W        W30405  16.703  14.748  11.430 -0.1633 -0.0431  0.0443
14272W        W30406   6.161  14.716   4.995  0.0625  0.1358  0.1041
14273W        W30407  17.114   7.754   5.428  0.0383 -0.1847 -0.2851
14274W        W30408  15.289   8.906  12.789  0.0581  0.0521 -0.0894
14275W        W30409  16.715   0.796   1.745  0.1692 -0.0488 -0.3819
14276W        W30410   3.012  10.002   3.055 -0.0656  0.0255  0.2970
14277W        W30411   9.154   7.689   4.140 -0.1505  0.0286  0.1521
14278W        W30412   1.239   9.667   0.138 -0.1438 -0.1194 -0.2938
14279W        W30413  11.655  16.772  12.155 -0.1310 -0.0213  0.1187
14280W        W30414   8.182   6.206  10.511 -0.2154  0.1062  0.1394
14281W        W30415  12.128   9.028   4.229  0.0616 -0.2287 -0.1777
14282W        W30416  14.433  14.023   3.933  0.2228 -0.1485 -0.0569
14283W        W30417   4.502   4.983   4.342  0.1317  0.0427 -0.1357
14284W        W30418   1.334   3.853  11.036  0.0325 -0.0689 -0.0398
14285W        W30419  12.069   9.797   2.878 -0.3712 -0.2181  0.3406
14286W        W30420   0.411   9.193  12.950  0.0286 -0.0293  0.2145
14287W        W30421  14.051   8.131   4.721 -0.0762  0.3704 -0.0093
14288W        W30422  10.054   7.040   2.501 -0.1090  0.2730  0.1904
14289W        W30423  13.390  14.696  14.954 -0.0863 -0.3696 -0.1005
14290W        W30424  12.247   4.072  10.720  0.2636 -0.1240  0.1562
14291W        W30425  15.515   1.900  13.421  0.0566 -0.2482 -0.3305
14292W        W30426   7.528  12.953  14.739 -0.0922  0.2011 -0.2317
14293W        W30427   6.089   4.741   0.108  0.1098  0.1605  0.0830
14294W        W30428  15.974  15.550   3.354  0.3707  0.0093  0.0982
14295W        W30429   8.310  14.539   0.801 -0.2298  0.0528 -0.0043
14296W        W30430   4.779  15.744   9.734 -0.2126  0.3148  0.2481
14297W        W30431   9.351   4.685   4.710 -0.3115 -0.1736  0.2991
14298W        W30432   8.027   1.640   1.076 -0.1342 -0.0271  0.0045
14299W        W30433   4.600   0.767  15.398 -0.3232  0.0398  0.0676
14300W        W30434  11.959  11.376  12.865 -0.2733 -0.0522 -0.1604
14301W        W30435   6.772   2.881  13.978  0.1108 -0.3256  0.2199
14302W        W30436  14.071   2.083   2.957 -0.1475  0.0815 -0.0916
14303W        W30437   0.315   6.973  11.800 -0.0744 -0.2253  0.2800
14304W        W30438  17.306   4.729  15.120  0.0540 -0.0758  0.1617
14305W        W30439   8.832   9.145  13.348 -0.0599 -0.4861 -0.1953
14306W        W30440  10.121   2.962  14.909  0.2610  0.0438  0.3601
14307W        W30441  11.520   5.647  12.233  0.0125 -0.0832 -0.0432
14308W        W30442   2.088   9.413  13.279  0.0112  0.0312  0.0706
14309W        W30443   8.892   3.016  15.546  0.3597  0.0852 -0.0124
14310W        W30444   7.183   6.503   1.131  0.2734  0.1901 -0.2965
14311W        W30445  18.572  14.186  11.062 -0.0157  0.0233 -0.1694
14312W        W30446  12.771  11.563  11.934 -0.1955  0.0148 -0.1675
14313W        W30447  12.248  13.064   4.034 -0.0495  0.0708  0.1912
14314W        W30448   1.907  11.167  11.322  0.0244  0.0856 -0.1363
14315W        W30449  15.321   5.077   2.857  0.2525  0.4237  0.0985
14316W        W30450   7.021   1.943   1.926  0.0132 -0.2219  0.0196
14317W        W30451   2.016   1.524   1.538  0.0791  0.1961  0.1287
14318W        W30452  13.572  15.465   1.861 -0.0591  0.1983  0.4029
14319W        W30453   5.733  11.282  12.021  0.0819  0.2917 -0.2776
14320W        W30454   5.037   3.165  14.804 -0.0917  0.2585 -0.0573
14321W        W30455  16.537   5.879  14.590  0.4918 -0.1503  0.0803
14322W        W30456   2.393   1.461  10.898 -0.0201  0.0338  0.0969
14323W        W30457  18.705  14.601   3.894 -0.1145  0.3100 -0.0948
14324W        W30458  14.193   4.810  11.710 -0.2154 -0.0559 -0.0267
14325W        W30459  12.452  17.929   2.705  0.0910  0.0696  0.0329
14326W        W30460  13.156   1.811  12.247 -0.0959 -0.0035 -0.0402
14327W        W30461   4.716  12.032  10.500 -0.1395  0.1335 -0.0024
14328W        W30462  10.758  10.907   0.120 -0.0424 -0.1793 -0.0938
14329W        W30463  12.443   6.656  11.544 -0.0269  0.0258 -0.1262
14330W        W30464   2.398   3.298  14.979  0.2884  0.0738 -0.2704
14331W        W30465  15.384  12.525   3.338 -0.0249  0.1844 -0.2070
14332W        W30466   3.862   0.440   1.699 -0.0883  0.1241  0.1923
14333W        W30467  16.226  10.351   1.211  0.0719  0.0180 -0.0982
14334W        W30468  15.040  14.413   1.538 -0.0844 -0.3469 -0.0897
14335W        W30469  12.026   1.733   5.317  0.1839 -0.2503 -0.1130
14336W        W30470  17.864   5.911   2.294 -0.3252  0.1061 -0.1919
14337W        W30471  10.170   2.335  11.771  0.3256 -0.3921  0.1461
14338W        W30472  11.661  10.680  13.259 -0.0127 -0.3592 -0.0737
14339W        W30473   6.551   5.884   1.234  0.0893  0.0211  0.1860
14340W        W30474   4.801   1.322  11.424 -0.0919 -0.0389  0.1874
14341W        W30475   5.827  13.048  12.328 -0.1874 -0.2301 -0.3050
14342W        W30476  12.022  17.992   5.485 -0.0097  0.2382  0.1142
14343W        W30477  17.362   3.365   1.093 -0.0251  0.0880  0.0440
14344W        W30478   7.852   4.249  13.924 -0.0781  0.3570 -0.1341
14345W        W30479   2.600  10.642   1.940 -0.0409  0.0672  0.2391
14346W        W30480  14.491   8.497   1.380  0.0418 -0.1155 -0.2893
14347W        W30481  16.099  17.961  15.571  0.0800 -0.1550 -0.1863
14348W        W30482  10.140   7.416   1.166  0.1928  0.3487  0.0883
14349W        W30483   0.835  16.089   0.124  0.2534  0.2002  0.0327
14350W        W30484  12.198   0.548  11.209  0.0991 -0.0394 -0.0513
14351W        W30485   9.276  18.028   1.396 -0.2316 -0.0241  0.3700
14352W        W30486  11.653  17.026  10.865  0.0559 -0.0690 -0.2114
14353W        W30487   9.949  15.100   2.217  0.1224 -0.2365 -0.1435
14354W        W30488  13.539   6.785  15.220  0.0350  0.0366  0.0257
14355W        W30489   8.430   3.789   1.135  0.0066  0.0407  0.0919
14356W        W30490  12.213   2.571  11.754  0.1564  0.1614  0.2615
14357W        W30491  11.593  11.177   2.018  0.0063  0.2974  0.0089
14358W        W30492   3.272   1.493  10.230  0.4482  0.1121  0.0919
14359W        W30493   8.395   5.869   5.496 -0.1503 -0.1388 -0.0859
14360W        W30494  15.729  15.543  13.643  0.0004  0.2319  0.1566
14361W        W30495  12.588   3.956  14.760  0.0589 -0.3307  0.3570
14362W        W30496   8.224   2.971  10.957  0.2121  0.0975  0.0836
14363W        W30497   0.763   6.322  13.114 -0.2683 -0.1822  0.0747
14364W        W30498   0.030   2.646  14.385  0.3085 -0.2837  0.0451
14365W        W30499  16.949   8.641   5.329  0.0740 -0.0029 -0.0594
14366W        W30500  11.360   9.884   5.905  0.1291 -0.0927  0.1920
14367W        W30501  13.491   2.844  11.580 -0.2492 -0.1112 -0.0035
14368W        W30502   9.863   1.380  11.795 -0.0226  0.1265 -0.0892
14369W        W30503   3.261   3.893   3.519 -0.1471 -0.0148 -0.0231
14370W        W30504   5.228   3.839  15.351 -0.0298 -0.1129 -0.2107
14371W        W30505  17.588  15.535   2.731 -0.2489  0.2538 -0.0151
14372W        W30506   6.392  12.454   3.024  0.1604 -0.1510 -0.1619
14373W        W30507  13.633   9.200   4.978 -0.2318 -0.0566 -0.2486
14374W        W30508   8.778  12.901   2.748 -0.0065 -0.3421  0.0860
14375W        W30509   9.391  14.240   0.823  0.1658 -0.4581  0.0708
14376W        W30510   6.040   6.622   3.243 -0.1888 -0.0583 -0.1422
14377W        W30511  17.006   0.087  11.878  0.4182  0.2895 -0.0680
14378W        W30512  14.185   9.733  11.267  0.0105 -0.3277 -0.3301
14379W        W30513   0.307  14.226   3.257  0.1597  0.1282  0.2121
14380W        W30514  17.226  15.677   1.180  0.2453  0.0045  0.0423
14381W        W30515  16.855   9.173   2.399 -0.2226 -0.0146 -0.1737
14382W        W30516   0.717  18.695  14.797 -0.0807 -0.0613  0.0342
14383W        W30517  14.258  15.976  14.111 -0.1997 -0.1279  0.0548
14384W        W30518   9.056   1.358  11.514  0.0138 -0.0233  0.2087
14385W        W30519  17.643   7.791  12.230  0.0236  0.0399  0.0742
14386W        W30520  14.992   7.917  11.373  0.0774  0.3325  0.1110
14387W        W30521   6.828  13.091   5.270 -0.0462 -0.0836 -0.1710
14388W        W30522   9.538   9.464   3.759 -0.1354  0.2832 -0.4719
14389W        W30523  14.997   4.075  12.080 -0.2005 -0.2272 -0.1319
14390W        W30524   5.387  13.196  10.832  0.2185 -0.2138 -0.1230
14391W        W30525  10.251  16.141   0.802 -0.3654 -0.1804 -0.1832
14392W        W30526   7.884  13.650   2.765 -0.0419  0.0382 -0.0524
14393W        W30527   3.276  10.359   4.552 -0.1922 -0.0677 -0.1768
14394W        W30528   0.730   5.240  14.442  0.0459 -0.0102 -0.0722
14395W        W30529   5.903   4.522  10.945  0.0580  0.2889  0.3821
14396W        W30530   5.294  10.904  11.259  0.1338  0.3096  0.2291
14397W        W30531  14.736  17.485  11.277 -0.1107  0.0123  0.0229
14398W        W30532   8.080   2.034   0.187 -0.1428  0.0365 -0.0209
14399W        W30533   8.537  10.049   1.534 -0.1703  0.0662 -0.0728
14400W        W30534   7.250  17.150   1.064  0.3724 -0.0851 -0.0096
14401W        W30535  14.545   5.393  13.099  0.0474  0.3155  0.0446
14402W        W30536  11.112  11.342   1.829 -0.2210 -0.0199  0.0087
14403W        W30537   6.869   7.768  14.301  0.1105 -0.2183 -0.0874
14404W        W30538   6.461   1.615  12.107 -0.0491 -0.1743  0.1335
14405W        W30539   7.954   5.051  13.597  0.0520 -0.0387 -0.1941
14406W        W30540  17.790   0.125  14.238 -0.2334  0.1411 -0.0365
14407W        W30541   4.377   4.423   3.282  0.1615 -0.2295  0.2413
14408W        W30542   5.547   0.946  12.092  0.0768  0.0347 -0.0110
14409W        W30543   7.106  16.912   0.450  0.1689  0.0527 -0.3097
14410W        W30544  14.910  18.335  13.048 -0.0482 -0.2829 -0.1318
14411W        W30545  11.894   7.935   0.027 -0.3510  0.4092 -0.2480
14412W        W30546   3.650  15.985   4.492 -0.0044  0.4229 -0.0296
14413W        W30547  14.105   8.725   2.060  0.1459 -0.1679 -0.0231
14414W        W30548   0.956  16.720  11.103 -0.1779 -0.0869 -0.0885
14415W        W30549  12.447  10.905  11.111 -0.3451 -0.2934  0.1821
14416W        W30550  11.480   6.263  15.468 -0.0044  0.0440  0.0203
14417W        W30551  15.455  14.945  11.928  0.3836 -0.3165 -0.3128
14418W        W30552   2.592   9.375   4.098 -0.1412  0.0397 -0.0334
14419W        W30553  11.330   2.010  13.671 -0.0947 -0.1685  0.2578
14420W        W30554   0.674  11.204   0.825  0.0736 -0.3830  0.0014
14421W        W30555   7.253  17.392  12.847 -0.0984 -0.0663 -0.2981
14422W        W30556  13.667   3.974   4.278  0.0032  0.0768 -0.2537
14423W        W30557  10.640   8.304  13.754 -0.1833  0.0720 -0.1612
14424W        W30558   3.747  14.228  10.380 -0.3017  0.1033 -0.2384
14425W        W30559   8.808  17.469  13.759 -0.1110 -0.0392  0.1754
14426W        W30560   8.391  13.039  12.746 -0.3647  0.2116 -0.2954
14427W        W30561   3.342  15.446   9.359  0.1236  0.3104 -0.0000
14428W        W30562  10.566  16.334  12.915  0.1609  0.1446  0.0765
14429W        W30563  18.237   8.097  10.656 -0.2870  0.0599  0.0442
14430W        W30564   6.784  12.260  12.653 -0.1328  0.1631 -0.2816
14431W        W30565  12.188  18.336  12.605 -0.4330  0.2640  0.0984
14432W        W30566  10.138  17.515   2.923  0.1427 -0.0978 -0.1204
14433W        W30567  11.385  11.595   0.274 -0.1170  0.1418 -0.2240
14434W        W30568   8.910   5.398   0.457  0.1204  0.1567  0.0275
14435W        W30569   0.853   0.065   1.858 -0.1431  0.2501 -0.0766
14436W        W30570   3.838  16.307  15.289 -0.3352 -0.3418  0.0353
14437W        W30571  16.087   1.323  11.748  0.0055  0.1463 -0.0141
14438W        W30572  13.573   7.460  14.609 -0.0183  0.2057  0.0861
14439W        W30573   2.077  17.365   4.960 -0.1631  0.0565  0.0314
14440W        W30574   1.768  14.499  11.961  0.0486 -0.1063 -0.1715
14441W        W30575  14.562  13.658  12.738 -0.1603  0.2216  0.0059
14442W        W30576   5.139   2.736  14.583 -0.0230  0.0774 -0.2725
14443W        W30577   2.875   3.970   0.009  0.4048  0.1562 -0.2449
14444W        W30578  10.119   9.177   4.490  0.0228  0.1113 -0.0379
14445W        W30579  18.111   0.255  13.139 -0.0457 -0.2659  0.1721
14446W        W30580   4.682   6.344  10.895 -0.1309 -0.1177 -0.1001
14447W        W30581   5.371  11.511   5.318  0.2317 -0.1312  0.0475
14448W        W30582   1.277  16.700  12.927 -0.1741 -0.1122  0.1544
14449W        W30583   2.259  10.171   9.701  0.1767  0.1876 -0.1857
14450W        W30584   4.632  16.609   4.026  0.1684  0.0703 -0.0733
14451W        W30585   3.574  11.949   3.062  0.0049  0.3161  0.0478
14452W        W30586  13.056  16.355   2.468 -0.0201  0.0412 -0.0581
14453W        W30587  18.718   8.159   0.608  0.1563  0.0048  0.0063
14454W        W30588   1.287   4.849   4.674  0.0833  0.1421  0.2480
14455W        W30589   2.063  16.418   4.420 -0.2378  0.1117  0.0845
14456W        W30590   8.690   4.082  13.178 -0.0641 -0.4037 -0.1559
14457W        W30591   2.117  18.295   1.303  0.2739 -0.3120  0.3097
14458W        W30592   2.519  14.331   1.390 -0.1691  0.0413 -0.1788
14459W        W30593   5.024  15.429  12.379  0.0042 -0.1994  0.0026
14460W        W30594   2.588  15.508   3.945  0.0176  0.0792  0.0716
14461W        W30595  13.805   6.510  11.344 -0.1055  0.2469  0.2666
14462W        W30596  14.509   9.461   2.098  0.0489 -0.1998  0.0354
14463W        W30597   5.288  15.868  12.296 -0.0118 -0.1499  0.0503
14464W        W30598   8.784  13.074  13.522  0.1720  0.2244  0.2622
14465W        W30599  15.352   8.543   3.575 -0.1300 -0.1237  0.3999
14466W        W30600   0.048  11.856  12.598 -0.0724 -0.1331 -0.1257
14467W        W30601  17.442   1.157   3.959 -0.1155 -0.2974  0.0265
14468W        W30602  16.574   4.111  15.201 -0.0578 -0.1001  0.1065
14469W        W30603   9.815  15.374   3.916 -0.2203  0.1817 -0.0708
14470W        W30604   3.042  15.943   3.764  0.1339  0.1790  0.2170
14471W        W30605  10.244  10.566   3.110 -0.0530 -0.3286  0.0642
14472W        W30606   9.733   8.070  14.343 -0.1638 -0.0346 -0.1023
14473W        W30607  17.963  12.124   0.895 -0.2965 -0.1616 -0.0296
14474W        W30608   9.661   3.639  13.965  0.2950 -0.0575  0.0628
14475W        W30609  13.884   3.717   4.770 -0.0352  0.0850 -0.2106
14476W        W30610   6.295   6.403  13.143  0.2375 -0.1627 -0.0461
14477W        W30611   0.329  16.524   1.217  0.2939 -0.2185 -0.0802
14478W        W30612   7.853   6.119   2.712 -0.1390  0.2186 -0.1539
14479W        W30613  13.454   4.228   3.887  0.0709  0.0002 -0.0016
14480W        W30614   5.846  13.603   3.421  0.2495 -0.0305 -0.1403
14481W        W30615   5.608   7.873  11.329  0.2841 -0.0625 -0.4878
14482W        W30616   6.911  10.413   0.312  0.3087 -0.0823 -0.1996
14483W        W30617  16.756   4.275  14.768 -0.4026  0.0811  0.3446
14484W        W30618  12.164  13.697  11.114  0.2549 -0.0087 -0.2742
14485W        W30619   2.733  14.811  12.672 -0.1584 -0.0655 -0.1818
14486W        W30620   3.058   6.176  12.994 -0.3217  0.1675  0.4028
14487W        W30621  15.239  12.534   0.579 -0.2685  0.1226 -0.0482
14488W        W30622  10.463  18.327  14.935  0.3435 -0.2849  0.0210
14489W        W30623   7.753  14.339  14.235 -0.1512  0.0901 -0.0690
14490W        W30624  13.083  16.638   4.562 -0.0793  0.1053  0.1159
14491W        W30625   7.171   1.331   9.794 -0.0676 -0.2968  0.2864
14492W        W30626   6.472  14.007   4.638 -0.0024  0.0427 -0.2979
14493W        W30627  16.982  10.243  14.497  0.2309  0.2511 -0.1973
14494W        W30628   5.864   0.178   9.950 -0.1385  0.2840 -0.0083
14495W        W30629  17.978   3.804  14.086 -0.2185 -0.0937 -0.2636
14496W        W30630  18.152  12.336   4.934 -0.0533  0.2423 -0.0249
14497W        W30631  16.235  14.495   3.523 -0.0157 -0.2788 -0.1090
14498W        W30632   6.479   3.626   1.737 -0.0516  0.0325  0.2131
14499W        W30633   4.156   5.872  13.987 -0.1116  0.0426  0.0599
14500W        W30634   4.711   1.605  15.071  0.3006  0.1930  0.0681
14501W        W30635  12.238   6.614   2.963  0.2070  0.0637  0.0441
14502W        W30636  15.778   9.336   0.365  0.3396  0.0157 -0.1458
14503W        W30637   3.588   4.055  12.257 -0.1138  0.0201 -0.0810
14504W        W30638   4.404   7.836   3.206  0.1084  0.1769  0.2153
14505W        W30639   9.177  12.952   2.385 -0.3721 -0.0817  0.2949
14506W        W30640  13.412  12.057  11.541 -0.1843  0.1658 -0.1616
14507W        W30641   6.585   0.953   4.504  0.1978  0.0871  0.1898
14508W        W30642   9.554  10.351   4.059 -0.0640  0.1549 -0.0687
14509W        W30643  12.617  15.287  13.660  0.2017 -0.1108 -0.1405
14510W        W30644   5.165  17.355  14.069  0.1594  0.1164  0.1846
14511W        W30645  14.900  13.510  14.652 -0.0945  0.0566 -0.4714
14512W        W30646   6.754   2.007  13.175 -0.3903 -0.0222 -0.1197
14513W        W30647  15.490   1.182  14.661 -0.1033  0.2320 -0.2293
14514W        W30648   6.032   2.858  10.649  0.1672 -0.0582  0.0961
14515W        W30649  12.508  15.224   5.696  0.1069  0.2258 -0.0278
14516W        W30650  15.131  18.701   4.762 -0.1292 -0.0298  0.1337
14517W        W30651  14.172   4.680   0.777 -0.0922  0.1944  0.1490
14518W        W30652   9.381  18.663  10.249  0.2680  0.0304  0.4484
14519W        W30653   1.517  12.615   0.263 -0.0417 -0.2888  0.1827
14520W        W30654   5.010  15.853   2.526 -0.1949 -0.1130 -0.0375
14521W        W30655   3.221  16.909  14.840  0.0567 -0.1087  0.1224
14522W        W30656   0.019   9.003   1.029  0.0982  0.0637  0.3537
14523W        W30657  12.732  13.072  10.775  0.2087 -0.0203 -0.0235
14524W        W30658   5.433   4.811  12.499  0.0369 -0.0594  0.5917
14525W        W30659   1.256   1.593  11.290  0.1859 -0.3841  0.2170
14526W        W30660  15.211  16.390  11.929  0.0210  0.1098 -0.0701
14527W        W30661   6.645  11.250  15.482 -0.0781 -0.0823 -0.1688
14528W        W30662   2.764   7.952   1.112 -0.1397 -0.1435  0.0693
14529W        W30663   6.989  12.689  12.588  0.1607 -0.0197 -0.3123
14530W        W30664   4.279  14.492  13.705  0.0627 -0.1320 -0.3591
14531W        W30665  17.747  17.336   4.534 -0.0893  0.0894  0.0661
14532W        W30666   7.144  17.683  14.372  0.2206  0.0549 -0.2258
14533W        W30667   8.472  15.880   1.811 -0.0287  0.1039 -0.1298
14534W        W30668  11.021  16.504   0.679  0.1133 -0.3687 -0.1111
14535W        W30669  15.870  18.090  12.303 -0.0068  0.0054 -0.1140
14536W        W30670  12.955   2.983   3.199 -0.0867 -0.1664 -0.2320
14537W        W30671   5.092   0.621  14.674 -0.0744  0.2734 -0.1215
14538W        W30672  17.241  15.282   1.513  0.0414  0.0766  0.2316
14539W        W30673  16.887  18.688  13.197  0.4339 -0.2914 -0.2147
14540W        W30674   1.248  17.229  11.251  0.0787  0.2933 -0.0073
14541W        W30675   6.690   2.124  11.106 -0.0092  0.1499  0.2577
14542W        W30676  14.639   3.278   2.475 -0.2402 -0.0152 -0.1087
14543W        W30677  16.595   2.146  11.205 -0.0643 -0.2572 -0.0149
14544W        W30678   4.693   1.203  12.641  0.0070  0.2029  0.1463
14545W        W30679  11.566   9.877   3.475 -0.1681 -0.0178  0.3277
14546W        W30680   1.751   1.345   5.067 -0.2446  0.1530 -0.0123
14547W        W30681  16.385   6.305   1.006 -0.1076 -0.3848  0.0722
14548W        W30682   7.066   9.030  11.879  0.1130 -0.1319  0.1308
14549W        W30683  14.357  12.268   3.317  0.1491  0.0624 -0.1366
14550W        W30684  14.138   4.852  14.209  0.3231  0.1168  0.0802
14551W        W30685  11.934  10.007   2.135 -0.0309 -0.1722  0.2087
14552W        W30686   4.404  14.837   2.581  0.1581  0.0297  0.1664
14553W        W30687   9.198  10.590   2.216  0.3903 -0.0687 -0.0848
14554W        W30688  16.357   9.964   1.516 -0.0695 -0.2109  0.1558
14555W        W30689   7.247  13.737   0.127 -0.1333  0.0481  0.1692
14556W        W30690   0.733  12.508   4.967 -0.1486 -0.0624  0.0424
14557W        W30691  17.055   5.705  14.931  0.0654 -0.0558 -0.1782
14558W        W30692   7.911  14.971  13.294 -0.1489  0.0399 -0.1012
14559W        W30693   0.026   0.012   3.172  0.4356  0.1632 -0.1740
14560W        W30694   1.353  17.820   5.419 -0.1946 -0.0697 -0.1180
14561W        W30695   3.509   1.200  13.366 -0.1482  0.0848  0.2640
14562W        W30696   9.778   4.413  13.522  0.0643  0.1319 -0.0315
14563W        W30697   2.609  16.700  13.562  0.0642  0.1575  0.0455
14564W        W30698   3.049  17.689   0.426  0.1719 -0.1181  0.0228
14565W        W30699   1.390   8.611   3.664  0.3025 -0.1640  0.0473
14566W        W30700   0.255  13.655   3.362 -0.1724 -0.0397 -0.0082
14567W        W30701  11.636   6.019  14.876  0.0802  0.0845  0.0952
14568W        W30702   4.248   1.543   0.285 -0.0931 -0.1101  0.0459
14569W        W30703  15.010   5.114  14.307 -0.0416 -0.1141 -0.2777
14570W        W30704  17.466   3.605  14.008 -0.2579 -0.2415 -0.2924
14571W        W30705  15.109  17.649  10.996  0.2352 -0.0375 -0.0459
14572W        W30706   8.827   2.831   3.187 -0.2045  0.1607 -0.0883
14573W        W30707   5.771  12.730  12.774 -0.1934  0.3143  0.1460
14574W        W30708  14.215  10.183   1.429  0.1562  0.0558 -0.2846
14575W        W30709  12.399   2.762  14.378 -0.1819  0.2431  0.1080
14576W        W30710   4.530  17.771  12.394 -0.0744 -0.0044 -0.0536
14577W        W30711  13.344  13.651   1.973  0.0955  0.0287 -0.1258
14578W        W30712  17.114   9.858   1.362 -0.0643  0.3086 -0.1023
14579W        W30713   9.426   3.272   6.029 -0.0028 -0.0857 -0.0616
14580W        W30714  10.451  11.027   3.670 -0.0817 -0.0989 -0.2954
14581W        W30715   3.200  18.688  13.151 -0.3914  0.0517 -0.2624
14582W        W30716  14.698   1.996   1.998 -0.1181  0.1894  0.1728
14583W        W30717  15.276   1.625  12.632  0.2398  0.0912 -0.3054
14584W        W30718   7.938  12.486   3.620 -0.2004  0.1644 -0.0742
14585W        W30719  11.485  10.890  13.672 -0.1969 -0.0695  0.2764
14586W        W30720   5.001  15.486   4.645  0.3085  0.0154  0.2389
14587W        W30721   8.309   8.810   5.184  0.0281 -0.1081  0.1083
14588W        W30722   8.860  16.224  11.611  0.2665  0.1360  0.0943
14589W        W30723   1.194  18.125   2.296  0.0232 -0.0664  0.0508
14590W        W30724   5.211   6.784   5.180  0.1471  0.0722 -0.1537
14591W        W30725  10.168  12.585  11.995  0.0287  0.0208  0.0453
14592W        W30726  18.093   5.237  11.128 -0.1256 -0.0904  0.0416
14593W        W30727  13.098   3.433   3.402 -0.1071 -0.0535 -0.0559
14594W        W30728  17.534  16.065  15.460  0.3704 -0.0109  0.0542
14595W        W30729   3.201   1.065  12.326  0.3913  0.2624  0.0118
14596W        W30730  16.484  12.082   3.973 -0.1676  0.0952  0.4047
14597W        W30731   5.260  18.699  12.201 -0.0537 -0.2159 -0.0831
14598W        W30732   3.455  16.357  14.766 -0.2385  0.0729  0.1039
14599W        W30733   3.456   4.662  14.518  0.1475  0.0367  0.3411
14600W        W30734  18.290   5.001   3.556 -0.0942 -0.0756  0.2282
14601W        W30735   0.277  16.100   4.137 -0.0198 -0.0402  0.1839
14602W        W30736  15.365   7.761  11.051  0.1305 -0.0433  0.0623
14603W        W30737  16.902   6.152  11.330  0.0315  0.1380  0.0513
14604W        W30738   9.161   7.877  11.758 -0.1366  0.5637 -0.0264
14605W        W30739  12.325  13.868  14.709 -0.2264 -0.2890  0.0056
14606W        W30740  14.051   4.851   9.534  0.0729  0.0864  0.2363
14607W        W30741   4.635  15.663  11.127  0.0264  0.1655  0.1434
14608W        W30742  18.262   9.954   5.132  0.0593 -0.0554  0.0775
14609W        W30743  13.553  14.898   5.592  0.0068 -0.0756 -0.1032
14610W        W30744   9.517  10.143  14.211  0.0269  0.0917  0.2169
14611W        W30745   7.626  14.484  13.726 -0.1197 -0.0699  0.3097
14612W        W30746  11.211   3.386  13.832 -0.1420  0.1205  0.1945
14613W        W30747  15.115   2.748  11.154 -0.3896  0.1149 -0.2696
14614W        W30748  10.854  18.645  15.325 -0.1404 -0.0498 -0.0966
14615W        W30749  16.903  18.284   3.581  0.0407  0.1709  0.1697
14616W        W30750  18.317  17.724  11.754  0.0622 -0.0534 -0.0099
14617W        W30751  18.091   4.254  13.883  0.0823  0.1432  0.0599
14618W        W30752   5.067   1.890  14.593  0.0115  0.1481  0.1257
14619W        W30753  16.441   9.986  13.233  0.0644 -0.1668  0.0872
14620W        W30754   9.986   3.742   4.743  0.3234 -0.2340 -0.0056
14621W        W30755  10.034   3.590  13.037 -0.2282 -0.0430 -0.1124
14622W        W30756   6.143   2.049   0.158 -0.0808  0.2796 -0.0955
14623W        W30757  15.332   2.476  13.151 -0.0731 -0.0133  0.1414
14624W        W30758  15.138  11.742  14.521  0.0364 -0.0302 -0.3542
14625W        W30759   7.748  18.576  11.454  0.0785  0.1090  0.3783
14626W        W30760  12.554   6.560   3.352  0.3947  0.2259 -0.2916
14627W        W30761  17.050   9.897  11.310  0.2374  0.3636  0.1767
14628W        W30762   8.383  11.138  15.256 -0.0624 -0.1715  0.1639
14629W        W30763  10.409  16.004   3.180  0.0379  0.1767 -0.1930
14630W        W30764  15.219   6.747   3.224 -0.0625 -0.1379  0.0201
14631W        W30765  10.021  11.941  10.468 -0.3464  0.0172 -0.1394
14632W        W30766   0.742   4.869   1.635  0.0176  0.0304 -0.0537
14633W        W30767  16.793  10.979  10.568  0.5807 -0.0118 -0.1190
14634W        W30768   7.281  10.961  13.418 -0.1674  0.0955 -0.0419
14635W        W30769   1.662   0.977   0.066 -0.1423 -0.0182 -0.0807
14636W        W30770  18.461  17.603  12.213  0.0909 -0.1324  0.1638
14637W        W30771  11.841   2.335  14.930  0.3447  0.0882 -0.0434
14638W        W30772   2.149   5.793  12.803  0.2531 -0.1959  0.0692
14639W        W30773  12.218  12.171  12.509 -0.2647  0.0611  0.2126
14640W        W30774   6.817   0.944   1.680  0.0151  0.0114 -0.0686
14641W        W30775   7.829   5.571   2.675  0.1988 -0.2969  0.0560
14642W        W30776  18.669   6.575   1.050 -0.1532 -0.0678 -0.2381
14643W        W30777  12.720  14.253  11.482  0.2666 -0.0831 -0.4503
14644W        W30778   2.882   1.015   3.231 -0.1690  0.0465  0.2556
14645W        W30779  12.100   9.091  15.495 -0.0137  0.1179 -0.0779
14646W        W30780  12.805  13.281   2.543 -0.0275  0.1298  0.1719
14647W        W30781   1.939   4.916  12.610  0.1367  0.2155  0.0051
14648W        W30782   8.917  18.623   9.991  0.0674  0.1447 -0.3963
14649W        W30783   6.237  17.805  14.830  0.0810 -0.0521 -0.0197
14650W        W30784  16.719  14.338   0.663  0.0950 -0.0742 -0.0617
14651W        W30785   7.945   2.210   3.408 -0.0809 -0.1566  0.3107
14652W        W30786   2.318  15.596   9.836 -0.3409 -0.2376  0.0969
14653W        W30787  10.304   1.170  14.116  0.2348  0.0836  0.1793
14654W        W30788   3.851   9.091  14.697  0.1986 -0.0934  0.0995
14655W        W30789  16.375  12.252   5.768  0.1795 -0.0945  0.0480
14656W        W30790   4.307   5.823   2.607 -0.3184 -0.1108 -0.0567
14657W        W30791   0.807  16.675  13.038 -0.0361 -0.0032  0.3735
14658W        W30792   2.324  10.894  11.351  0.2373  0.0124 -0.0254
14659W        W30793  13.675   8.158  12.737  0.0845  0.0971  0.0968
14660W        W30794   3.805  18.478  11.863 -0.1206 -0.2530 -0.0857
14661W        W30795   7.497   5.489  12.898 -0.1056 -0.2394  0.3723
14662W        W30796  16.660   0.839  15.193  0.1149 -0.0202 -0.0580
14663W        W30797   9.943  16.819   3.604 -0.2361  0.0726 -0.0975
14664W        W30798   6.652   3.443   2.721 -0.0081 -0.2239  0.2831
14665W        W30799   7.536   8.668   2.154  0.2023 -0.1684  0.2250
14666W        W30800  16.363   3.944   3.044  0.1855  0.2754 -0.1083
14667W        W30801  17.567  11.684   1.994  0.0010 -0.0967  0.0566
14668W        W30802   9.000   0.922   4.047 -0.2245  0.5465 -0.2258
14669W        W30803   8.591  14.674  12.358  0.0407  0.0460  0.0200
14670W        W30804  15.300  18.692  15.426  0.2305 -0.0017  0.0483
14671W        W30805  13.241  15.683  10.185 -0.4099  0.1850 -0.1271
14672W        W30806   8.191  12.220  12.618  0.3589  0.0129 -0.3026
14673W        W30807   4.267  12.471  12.940  0.1430 -0.1870 -0.1815
14674W        W30808   9.849  16.297  13.085 -0.3473 -0.0505 -0.0228
14675W        W30809   5.728  11.362  15.044  0.1204  0.2008 -0.3873
14676W        W30810  16.459  13.583  11.309 -0.1275 -0.1360 -0.4055
14677W        W30811  16.579  10.623  11.009 -0.2857  0.3100 -0.1442
14678W        W30812   2.971  15.348   5.010 -0.1089 -0.1507  0.0527
14679W        W30813   3.091  15.293   3.054 -0.1743  0.1095 -0.1512
14680W        W30814   1.334  13.573  12.503 -0.1745  0.1263 -0.0195
14681W        W30815  10.820   1.862   0.168  0.1922  0.4043  0.1129
14682W        W30816   3.963  15.268  10.684  0.0882 -0.1848  0.1788
14683W        W30817   9.489   7.605   3.201  0.0303  0.3615 -0.4072
14684W        W30818   8.942  15.099  11.610 -0.0046  0.1492 -0.0007
14685W        W30819   3.014  13.912   0.201  0.3080  0.0357  0.2418
14686W        W30820   1.934  12.882  12.430  0.0071 -0.1510 -0.0015
14687W        W30821  13.692  12.015   5.502  0.1715  0.3011  0.1407
14688W        W30822  14.212   7.696   5.550  0.0526  0.0164  0.0798
14689W        W30823  17.233  10.913  14.183  0.0121  0.2681  0.0883
14690W        W30824  13.456   9.369   2.803  0.0553  0.4748  0.3202
14691W        W30825   2.408   2.769  13.228 -0.1002  0.2387 -0.2225
14692W        W30826   6.917  15.527  12.174  0.1150 -0.2197 -0.3420
14693W        W30827  11.720   6.547  13.018 -0.1327  0.0623  0.0779
14694W        W30828   2.315   6.181  15.346 -0.0719 -0.1043 -0.0683
14695W        W30829   7.842   4.040  13.434  0.0496  0.2989  0.0738
14696W        W30830   5.901  10.319  15.470  0.0345  0.1897 -0.0107
14697W        W30831   7.953  16.952  11.461 -0.0760 -0.1074 -0.1334
14698W        W30832   1.799  15.393  12.604 -0.0797 -0.3489 -0.2501
14699W        W30833   4.453  17.373  13.155 -0.0372 -0.0917  0.1750
14700W        W30834   8.003  10.156   1.798 -0.1686  0.4925 -0.0077
14701W        W30835   5.547   6.618  12.780 -0.0734 -0.3716 -0.1791
14702W        W30836  17.493  18.643   3.264  0.1160  0.2181 -0.0083
14703W        W30837   6.056  14.734   3.314  0.0259  0.3380  0.1395
14704W        W30838   1.412  16.805   1.506  0.0121 -0.1210  0.0510
14705W        W30839  12.962  16.488   0.214 -0.0424  0.2752  0.0894
14706W        W30840  18.653  13.314   3.206 -0.0271 -0.0495  0.1088
14707W        W30841   1.364   8.593   3.038 -0.0758  0.0699 -0.0804
14708W        W30842   0.831   1.891   2.336  0.2077  0.1104  0.1593
14709W        W30843  13.729   6.751   1.989 -0.0378  0.0306  0.1836
14710W        W30844  11.573  18.102   5.675  0.0095 -0.0318 -0.2702
14711W        W30845   3.366  11.013   0.896  0.0236  0.1206 -0.0865
14712W        W30846  10.680  12.135   3.695  0.1250 -0.0446 -0.1168
14713W        W30847  11.667   5.942  11.893 -0.3679 -0.3855 -0.0042
14714W        W30848   5.855  15.831   3.621  0.2656 -0.2030  0.2225
14715W        W30849  16.060  17.298   1.120  0.0328 -0.2607  0.3536
14716W        W30850   2.948   9.054  12.917 -0.2790  0.2309 -0.0509
14717W        W30851   0.396  13.333  13.687  0.1656 -0.4033 -0.1370
14718W        W30852   1.760  15.452  15.266  0.2682 -0.0341  0.4166
14719W        W30853  10.555   1.096  13.508 -0.2849  0.1858 -0.1394
14720W        W30854  17.091  14.787   0.361 -0.1732  0.2359 -0.0225
14721W        W30855   7.080  14.020   2.006 -0.1636  0.0638 -0.2527
14722W        W30856   1.477  12.251  12.926 -0.1136  0.0925  0.0126
14723W        W30857   8.108  11.220  14.433 -0.1826  0.1730  0.0516
14724W        W30858  13.311   0.146  12.295  0.0145  0.4180  0.0672
14725W        W30859   8.141   0.091  11.084 -0.0731 -0.1888 -0.0928
14726W        W30860  17.541   9.384  13.521 -0.1797 -0.1203  0.0420
14727W        W30861   3.222  12.865   1.877  0.0051  0.0813  0.0748
14728W        W30862  16.085   4.518   1.109  0.0720  0.0958 -0.1208
14729W        W30863   2.931   7.587  13.453  0.3335 -0.0662 -0.1677
14730W        W30864   8.982   7.876   2.469  0.0756  0.2819  0.0328
14731W        W30865   3.255   2.032   0.868 -0.0611 -0.1324  0.3273
14732W        W30866   2.072  13.023  15.100 -0.2226  0.0007  0.1153
14733W        W30867   6.967  15.730  12.716 -0.0851  0.3374 -0.0428
14734W        W30868   3.240   5.603  14.620 -0.2133  0.3695  0.1917
14735W        W30869   3.779  14.882   0.969 -0.1503  0.0127 -0.2840
14736W        W30870  17.463   1.458   0.999  0.3632 -0.4086  0.0953
14737W        W30871   8.527   5.197  11.731 -0.0796 -0.4737  0.2331
14738W        W30872  17.153   8.402  11.841  0.0221 -0.1015  0.1679
14739W        W30873  18.082  10.406   1.785  0.2130  0.1410  0.1515
14740W        W30874  13.634  11.264  14.514  0.5363  0.0346  0.4319
14741W        W30875  18.309  15.796   5.872  0.1931  0.2052  0.0796
14742W        W30876  18.730   6.394  14.883  0.1965 -0.0471  0.1832
14743W        W30877  16.552  11.878  11.817 -0.3803  0.0405  0.2626
14744W        W30878  16.977   1.595   3.014 -0.2424 -0.1034 -0.1210
14745W        W30879   8.809  16.917   2.951  0.1511 -0.2466 -0.0462
14746W        W30880  15.124  12.055  14.899 -0.4081 -0.1793 -0.3007
14747W        W30881   4.306  13.914   1.797  0.2592  0.1034  0.0467
14748W        W30882   3.232   2.622   2.098  0.0167  0.0851 -0.0706
14749W        W30883   5.032  14.461   5.516  0.4187 -0.1649 -0.0864
14750W        W30884  17.213  16.261  12.722  0.0991 -0.0510 -0.4271
14751W        W30885   2.249  16.875  13.852  0.0645 -0.0341  0.0919
14752W        W30886   5.904   2.571   3.089 -0.3343  0.1398  0.1982
14753W        W30887   4.259   3.447   4.470  0.1009 -0.2067  0.1307
14754W        W30888  17.476  12.438  13.350 -0.2316 -0.1690 -0.0421
14755W        W30889  13.303   8.012   1.984 -0.1981 -0.1072  0.1659
14756W        W30890  13.652  10.335  14.182 -0.0552  0.1348 -0.3298
14757W        W30891   8.494  12.870   4.868 -0.1902 -0.1187 -0.0744
14758W        W30892  10.100  18.672   2.428  0.3680 -0.0707  0.1333
14759W        W30893   6.907   4.824   1.124 -0.2348 -0.0530 -0.2394
14760W        W30894  13.449  16.322   0.347 -0.0507 -0.1157 -0.1662
14761W        W30895  12.188  18.513   0.872  0.0509  0.0397  0.1418
14762W        W30896   7.868   3.310   0.788 -0.1995 -0.2249 -0.0591
14763W        W30897   2.937  12.526  14.844  0.2811 -0.0342  0.0935
14764W        W30898   9.202  12.451  15.285 -0.1048  0.0028  0.0915
14765W        W30899   1.309   6.881  10.175  0.0048 -0.0161 -0.1331
14766W        W30900   1.060   3.469  14.675  0.0338 -0.1866  0.0650
14767W        W30901  11.440   7.105  14.145 -0.0430  0.1882  0.3126
14768W        W30902  15.698   0.047   0.886  0.1100 -0.2438 -0.0020
14769W        W30903   0.363   8.822  11.810  0.3018 -0.0895  0.1603
14770W        W30904   5.409  12.839  11.257  0.1860 -0.1556 -0.1324
14771W        W30905   2.313   0.933   3.693 -0.1275  0.2809 -0.0370
14772W        W30906   2.537  10.372  14.630  0.0555  0.1575  0.1098
14773W        W30907   4.649   0.318  10.960 -0.2336  0.1700 -0.0330
14774W        W30908   0.890  16.183  13.188 -0.0181 -0.4384  0.1928
14775W        W30909   9.672  12.360  13.808 -0.4780  0.2645 -0.1678
14776W        W30910  13.684  11.455   3.292 -0.0054 -0.1142 -0.1934
14777W        W30911  17.685  12.132   2.022  0.2007 -0.2336  0.0889
14778W        W30912  14.665  17.695   4.806 -0.0159 -0.1362 -0.0131
14779W        W30913  14.101   5.251  12.018 -0.3167 -0.0438  0.2849
14780W        W30914  14.484  10.642   2.116  0.1330  0.1926  0.0063
14781W        W30915   8.240   8.823   0.556 -0.2223 -0.5913 -0.0111
14782W        W30916   5.843   4.172   1.236 -0.1504  0.1763 -0.1840
14783W        W30917   7.319   5.467  13.753 -0.1782  0.1806  0.0684
14784W        W30918   0.277   0.459   9.461  0.0289 -0.0958 -0.3489
14785W        W30919  17.685   4.778  11.563 -0.1240  0.1576 -0.1283
14786W        W30920   9.683  16.349   1.444 -0.4723 -0.2669 -0.0352
14787W        W30921  13.863   1.222   1.518 -0.0174 -0.0758 -0.1195
14788W        W30922   0.018   5.878   3.453  0.1386  0.1876 -0.0816
14789W        W30923  11.396   2.573  13.621  0.2479 -0.0922 -0.0968
14790W        W30924   3.553  13.260  12.446  0.3006  0.2146 -0.2219
14791W        W30925  16.337  16.026   4.179  0.4169  0.0261 -0.0019
14792W        W30926   2.558   9.815   0.740 -0.0453 -0.1294 -0.1316
14793W        W30927   7.134   4.583  11.463  0.0190  0.2562 -0.0466
14794W        W30928  18.606  17.807  13.492  0.0098  0.0247 -0.1624
14795W        W30929   0.974  18.268   5.313  0.0536 -0.0122 -0.3870
14796W        W30930  17.098   3.940   3.395 -0.2014 -0.0688  0.1118
14797W        W30931  10.105   7.962   1.518  0.0851  0.1050  0.0503
14798W        W30932  14.585   4.902   1.555  0.0772  0.3838  0.3781
14799W        W30933  11.593   6.950   4.132 -0.0915  0.1053  0.1137
14800W        W30934  12.873  17.322  10.864 -0.1508 -0.0927 -0.0834
14801W        W30935  16.896   9.431  15.197  0.4028  0.0581 -0.1505
14802W        W30936   5.328  12.205  13.847  0.0616 -0.0054  0.0128
14803W        W30937   4.551   7.891  12.295  0.4098 -0.0413  0.0979
14804W        W30938   1.771  16.213  10.744  0.0943 -0.0337 -0.2496
14805W        W30939  17.529  16.850   1.789 -0.0707 -0.1134 -0.0146
14806W        W30940   8.864   0.257   2.818 -0.0202 -0.1179  0.1395
14807W        W30941  10.522  11.785   0.265 -0.1310  0.1782 -0.1038
14808W        W30942   3.662  17.275  14.581 -0.0812 -0.2880 -0.0046
14809W        W30943  14.685  14.959   4.172 -0.0858 -0.1102 -0.3065
14810W        W30944   4.284  11.092   1.377  0.2214  0.1621 -0.0555
14811W        W30945   3.919   2.534  11.379 -0.1969  0.0876 -0.0627
14812W        W30946  11.483  11.968  13.973  0.3816 -0.0990 -0.2463
14813W        W30947   4.953   8.355   2.675 -0.0986 -0.0429 -0.0784
14814W        W30948   3.113  18.171   0.250 -0.2783 -0.2088 -0.1735
14815W        W30949   5.759   4.275   0.247 -0.1806 -0.1917 -0.2423
14816W        W30950   3.169  14.287  12.297 -0.1326  0.0542  0.3508
14817W        W30951  18.633   2.236  12.378 -0.0965 -0.0951 -0.2196
14818W        W30952   5.907   2.079  13.121  0.2268  0.0954 -0.1544
14819W        W30953  15.861  18.063  10.450 -0.1155  0.1987 -0.0005
14820W        W30954  11.192  14.044  12.947 -0.0308  0.1743 -0.4135
14821W        W30955  16.299  15.419  15.351  0.2667 -0.2088 -0.1595
14822W        W30956   3.022  14.717   2.272  0.0801 -0.0093  0.0447
14823W        W30957  10.519  11.977  13.431 -0.1660  0.2700  0.1179
14824W        W30958   1.182   2.083   2.015 -0.1431 -0.0247 -0.1491
14825W        W30959  10.012   4.181  12.368 -0.2018  0.1761  0.3194
14826W        W30960   9.056   8.022   4.527  0.4392  0.1079  0.0906
14827W        W30961   7.915  15.257  11.227  0.1530  0.1453 -0.1717
14828W        W30962  11.851  14.735  13.064 -0.2072 -0.2782  0.1512
14829W        W30963   0.891   9.195   4.936  0.2521 -0.5079  0.2001
14830W        W30964   0.418   5.229  11.585 -0.0934  0.1377 -0.1335
14831W        W30965   4.809   1.324  14.288  0.2337  0.0464 -0.2759
14832W        W30966  14.918   6.908  10.698 -0.2807 -0.1470 -0.4556
14833W        W30967   0.887  15.885  11.313  0.0601 -0.2729  0.1771
14834W        W30968   4.028   6.981  11.091  0.2731 -0.3412 -0.5036
14835W        W30969  13.752  13.656   0.919 -0.1440 -0.1918  0.2185
14836W        W30970  17.337   2.515   5.156 -0.1681  0.0913  0.0713
14837W        W30971   5.714  17.661   2.107 -0.3501  0.1033 -0.3644
14838W        W30972   3.644  12.525   5.290  0.0720  0.0865 -0.0738
14839W        W30973   2.570   5.061   4.115 -0.2586  0.2688 -0.1505
14840W        W30974   6.150  11.985  14.946 -0.0001 -0.1841 -0.2288
14841W        W30975  15.730  16.163   0.060  0.0827  0.2399 -0.4307
14842W        W30976   0.916  11.200  12.295  0.1903 -0.0351 -0.1306
14843W        W30977  10.389  14.056   3.228 -0.1968 -0.4750  0.0057
14844W        W30978   9.663   6.797   4.415  0.0179 -0.0322 -0.1520
14845W        W30979  16.539  11.408   0.351 -0.1771  0.0373 -0.1308
14846W        W30980   5.453   7.088   3.822 -0.3058 -0.1352  0.1205
14847W        W30981   4.802   6.583   9.910 -0.1554  0.0379  0.1543
14848W        W30982   9.170  18.477   1.680  0.1009  0.0894 -0.1190
14849W        W30983   0.013  14.428   5.278  0.3036 -0.0952  0.0483
14850W        W30984   8.317  16.294  12.872  0.0000 -0.1164  0.1347
14851W        W30985   1.667   4.163   4.980 -0.2850  0.0467 -0.0311
14852W        W30986   2.349  14.781   1.232 -0.1503 -0.0441 -0.2237
14853W        W30987  18.053  17.019  13.197 -0.0693  0.3410 -0.1686
14854W        W30988  13.964   8.076   3.290  0.1745 -0.1645 -0.0766
14855W        W30989  10.865   9.165   1.153  0.2217 -0.0541  0.0682
14856W        W30990  18.528  10.183  14.676 -0.1040  0.1181 -0.1551
14857W        W30991  10.489  18.220   3.035 -0.4138 -0.0003 -0.1001
14858W        W30992   4.183   8.309  12.926  0.0025 -0.3445 -0.0441
14859W        W30993   0.186   9.324  13.423  0.0143  0.2073  0.0782
14860W        W30994  13.441   7.489   3.930  0.1992  0.0757  0.0988
14861W        W30995  10.128   0.056  10.768 -0.1595 -0.0016  0.0849
14862W        W30996  15.064  12.178   3.749  0.1515  0.1116  0.0105
14863W        W30997  10.756   3.402  12.614 -0.2895  0.2816 -0.1830
14864W        W30998  17.111   9.282  10.791  0.0886  0.0374 -0.2317
14865W        W30999   0.826   2.656   3.817  0.0313  0.1093  0.4139
14866W        W31000  17.934   7.643   5.303  0.0420 -0.2128  0.3009
14867W        W31001   6.637   5.855  14.081  0.0665  0.0671  0.2308
14868W        W31002   9.982   5.703   5.408  0.1585  0.2562  0.0837
14869W        W31003   4.816   0.255  15.517 -0.4564 -0.0756  0.1035
14870W        W31004   7.873   1.178   5.222 -0.0964 -0.3151 -0.1546
14871W        W31005   8.195  14.847  12.641 -0.1542  0.0751 -0.0865
14872W        W31006   0.026  17.145  14.708  0.1887  0.1507 -0.0541
14873W        W31007  18.645  17.181  11.257  0.0613  0.0922 -0.2650
14874W        W31008  16.538  12.425   0.891 -0.1434  0.1231 -0.1207
14875W        W31009   7.055  10.304   1.292  0.2103  0.1018  0.2575
14876W        W31010  17.688   2.615  12.503 -0.0184  0.0993  0.0587
14877W        W31011  12.950   2.174   0.196  0.1758 -0.1498  0.1893
14878W        W31012   9.829  17.911   4.297 -0.1145  0.0528 -0.2630
14879W        W31013  13.426   0.620  10.823  0.2449  0.1700 -0.1186
14880W        W31014  18.289  13.328   2.385  0.1832  0.1077  0.0540
14881W        W31015   4.889   1.336  10.932  0.0591  0.2069  0.0140
14882W        W31016  16.088   5.278  11.939 -0.3070  0.1559 -0.1197
14883W        W31017  11.971   1.517  10.923  0.1428 -0.4632 -0.0559
14884W        W31018   5.676   7.482   0.053 -0.2231 -0.0036 -0.3717
14885W        W31019  15.126   4.865   4.517  0.0720  0.0347 -0.0280
14886W        W31020  12.140  15.496  12.054  0.1490 -0.2545 -0.0079
14887W        W31021   5.378  10.002  11.347  0.0581  0.0196 -0.2271
14888W        W31022  11.235   9.333  14.565  0.0289  0.1080  0.1406
14889W        W31023   5.309   6.913  11.143  0.0515 -0.2360  0.0621
14890W        W31024  15.004   1.616   0.888 -0.0041  0.2230  0.1691
14891W        W31025  15.624   4.666   0.643 -0.2178  0.3005 -0.2091
14892W        W31026   5.355   0.574   5.195 -0.0237  0.0242  0.1296
14893W        W31027  10.682   9.949  11.115  0.1007  0.0311 -0.2066
14894W        W31028  16.947  13.175   1.223 -0.0713  0.1474  0.4356
14895W        W31029   2.345  12.424  13.568 -0.2491 -0.3697 -0.0990
14896W        W31030   0.993  12.905   3.475 -0.0499  0.1076  0.1556
14897W        W31031   9.586   6.904  11.949 -0.5192 -0.0193  0.0432
14898W        W31032   2.314  12.312  15.512  0.0024  0.2439 -0.0102
14899W        W31033  16.154  12.978  12.893 -0.1479 -0.1096  0.0689
14900W        W31034  14.821   7.105  15.058  0.1193 -0.2064  0.0192
14901W        W31035  11.670  17.338   4.781  0.0483 -0.2451 -0.1071
14902W        W31036   1.891   2.593  14.087  0.0323  0.2480 -0.1674
14903W        W31037   2.203  14.860  11.750 -0.3649  0.1236 -0.0503
14904W        W31038  16.786  10.750   1.490 -0.0518 -0.1738  0.3325
14905W        W31039   9.699  17.996  11.110  0.1348  0.1586  0.0519
14906W        W31040   4.913  12.495   1.632  0.2307  0.2321  0.1442
14907W        W31041   2.134  11.373   2.609 -0.0965  0.3684 -0.1069
14908W        W31042  13.127  14.199   5.119 -0.1175 -0.1199  0.0746
14909W        W31043  12.752   6.528   2.744 -0.0291 -0.2723 -0.1542
14910W        W31044   9.469   5.443  14.008 -0.4343  0.2815  0.0839
14911W        W31045   6.103   0.536   1.553  0.0386  0.2154  0.0473
14912W        W31046   1.997   9.167   4.741  0.1749 -0.3886  0.1215
14913W        W31047   1.420   1.327  13.238  0.0625  0.1156  0.1466
14914W        W31048   9.211  17.262   2.039  0.1187  0.1073 -0.2666
14915W        W31049   9.696  13.049  13.184  0.0388  0.0592  0.0639
14916W        W31050  18.028  17.668   2.342 -0.1283 -0.0356  0.4633
14917W        W31051   2.271  11.436   4.423 -0.2639  0.0832  0.3448
14918W        W31052   1.607   5.666   3.953  0.3512 -0.1102 -0.0340
14919W        W31053  10.594   7.725   0.553  0.0470  0.0120 -0.1605
14920W        W31054   7.597   4.523  11.699  0.0122 -0.2356  0.3492
14921W        W31055   0.568   3.476  12.800 -0.2202 -0.1604 -0.1364
14922W        W31056   1.847  10.430   0.327  0.2459  0.0305  0.1610
14923W        W31057   7.925   7.654   0.626  0.3254 -0.1071  0.4616
14924W        W31058  15.098   5.622  12.928 -0.0171 -0.0114 -0.1236
14925W        W31059   0.897   2.630  12.236  0.3614 -0.1981 -0.2118
14926W        W31060   4.139  10.678   1.768 -0.2443 -0.1367  0.1362
14927W        W31061  12.356   5.779   4.930 -0.0859  0.1672  0.0533
14928W        W31062   0.659   0.825   4.070  0.0327 -0.1212  0.1021
14929W        W31063   1.733   4.195   0.269  0.1760 -0.0811 -0.1082
14930W        W31064   3.686   3.571  13.903  0.0427 -0.1164  0.0944
14931W        W31065   7.021   8.778   3.879 -0.0342 -0.0836  0.2515
14932W        W31066   8.458  18.725   1.116 -0.3954  0.1616  0.1473
14933W        W31067   0.733   9.766   0.106  0.4272  0.0758  0.0473
14934W        W31068   3.809   0.016  11.437  0.3084  0.1477 -0.2982
14935W        W31069  10.082  12.659   2.282 -0.1247  0.1434  0.2516
14936W        W31070   2.398   7.921   0.748 -0.2523  0.2364  0.0073
14937W        W31071  11.621  12.390  14.726  0.1233  0.2784  0.0707
14938W        W31072  11.626   8.460  14.270 -0.0187 -0.0987  0.2620
14939W        W31073   3.372  14.184  11.304 -0.2179 -0.3483  0.1705
14940W        W31074   0.529  13.680  13.280 -0.1044 -0.1104  0.2819
14941W        W31075  16.562   8.214  14.898 -0.2000  0.3962  0.2482
14942W        W31076  10.758  16.599  13.775  0.3995 -0.1791  0.1609
14943W        W31077   4.883  15.197   0.266  0.3505  0.1047 -0.0105
14944W        W31078  13.489  11.023   4.605 -0.0514  0.2574  0.1396
14945W        W31079  13.280  11.114   3.445 -0.0624 -0.0004  0.3347
14946W        W31080   5.635  10.574  12.896 -0.0765 -0.0978  0.1384
14947W        W31081   0.027   0.968  15.395 -0.2224 -0.1627  0.0347
14948W        W31082  15.675   4.189  15.523 -0.1658  0.3041  0.0878
14949W        W31083  17.283   1.859   1.243 -0.2179  0.1430  0.1759
14950W        W31084  13.683   1.022   0.979 -0.0564 -0.3231  0.0366
14951W        W31085   6.242   7.370  11.618 -0.0497  0.2433  0.0147
14952W        W31086   7.693   0.005  13.390  0.1235 -0.0670  0.0600
14953W        W31087   9.540   5.641   3.600  0.2337  0.1167 -0.1647
14954W        W31088   8.399   1.025   3.103 -0.0704 -0.0943  0.0655
14955W        W31089  18.466   1.988  10.713 -0.0664  0.0192  0.0621
14956W        W31090  10.531  17.529   3.307 -0.0011 -0.0200  0.1313
14957W        W31091  12.765  10.362   0.220 -0.3153 -0.1099  0.2169
14958W        W31092   1.112   1.724   0.892  0.2360 -0.1059  0.2167
14959W        W31093  11.888  12.479   3.229  0.0027  0.0459  0.1189
14960W        W31094   2.152   1.980   3.887 -0.0608  0.0659 -0.3926
14961W        W31095  10.321   6.587  13.055  0.0787  0.1274 -0.1697
14962W        W31096  15.820  16.041   3.512  0.0319  0.2285 -0.0864
14963W        W31097  11.766   3.631  12.336  0.0070  0.0458  0.0175
14964W        W31098  17.309   5.406  11.758  0.2525 -0.3218 -0.0738
14965W        W31099  11.498   1.926   0.603  0.0408  0.1009 -0.0673
14966W        W31100  12.843  16.160  14.529 -0.0540  0.1273  0.0456
14967W        W31101  15.062  10.819  11.485  0.0812  0.2234  0.0400
14968W        W31102   3.799  16.814  11.462 -0.0584 -0.0890  0.2997
14969W        W31103   6.130  17.150   4.605  0.2817 -0.3985 -0.1814
14970W        W31104  11.889  13.774  12.367 -0.3156 -0.0755  0.2246
14971W        W31105   5.628  14.984   2.455 -0.0001  0.3443  0.0210
14972W        W31106  14.845   5.816   2.967  0.2404  0.0868  0.2453
14973W        W31107   8.480   8.433   0.366 -0.1030  0.3601  0.0227
14974W        W31108   2.917  15.686   0.109  0.1027  0.1093  0.1547
14975W        W31109  15.849   3.474   3.380 -0.0426  0.1356  0.2761
14976W        W31110   3.959   7.738  14.983  0.0126 -0.0245  0.0788
14977W        W31111   4.052   5.801   0.467  0.0850 -0.0757 -0.2013
14978W        W31112   1.306  13.313  14.508  0.1889  0.1648  0.0126
14979W        W31113  17.975   4.114  15.303 -0.2405  0.0665 -0.1302
14980W        W31114  15.351   4.491   2.827 -0.0877 -0.3282 -0.0777
14981W        W31115   7.329  10.703   2.589 -0.3218  0.0114  0.1609
14982W        W31116  16.943  13.308  13.598 -0.1769 -0.1638  0.2618
14983W        W31117   5.737  14.024   2.632  0.2617 -0.0804  0.1346
14984W        W31118  13.810   3.223  11.361  0.0967  0.0622 -0.1241
14985W        W31119  10.934  12.869  15.528 -0.0311  0.1698  0.0668
14986W        W31120  17.269  10.318   1.224  0.1479  0.2418  0.0292
14987W        W31121   2.279  10.382  14.192  0.1884  0.0561  0.0371
14988W        W31122   2.920  11.597  13.646  0.0217 -0.0556 -0.2449
14989W        W31123  15.177   0.228   2.663  0.2313 -0.0689 -0.1012
14990W        W31124   8.030   7.533   2.850 -0.0834  0.2677 -0.0978
14991W        W31125  17.958   1.429  14.582 -0.1527  0.0070 -0.0768
14992W        W31126   7.945   2.173  12.784  0.0454 -0.0327 -0.1985
14993W        W31127   0.296   6.893  12.329  0.0912  0.2488 -0.1863
14994W        W31128  16.283   8.929   3.114 -0.2033 -0.1063 -0.2801
14995W        W31129   3.877   2.522   5.440  0.0435  0.0729 -0.0822
14996W        W31130   0.760  12.145  15.214 -0.0395  0.1211  0.1765
14997W        W31131   0.137  10.918  12.398  0.0481  0.2707  0.1604
14998W        W31132  17.360   4.332   4.222  0.0742  0.2963 -0.3730
14999W        W31133   5.072   1.842   1.098  0.0858  0.2725 -0.0538
15000W        W31134   2.834  15.360   1.677  0.0383 -0.0764  0.2014
15001W        W31135   0.150  15.030  15.406 -0.0595  0.0873  0.3285
15002W        W31136  11.213   7.883  11.963 -0.0116  0.0506  0.3548
15003W        W31137  15.714  14.266  12.900  0.0391  0.2203 -0.5242
15004W        W31138  17.935   6.756   4.072  0.1633 -0.0341 -0.0586
15005W        W31139   9.279  14.522   4.354 -0.2341  0.1103  0.2932
15006W        W31140  11.008  18.725   3.804  0.2677 -0.0311 -0.2568
15007W        W31141  10.975  14.241   4.467 -0.2541  0.2358 -0.3216
15008W        W31142   1.880  12.869  12.947  0.0272  0.2788 -0.0433
15009W        W31143   6.803   6.770   0.342  0.3806  0.0193  0.1775
15010W        W31144   5.917  13.930   3.997  0.0080 -0.2269  0.1220
15011W        W31145  14.638   1.782   0.591 -0.0071 -0.1441  0.0552
15012W        W31146  15.959  11.460   2.509  0.0709  0.2653 -0.0040
15013W        W31147   4.879   1.663  12.272 -0.0736  0.0515 -0.0062
15014W        W31148   1.407   6.904   4.458 -0.1363  0.3961  0.0223
15015W        W31149  11.434  13.738  15.008  0.5823  0.2842  0.1785
15016W        W31150  10.927   9.196   3.026 -0.3770  0.2573 -0.1681
15017W        W31151  16.595   7.205   5.532 -0.1638  0.1089  0.3168
15018W        W31152   8.593   7.372  11.256  0.0857  0.0341  0.2107
15019W        W31153   7.947   0.878   2.354 -0.3126  0.0596  0.2151
15020W        W31154  16.169   5.774   0.250 -0.1384  0.1262  0.1738
15021W        W31155   6.448   1.746  10.423 -0.0348 -0.1389 -0.2416
15022W        W31156   6.721   6.453  12.737  0.2169 -0.1566  0.0854
15023W        W31157   6.091   9.178  13.991 -0.0506 -0.3052  0.0807
15024W        W31158  11.065  13.888  11.714  0.1640  0.0340  0.1992
15025W        W31159   4.844   4.603   5.020  0.1512 -0.1068 -0.0190
15026W        W31160  16.216  15.653  12.145 -0.0843  0.1862  0.0956
15027W        W31161   5.340  11.547   4.715  0.2705  0.1446  0.3408
15028W        W31162  13.029   3.217  13.518 -0.0403  0.3536  0.0452
15029W        W31163  12.259   1.077   1.922  0.0317 -0.2207  0.3613
15030W        W31164  11.558  15.219  12.909  0.4561  0.0112  0.4073
15031W        W31165   1.012  17.273  14.955 -0.1474  0.0915 -0.0193
15032W        W31166  16.024  16.636   0.178 -0.1223 -0.0144 -0.3165
15033W        W31167   7.949  13.028  13.098 -0.1020  0.0857 -0.0906
15034W        W31168   6.775   9.364  13.134 -0.4315 -0.0324  0.5434
15035W        W31169   0.399  10.654  12.743 -0.0937 -0.2875  0.1146
15036W        W31170   9.854  12.103  13.305  0.1061 -0.0412 -0.2331
15037W        W31171  16.777  17.798   4.105 -0.0102 -0.1010  0.3469
15038W        W31172   5.477  14.879  10.781 -0.1732  0.1868 -0.0427
15039W        W31173  12.541  10.453   3.908 -0.0459  0.2620 -0.1422
15040W        W31174  10.960  17.209   3.559 -0.1684  0.1732 -0.0085
15041W        W31175   1.641  11.655  14.923  0.0764  0.1972 -0.0478
15042W        W31176  11.056   3.556  11.575 -0.0004  0.2920  0.3910
15043W        W31177   5.662   9.504   5.384  0.1540  0.1142 -0.0620
15044W        W31178   0.166  15.285  14.135 -0.3148  0.0512  0.2838
15045W        W31179   4.150  13.760  11.008  0.0149 -0.2416 -0.0069
15046W        W31180   6.262  12.282   2.202 -0.3132  0.1024  0.1540
15047W        W31181   2.404   1.116   2.952 -0.0716  0.1378 -0.0106
15048W        W31182  15.543  16.768  12.043 -0.0407 -0.0102  0.0993
15049W        W31183  15.952   3.299   1.127 -0.0166  0.3244  0.1043
15050W        W31184   4.313  10.586  13.415 -0.1031 -0.0074  0.3775
15051W        W31185  11.887  10.488  12.846  0.1963 -0.0266 -0.2973
15052W        W31186   3.273  12.471   2.922 -0.1014 -0.0368 -0.3358
15053W        W31187   7.198   2.866   0.520 -0.1955  0.0667  0.3386
15054W        W31188  10.516   2.135  14.084  0.0100  0.0795  0.2478
15055W        W31189  16.131  11.966  13.294 -0.1806 -0.0648  0.0685
15056W        W31190  13.719   8.639  12.683  0.2601 -0.4220  0.0574
15057W        W31191   8.330  16.861   0.720 -0.1635 -0.1524 -0.3706
15058W        W31192   3.771  16.975  12.739 -0.0262  0.1490  0.1166
15059W        W31193   6.636  17.411   4.545  0.2957 -0.0193 -0.0158
15060W        W31194  14.310   7.056   1.099 -0.2414  0.0521  0.1486
15061W        W31195  16.628   4.034   4.315 -0.0876 -0.2321 -0.1024
15062W        W31196   1.557  13.745  11.513 -0.3913  0.0655  0.0358
15063W        W31197  13.587  15.591  12.794  0.0223  0.0972  0.2044
15064W        W31198  14.856  14.842  11.281 -0.2106  0.0665  0.0326
15065W        W31199   2.030  12.689   0.288  0.0425 -0.0816  0.0903
15066W        W31200  16.600   2.842   0.281 -0.0166 -0.0111 -0.1615
15067W        W31201  12.225  14.130  12.363 -0.2026 -0.2352  0.0058
15068W        W31202  15.465   4.126   5.070 -0.2291 -0.3953  0.0693
15069W        W31203   2.504  17.300  15.366 -0.2778 -0.0160  0.1015
15070W        W31204   5.478   0.733  11.606  0.3452 -0.0904  0.3526
15071W        W31205   5.025  16.810   3.682  0.1147  0.2566  0.2426
15072W        W31206   0.926   8.837  15.365 -0.2160 -0.1315 -0.0585
15073W        W31207   9.262   2.938   1.702 -0.0051 -0.2265 -0.0654
15074W        W31208  14.133  12.174   1.200  0.1148 -0.0434  0.1360
15075W        W31209   3.838  17.884  10.976 -0.0872 -0.0346 -0.0582
15076W        W31210   0.998   9.005   1.481  0.1509  0.0664  0.1724
15077W        W31211   7.657  18.731   2.319 -0.0243  0.2543  0.0478
15078W        W31212   3.008  10.684   3.560 -0.1201  0.0361 -0.2279
15079W        W31213   2.044  12.496  11.897  0.0639 -0.1447  0.0505
15080W        W31214   0.194   8.420  13.621 -0.1023 -0.1335  0.0636
15081W        W31215   4.126   7.951  12.569 -0.1614 -0.2323 -0.1606
15082W        W31216  14.032  14.709   2.561 -0.1023  0.2597 -0.1068
15083W        W31217   9.250   3.126   9.828  0.3720 -0.2089 -0.2008
15084W        W31218   4.009  12.296  14.002  0.0205 -0.0595  0.0262
15085W        W31219   6.975   9.701   3.669 -0.0525  0.2140  0.1094
15086W        W31220  15.228   4.273   9.658 -0.3382 -0.3305 -0.0485
15087W        W31221   9.399   5.306   0.690  0.0233 -0.3668 -0.1106
15088W        W31222   4.175   1.636  14.929 -0.2046 -0.1007 -0.1195
15089W        W31223   0.897  14.140  14.944 -0.1973 -0.1531 -0.0920
15090W        W31224  16.423   5.553   4.950 -0.3051  0.0816 -0.2146
15091W        W31225   5.302  13.812   0.396  0.1215 -0.1378  0.0969
15092W        W31226  17.446  16.339  11.054 -0.0970 -0.0505 -0.0580
15093W        W31227  12.428  10.801   2.592 -0.1552 -0.0571  0.2302
15094W        W31228   6.772  17.238   3.692  0.1502  0.2581 -0.1527
15095W        W31229   4.393   6.080  13.529 -0.1389  0.0884 -0.0909
15096W        W31230  13.154   9.525  14.329  0.1301  0.1410  0.1043
15097W        W31231  11.973   6.151   4.148 -0.1470 -0.1811  0.1250
15098W        W31232  13.941   3.247  10.507  0.1721 -0.0225 -0.0099
15099W        W31233  10.689  16.574  14.245 -0.1852  0.0984 -0.0020
15100W        W31234   9.195  15.316  10.630  0.0975  0.1894 -0.4190
15101W        W31235   1.177   1.693   3.584  0.1858 -0.4023  0.1729
15102W        W31236   6.825  12.049  13.957  0.5023 -0.1933 -0.1140
15103W        W31237   3.308  10.492  10.337 -0.0610 -0.0976  0.0598
15104W        W31238   3.335  16.981  15.487 -0.0289  0.1851 -0.0710
15105W        W31239   1.388   2.346   2.445 -0.0886  0.1538  0.1642
15106W        W31240  18.161   0.625  12.781  0.5932 -0.0035 -0.0714
15107W        W31241   5.540  12.707  14.535 -0.1197 -0.0629 -0.3546
15108W        W31242  17.828  14.464   4.454 -0.0761 -0.4258 -0.2627
15109W        W31243   6.812   5.155   0.668  0.1220 -0.0488 -0.0476
15110W        W31244  14.246   5.337  12.491 -0.2824 -0.3593 -0.3119
15111W        W31245   7.111   4.709   5.143 -0.1301 -0.0013 -0.0064
15112W        W31246  14.342   7.703   3.518  0.0258 -0.0059 -0.2252
15113W        W31247   4.682   3.054  13.951 -0.1894 -0.0028  0.0669
15114W        W31248  18.220   6.853   1.138 -0.3352  0.1104  0.0046
15115W        W31249  13.547  17.860   4.038  0.2671  0.1219  0.1009
15116W        W31250  15.598   4.754   1.159 -0.1586 -0.0305  0.1719
15117W        W31251  17.991   4.815  13.879 -0.0930 -0.0011 -0.3169
15118W        W31252  10.363   7.967  10.069 -0.4063  0.1067  0.0185
15119W        W31253  13.645   3.904  14.103  0.0921 -0.1362 -0.0009
15120W        W31254  13.856  18.689   1.035  0.4958  0.3252 -0.0488
15121W        W31255  12.456  14.278   0.974 -0.1422  0.0830 -0.2157
15122W        W31256  13.053   0.329   1.171  0.1095  0.0588 -0.0092
15123W        W31257   4.770   7.692   1.686  0.0704 -0.2291  0.1351
15124W        W31258   0.879   2.386   4.643 -0.3768 -0.1436 -0.0330
15125W        W31259   5.705  14.770  12.504 -0.0276 -0.1295 -0.1432
15126W        W31260  15.602  13.929   0.534  0.0256  0.1115  0.2973
15127W        W31261   6.934   3.322   2.256 -0.1385  0.1456  0.1837
15128W        W31262  15.943  18.122  10.959  0.1057  0.1006 -0.0193
15129W        W31263   7.493   2.273   5.187  0.2333  0.2677  0.1129
15130W        W31264   7.978  14.844   4.269  0.0414 -0.0483  0.0373
15131W        W31265   1.838   8.365   2.211  0.1876  0.2095 -0.0849
15132W        W31266   9.856   0.790  11.060  0.0939 -0.2441  0.0916
15133W        W31267  14.112  13.381  12.311 -0.1118 -0.1659 -0.0509
15134W        W31268   0.471   4.696  13.191  0.0692 -0.0305  0.1205
15135W        W31269  13.447   0.311   2.937 -0.1882  0.1647  0.0124
15136W        W31270   4.465  14.087  10.305  0.0436 -0.1108  0.2168
15137W        W31271   2.741  12.704  11.715  0.4181 -0.0420  0.3454
15138W        W31272   3.493  17.775  13.324 -0.0673  0.0504 -0.0172
15139W        W31273   6.235   6.683   4.938  0.1683 -0.0016 -0.1124
15140W        W31274  13.355  14.934   0.190 -0.2021 -0.1611 -0.1295
15141W        W31275  14.499   0.376  14.617  0.1413 -0.1254 -0.0390
15142W        W31276   0.059   0.602  14.996 -0.1873  0.0347  0.0771
15143W        W31277  15.485  17.662  12.252  0.1260  0.2881  0.0518
15144W        W31278  17.755  16.021   2.815 -0.2332 -0.0828 -0.3783
15145W        W31279  12.576   1.392   1.533 -0.2653  0.1357 -0.1021
15146W        W31280   0.079   7.098  14.512  0.1563 -0.0029  0.0506
15147W        W31281   2.793  12.383  13.956 -0.1667  0.0473  0.0262
15148W        W31282  17.779  13.312   5.157  0.1055 -0.3499 -0.1248
15149W        W31283  15.809   0.818   0.212  0.0543 -0.0220  0.1695
15150W        W31284   4.765   6.561   5.083 -0.1280  0.0347 -0.1749
15151W        W31285   8.765  10.368  10.720  0.0273 -0.0339 -0.1843
15152W        W31286  12.702   7.087  11.424  0.2406 -0.2188 -0.2649
15153W        W31287  14.109   8.538  10.717 -0.0035  0.2814  0.0847
15154W        W31288   3.436  18.142   2.900 -0.0056 -0.0838  0.1307
15155W        W31289   6.519  14.335   4.982 -0.0402  0.2871  0.2397
15156W        W31290   7.447  16.162  11.003 -0.3156  0.0192 -0.0297
15157W        W31291  18.573   3.612   0.361 -0.0149 -0.4052 -0.0672
15158W        W31292   1.550   5.189  12.373  0.0137 -0.2301  0.1022
15159W        W31293   9.139  14.761  14.313  0.0201 -0.0660 -0.1948
15160W        W31294  17.887  14.736  14.776 -0.0029  0.0956  0.2696
15161W        W31295   7.815   0.348  14.682 -0.2162  0.1499  0.0253
15162W        W31296  15.673   1.859   5.503  0.1414  0.0217 -0.2102
15163W        W31297  12.782   0.273   1.616 -0.0092  0.1040 -0.1665
15164W        W31298   0.159  18.336   4.862  0.0490  0.1215 -0.1196
15165W        W31299   5.278  14.831  12.856 -0.1979 -0.0129  0.3017
15166W        W31300   9.180  10.291  13.228  0.0375  0.3101  0.0223
15167W        W31301  16.754  12.553  13.775 -0.1096 -0.0200 -0.1735
15168W        W31302   3.386   8.867   3.037 -0.0342  0.1216 -0.0430
15169W        W31303   4.064  12.455   2.259 -0.0846 -0.0686  0.1187
15170W        W31304   1.263  17.754   3.753  0.1368  0.1909 -0.0530
15171W        W31305   6.875   8.481   0.295 -0.1439  0.1814 -0.1121
15172W        W31306  10.979  16.800   2.213 -0.1022  0.1037  0.0944
15173W        W31307   1.228  13.342   4.702 -0.1043  0.3047  0.1647
15174W        W31308  16.704   5.375  14.832 -0.0228  0.3059  0.2646
15175W        W31309   5.356   1.207  11.623 -0.1930  0.0622  0.1215
15176W        W31310  17.008  17.045  12.233  0.3304 -0.1075 -0.1068
15177W        W31311   6.461   0.737   3.109  0.0423  0.0640 -0.2067
15178W        W31312   9.809  14.160  13.838  0.0866 -0.1958 -0.2364
15179W        W31313  13.400   3.578   1.266 -0.1515 -0.0718  0.2426
15180W        W31314   9.868  10.540   0.319  0.1376 -0.3997  0.1949
15181W        W31315  17.380  12.225  14.765 -0.1632 -0.0271 -0.1456
15182W        W31316  15.440  14.960  14.947  0.1737  0.0205  0.3399
15183W        W31317  11.879   6.945  14.984 -0.0200  0.3431 -0.0419
15184W        W31318   5.209   5.749   1.329 -0.1514 -0.0245  0.1026
15185W        W31319  17.658   2.610  10.724 -0.2444  0.0743 -0.2367
15186W        W31320  17.912  17.574  13.097  0.0088  0.0711  0.0306
15187W        W31321  12.106  16.535  13.960  0.0433 -0.2064 -0.1123
15188W        W31322  14.402  13.999  10.737 -0.0480  0.0029  0.0242
15189W        W31323  11.788   4.358  10.761  0.0497 -0.0130  0.1601
15190W        W31324   9.460   9.856   2.025 -0.1516 -0.3391 -0.2014
15191W        W31325   4.960  13.204   9.581 -0.0530  0.0922 -0.1603
15192W        W31326   0.446  14.602   4.171  0.0450 -0.1523  0.2989
15193W        W31327  17.910  17.815  14.162  0.0557  0.1485  0.1235
15194W        W31328   2.659  17.438   1.894  0.1612 -0.0317  0.1727
15195W        W31329   1.174  15.761   0.369 -0.0491  0.1784 -0.0756
15196W        W31330  10.967   2.065   5.120 -0.0568 -0.0311  0.0046
15197W        W31331  14.560  14.290   1.332  0.1420  0.0739 -0.1709
15198W        W31332   4.393  17.832  11.950  0.1780 -0.0837  0.4030
15199W        W31333   3.032  12.440  12.887 -0.0921  0.1807  0.3150
15200W        W31334   1.953  15.000  12.996 -0.2486  0.0252  0.0777
15201W        W31335  10.844   4.452  10.493  0.1319 -0.1840 -0.1545
15202W        W31336  15.633   1.485   4.661 -0.3871 -0.0556  0.2656
15203W        W31337   7.077   6.674  14.498  0.0410  0.0887  0.3001
15204W        W31338   4.475   9.136   4.126 -0.1432 -0.2842  0.1975
15205W        W31339   5.620  17.848   9.829  0.0078  0.3073 -0.0470
15206W        W31340  15.224  17.410   5.319 -0.1615  0.0159  0.1044
15207W        W31341  12.878   0.171  13.162  0.0369 -0.2290  0.0204
15208W        W31342  12.897  12.190   5.045 -0.3077  0.0049  0.1092
15209W        W31343   8.452  12.988  10.547 -0.0605 -0.0660 -0.2727
15210W        W31344  13.654   5.878   4.609  0.0895  0.1062  0.0017
15211W        W31345   6.505   8.029  11.712  0.2872  0.1136  0.1049
15212W        W31346   6.190  15.979  14.321  0.2128 -0.0509  0.1736
15213W        W31347   9.650   2.044   1.954  0.0859 -0.4063  0.1252
15214W        W31348   7.381   7.927  11.017 -0.3600 -0.0836 -0.3154
15215W        W31349   0.077   7.508  14.234  0.0042  0.2888  0.1902
15216W        W31350   7.118  10.462   5.903 -0.0667 -0.1078  0.0873
15217W        W31351  15.663   2.201  12.102  0.0095  0.2049  0.0949
15218W        W31352   6.829  16.451  14.460 -0.2652  0.2272  0.2180
15219W        W31353  10.309  17.955   0.923  0.1184 -0.0231  0.0115
15220W        W31354  16.130  16.900   3.715 -0.2975 -0.5401 -0.2802
15221W        W31355   4.646   3.573  14.198 -0.0632  0.2142 -0.1107
15222W        W31356  16.154   5.578   3.480 -0.1774  0.3555  0.2969
15223W        W31357   6.145  16.221   0.716  0.2387  0.1356  0.1566
15224W        W31358  11.997   2.338   0.543 -0.1321  0.0324 -0.1855
15225W        W31359   8.187  15.475  10.891  0.0061  0.2258 -0.2107
15226W        W31360  14.570   3.234   4.978  0.2741 -0.0503  0.0890
15227W        W31361   4.117  18.619   3.379 -0.0184 -0.0286  0.2379
15228W        W31362   9.881   8.646   0.048 -0.4177  0.3286  0.0727
15229W        W31363  10.388   8.680   5.672 -0.0066 -0.0514 -0.2895
15230W        W31364   6.749   1.609  13.515 -0.1089  0.0353 -0.0576
15231W        W31365  10.306   0.508  11.061 -0.0476  0.1649 -0.0043
15232W        W31366  15.334  10.231  14.039 -0.1073  0.1390  0.1429
15233W        W31367  15.864  11.786  11.095  0.0086  0.0370 -0.1586
15234W        W31368   0.798   4.184  10.632  0.4864 -0.0731 -0.2387
15235W        W31369  12.504  14.339  14.856  0.2659  0.2498  0.1374
15236W        W31370   1.354   3.772   4.778 -0.2436 -0.1523 -0.1997
15237W        W31371  10.165   1.858  14.390 -0.0745 -0.2935  0.2825
15238W        W31372   8.161  12.857   1.347 -0.0741 -0.0767 -0.1262
15239W        W31373   0.996  13.287   0.465  0.0350  0.3564  0.1662
15240W        W31374   8.518   4.681   1.663 -0.0075 -0.0259 -0.2617
15241W        W31375  18.274  12.644   4.438 -0.2242  0.0963 -0.3978
15242W        W31376   1.068  11.373   1.664 -0.1653 -0.2951  0.1982
15243W        W31377  11.921   7.966   2.912 -0.2497 -0.1890 -0.1415
15244W        W31378  11.302  15.307   1.758 -0.1758 -0.5775  0.3449
15245W        W31379  18.058   3.549   0.298  0.1018  0.0987  0.1280
15246W        W31380  17.094  10.732   4.978  0.1125  0.0978 -0.0047
15247W        W31381  12.851   3.662   4.457 -0.1184  0.1619 -0.0556
15248W        W31382  14.348   9.965   0.047  0.0837 -0.0296  0.1882
15249W        W31383  15.695   5.864  11.841 -0.1113  0.0095 -0.3607
15250W        W31384   2.233   4.530   1.622  0.2220  0.0297  0.0688
15251W        W31385  14.580   9.158  12.592  0.0286  0.1077  0.4895
15252W        W31386   1.705  18.001   1.326 -0.1980 -0.0485 -0.0021
15253W        W31387   3.048   4.964  10.943 -0.2717 -0.1820  0.1929
15254W        W31388  12.473  14.843   9.923  0.1204  0.1564  0.0453
15255W        W31389  12.773   7.370   5.266 -0.0147  0.2160 -0.0278
15256W        W31390  12.020  15.385   1.053  0.2492  0.1000  0.0479
15257W        W31391   3.671   5.398   3.114  0.3585 -0.2307 -0.2277
15258W        W31392   8.900  14.609  11.901 -0.4792  0.0156  0.0423
15259W        W31393  18.654   8.420   4.786 -0.2598  0.0519 -0.1176
15260W        W31394   0.725   2.896  13.524  0.0419  0.1272 -0.1304
15261W        W31395   6.152   8.716   2.534 -0.1853  0.2521 -0.1311
15262W        W31396  10.369   5.896  14.716  0.1771  0.0736  0.0711
15263W        W31397  15.671  13.211  11.472  0.0485  0.2110  0.0931
15264W        W31398  14.143  13.620   3.845 -0.0285  0.3037  0.2252
15265W        W31399   6.610  12.521   2.567 -0.0975 -0.0412 -0.1766
15266W        W31400   7.978  17.588   0.724  0.2186 -0.0926  0.3797
15267W        W31401  13.786   6.058   4.048 -0.1763  0.0724  0.0271
15268W        W31402   1.964   0.508  14.797 -0.2831 -0.1699 -0.3607
15269W        W31403   7.999  18.010   2.877  0.0428 -0.0387  0.3249
15270W        W31404   1.298  11.175  11.324  0.0637 -0.2757 -0.1961
15271W        W31405   5.332   2.291  14.445 -0.1974  0.0831  0.0955
15272W        W31406  11.000   4.028   3.198  0.0199 -0.2535 -0.1153
15273W        W31407  15.664  18.559  12.097 -0.0827  0.1145 -0.0384
15274W        W31408   6.353   0.828   9.547 -0.1099  0.2665 -0.0044
15275W        W31409   4.924   1.513   4.503  0.0127  0.0043 -0.1225
15276W        W31410  12.980   4.194   3.811  0.1498 -0.5166 -0.1427
15277W        W31411   8.485  17.096   2.637  0.0509  0.0767  0.3522
15278W        W31412  11.645  17.622   2.932  0.0069 -0.0249 -0.2658
15279W        W31413  16.987  16.396  13.109 -0.1713 -0.0655 -0.0712
15280W        W31414   3.823  16.472  12.372 -0.1170  0.1889 -0.0752
15281W        W31415  11.231   7.503  15.082  0.0533  0.0950  0.1056
15282W        W31416  12.832  11.031  10.644  0.0896  0.0718  0.0995
15283W        W31417   9.737   7.340   0.837  0.1124  0.2258  0.1569
15284W        W31418   9.960  11.252  12.080  0.2705  0.0774  0.2239
15285W        W31419   7.318  10.730  13.832 -0.0990  0.3337 -0.2129
15286W        W31420   1.415  15.232  12.350 -0.0670  0.1553  0.1835
15287W        W31421   7.246   3.350   0.042 -0.2726  0.1638  0.2528
15288W        W31422   0.635  17.896  14.297 -0.1355  0.0331  0.2154
15289W        W31423  17.741  17.593   5.801 -0.1544 -0.3047 -0.1728
15290W        W31424   1.943  10.842  12.799  0.0755 -0.0624 -0.3442
15291W        W31425   8.126   3.753  14.516 -0.0612 -0.0001  0.1366
15292W        W31426   6.824  11.512   3.956  0.0265  0.3646 -0.2123
15293W        W31427   1.461  18.500   2.129 -0.1354  0.0664 -0.1253
15294W        W31428   2.032  17.537  13.308  0.0915 -0.0340  0.1373
15295W        W31429   2.324   2.037  15.473 -0.0877  0.0312 -0.2202
15296W        W31430   6.792   3.722   0.271 -0.2368 -0.0244 -0.1812
15297W        W31431   2.161  16.457  13.483 -0.0408 -0.2593 -0.2638
15298W        W31432  18.133   2.165   1.744  0.1064 -0.1730 -0.1083
15299W        W31433  18.101   9.194  13.358  0.4259  0.0348  0.4536
15300W        W31434   6.820  11.129  10.917 -0.1196 -0.0261  0.0275
15301W        W31435  10.015  11.620  12.399 -0.2050  0.0129  0.3543
15302W        W31436   5.243  16.039   0.850  0.0229 -0.1207  0.3928
15303W        W31437   5.622  13.935   3.142  0.0775  0.1109 -0.0111
15304W        W31438   4.315  10.844  14.696 -0.0212 -0.2429 -0.4304
15305W        W31439   1.602   6.079  13.769 -0.0536 -0.1721  0.1257
15306W        W31440   3.895   7.303  10.629  0.0499  0.1239 -0.0589
15307W        W31441   0.148  10.656   0.511  0.1160 -0.0001 -0.0436
15308W        W31442  12.603  16.865   0.143  0.0209 -0.2215  0.4773
15309W        W31443   7.587   2.998   3.005 -0.1476 -0.0579  0.0579
15310W        W31444   8.021   0.190   0.280  0.0752  0.1108  0.2414
15311W        W31445   5.593  10.272  14.972  0.1175  0.5146 -0.0388
15312W        W31446   5.652  10.058   1.698 -0.2321  0.2062  0.4552
15313W        W31447  11.268  18.693   4.213  0.0801 -0.0325 -0.0949
15314W        W31448   4.931  18.646   3.995  0.1262  0.3027 -0.1418
15315W        W31449  18.542   0.086  10.771 -0.0752 -0.2181 -0.0374
15316W        W31450   6.414  12.707   3.503 -0.0502 -0.0013  0.1817
15317W        W31451  18.356  10.202   0.023  0.0588 -0.5030 -0.0067
15318W        W31452  11.089   4.425   2.659 -0.0822 -0.0249 -0.2436
15319W        W31453   7.725  13.848   3.207  0.1189 -0.3182  0.1328
15320W        W31454   2.154  15.513   2.164 -0.2412  0.0768  0.2186
15321W        W31455   2.904   2.404   2.739 -0.0377  0.0854  0.1627
15322W        W31456   6.932   1.990   2.422  0.4017 -0.0814  0.1664
15323W        W31457  15.717  15.394   2.326 -0.3175 -0.2910  0.2657
15324W        W31458   2.020  14.318   1.494 -0.0603 -0.0858  0.3007
15325W        W31459   4.289   5.955   0.938  0.0688  0.0484 -0.1016
15326W        W31460  11.730  10.862  15.406  0.1675 -0.2329  0.1639
15327W        W31461   3.564   9.364   3.039  0.2060 -0.0378  0.1836
15328W        W31462   2.903  16.510  11.434  0.1878  0.1024  0.0372
15329W        W31463  16.581   7.710   3.978  0.0777  0.0767 -0.2806
15330W        W31464  18.712  15.170  12.672  0.0433 -0.0009  0.1692
15331W        W31465   2.785  15.198  14.436 -0.0134  0.3185  0.1946
15332W        W31466   2.134   3.584   3.278  0.0659  0.0613  0.1531
15333W        W31467  16.225  18.532  10.174  0.0740 -0.0878 -0.2772
15334W        W31468   2.422  15.660  12.470  0.0702  0.0658 -0.0868
15335W        W31469  13.069   5.320   4.223  0.0277 -0.0591  0.1433
15336W        W31470  11.582   2.477   5.932  0.0604  0.2714 -0.2698
15337W        W31471   9.787  15.318   4.715 -0.1175 -0.2561  0.1575
15338W        W31472   8.809   2.445   2.765 -0.1170 -0.4763 -0.1187
15339W        W31473  17.004  10.920  10.999  0.2632 -0.2010 -0.1798
15340W        W31474   8.435  13.841   2.322  0.1128 -0.1477  0.0753
15341W        W31475  12.157   1.803   4.848  0.0427 -0.0010  0.1122
15342W        W31476  16.496  15.114   1.625  0.2021  0.0271  0.2163
15343W        W31477  14.654  11.900   0.545  0.1183 -0.3329  0.5154
15344W        W31478   5.480  17.722  14.260  0.0340  0.1889  0.2198
15345W        W31479   2.528  11.944   4.484  0.0098  0.2097 -0.1936
15346W        W31480  12.992   0.740   2.015  0.0271  0.0718  0.1237
15347W        W31481  17.397   8.393   0.260  0.0989  0.1622 -0.0590
15348W        W31482   6.751   8.382   3.669  0.2241 -0.0280  0.1245
15349W        W31483   1.147  11.703   5.449 -0.0118  0.1969  0.0375
15350W        W31484  10.480  12.109   4.157 -0.1435  0.3930  0.1327
15351W        W31485  11.966  11.487   3.797 -0.0685 -0.0221 -0.0226
15352W        W31486   0.785  14.233  12.962 -0.3006 -0.5088  0.4021
15353W        W31487   4.635   2.662   0.572 -0.3277 -0.1637  0.1882
15354W        W31488  18.559  12.823   3.503  0.1934 -0.0832  0.0207
15355W        W31489  12.651   8.080   3.758  0.0103 -0.0456 -0.2872
15356W        W31490   7.024  17.856  12.667  0.0314  0.1376  0.0898
15357W        W31491  10.244  16.250   3.591 -0.5765 -0.3753  0.1324
15358W        W31492   2.665   4.475   2.457 -0.3211 -0.1945 -0.2456
15359W        W31493   0.594  12.295  12.573  0.0860  0.2650 -0.1322
15360W        W31494  11.349  18.585  10.724 -0.0449 -0.1270 -0.1372
15361W        W31495  13.068  13.559  14.654  0.3895 -0.0673  0.3273
15362W        W31496   9.993  13.056  12.770 -0.0529 -0.2769 -0.0997
15363W        W31497   0.986   5.254  11.631  0.1041  0.0815 -0.0650
15364W        W31498  15.999   7.858  12.613  0.1000 -0.1268 -0.0470
15365W        W31499  17.080  16.021  15.007  0.0887 -0.1472 -0.0999
15366W        W31500   2.570   0.197  11.512 -0.1159 -0.3399 -0.4660
15367W        W31501   7.885   9.488   5.206  0.0286 -0.2827 -0.3443
15368W        W31502   6.996   6.019  12.107 -0.3814  0.2763 -0.0605
15369W        W31503  13.544  15.479  11.692  0.0522  0.1408  0.2463
15370W        W31504  14.632   8.176   4.181  0.1110  0.1703 -0.0700
15371W        W31505   1.344   5.452   3.446  0.3923  0.2435 -0.0715
15372W        W31506  12.684  16.970  12.007 -0.1185 -0.2193  0.0430
15373W        W31507   4.670   3.841  11.338 -0.0452  0.1735  0.1220
15374W        W31508   4.097  17.418  12.523 -0.0707 -0.1667  0.0570
15375W        W31509   7.833  17.883  14.028  0.2750 -0.2280 -0.1772
15376W        W31510  10.353  17.216  11.791 -0.0350  0.0490  0.1029
15377W        W31511  17.974  11.747  11.296 -0.0325  0.1183 -0.1010
15378W        W31512   1.260  16.776   4.374  0.1606 -0.1167  0.3498
15379W        W31513  18.001   1.535  12.308 -0.0533 -0.2055  0.0310
15380W        W31514  15.202   1.084  15.047 -0.2311 -0.3017 -0.0672
15381W        W31515   4.106   5.035   1.037 -0.0904  0.0967  0.1169
15382W        W31516   4.599  14.489   5.819 -0.0638 -0.2103  0.0976
15383W        W31517  17.164  11.355   2.282 -0.0327 -0.4272 -0.3309
15384W        W31518  16.266  14.541   0.873 -0.2552  0.0994 -0.0440
15385W        W31519  12.350   7.105  14.708  0.1146  0.0252 -0.3509
15386W        W31520   4.409   1.134  15.108 -0.0161 -0.0861  0.4153
15387W        W31521  11.436   5.789  15.258 -0.1808  0.0080  0.0284
15388W        W31522   2.417   4.932   0.148  0.0248  0.0191  0.2281
15389W        W31523   2.840   6.072   2.576  0.2316  0.1269  0.0479
15390W        W31524   0.215  11.612   0.872  0.2145  0.0621  0.0543
15391W        W31525  18.573   4.716   1.738  0.3230 -0.1384  0.0499
15392W        W31526   4.969  11.693   0.473  0.4192  0.1124  0.0466
15393W        W31527   4.884   3.003  11.370 -0.4052  0.1256 -0.1248
15394W        W31528   7.507   9.785  10.655 -0.2154 -0.1745  0.1912
15395W        W31529  17.449   2.726   2.809  0.0117 -0.1654  0.2908
15396W        W31530  12.851  11.155  10.091  0.0248  0.0905  0.0937
15397W        W31531  12.927   7.649   2.099  0.0586 -0.1903 -0.0194
15398W        W31532  12.430  13.956   4.802 -0.0888 -0.1242  0.1638
15399W        W31533   6.058  14.182   2.186 -0.1262 -0.1779  0.0505
15400W        W31534   0.545   6.692   2.814 -0.5076  0.1805 -0.1020
15401W        W31535  11.004   5.995  13.213 -0.0851  0.1153 -0.5433
15402W        W31536   3.737  14.470  13.743  0.1285  0.0623 -0.1602
15403W        W31537  14.002   1.443  15.091  0.3523  0.0325 -0.0980
15404W        W31538  17.959  10.374   3.653  0.1924 -0.0258 -0.1255
15405W        W31539   6.603   2.968  15.078 -0.2582 -0.2664  0.1458
15406W        W31540   2.143  13.508  10.714  0.1869 -0.1419  0.0931
15407W        W31541  17.520  11.277   1.641 -0.2375 -0.0114  0.0880
15408W        W31542  16.706  13.743  10.907  0.2686 -0.0333  0.1107
15409W        W31543  14.914   2.240  12.401  0.5384  0.0599  0.1215
15410W        W31544   6.277  13.654   3.617  0.1602  0.1778  0.0277
15411W        W31545   9.524   2.819  12.480  0.0057  0.2311  0.0422
15412W        W31546   1.760  11.260  13.179  0.1957  0.0169 -0.0920
15413W        W31547  12.851  18.532  14.264  0.0055  0.3350  0.3386
15414W        W31548   6.604  11.719   0.120 -0.0757  0.0438 -0.2043
15415W        W31549  17.945   8.978   0.012  0.1939  0.0576 -0.1158
15416W        W31550   5.321   4.338   0.525 -0.2219  0.1542 -0.0918
15417W        W31551   6.255  10.430   4.614  0.0888  0.2322  0.1236
15418W        W31552  10.298  12.760   3.679  0.3929 -0.2792 -0.1846
15419W        W31553  12.005  12.678   4.213  0.0989  0.1066  0.1637
15420W        W31554  16.388  10.541   4.384 -0.1321  0.1966  0.0168
15421W        W31555  16.877  12.969  15.049  0.0957  0.0198  0.0079
15422W        W31556   1.546   5.355  12.844 -0.2177  0.3232 -0.1651
15423W        W31557  15.226  10.725  15.268 -0.0026 -0.0095 -0.3620
15424W        W31558  15.270   6.266  13.583  0.1135 -0.1238  0.1608
15425W        W31559  10.639  12.018  13.918  0.0702  0.1498 -0.2135
15426W        W31560  14.704   4.426  12.393  0.0925 -0.0961  0.2391
15427W        W31561   9.360  10.014   2.775  0.2745 -0.2667 -0.0974
15428W        W31562   9.134  15.762   3.182 -0.0573  0.0759 -0.0886
15429W        W31563   2.215   3.490  13.904 -0.0212  0.0926  0.0751
15430W        W31564  11.046  12.369   3.434 -0.0155 -0.1986 -0.2290
15431W        W31565  13.956  13.543   2.526 -0.1384 -0.1876 -0.0978
15432W        W31566   7.834  12.257  13.870 -0.0227 -0.4371 -0.1638
15433W        W31567   7.353   7.902   5.450 -0.2333  0.2143  0.0050
15434W        W31568  14.210   8.966  11.713 -0.2024 -0.1814  0.0467
15435W        W31569  10.877   2.752   4.329  0.2018 -0.0438 -0.0342
15436W        W31570  13.511   2.522   3.641 -0.0531 -0.1033  0.3764
15437W        W31571  10.149   4.734   1.217 -0.1804  0.2076 -0.2444
15438W        W31572   9.738  13.700  12.169 -0.2038 -0.2748  0.0405
15439W        W31573   7.551   7.367   0.821  0.3014  0.1777 -0.0410
15440W        W31574   7.332   8.099  12.756 -0.0260 -0.0260  0.2000
15441W        W31575   1.686   5.487   2.374  0.0822  0.3030  0.2994
15442W        W31576  18.353  17.556   0.044 -0.0912 -0.2155  0.0285
15443W        W31577  10.806   5.334   5.231 -0.1753 -0.0946  0.0117
15444W        W31578   3.521   7.357  12.368 -0.2809 -0.1468  0.1119
15445W        W31579   2.617   6.491   3.469 -0.1497  0.0120  0.1753
15446W        W31580   3.854  15.576   0.422  0.0287 -0.0184  0.1013
15447W        W31581   0.393   9.860   0.466  0.3339  0.1485 -0.0579
15448W        W31582   0.102  13.143   0.501 -0.1433  0.5017 -0.0370
15449W        W31583   7.008   6.004   1.164  0.1753  0.0503 -0.0958
15450W        W31584   7.715  13.973  13.227  0.2631  0.0112 -0.3296
15451W        W31585   4.727  15.316  14.018 -0.0959  0.1602 -0.2830
15452W        W31586  18.727   0.405   3.502 -0.1176 -0.0890  0.1629
15453W        W31587  17.375   3.800   4.690 -0.1940  0.1693  0.0711
15454W        W31588   3.352   7.288   2.283  0.3616 -0.5241  0.2171
15455W        W31589  16.872  14.416   1.232 -0.4202  0.0791  0.3648
15456W        W31590   9.123   0.516   1.615 -0.1141 -0.0311  0.2211
15457W        W31591   1.336  13.438   0.788 -0.1930 -0.0668  0.0153
15458W        W31592  12.031   1.470   4.426  0.0133  0.1856  0.1621
15459W        W31593   4.163  12.618   0.570  0.1994 -0.3572  0.0137
15460W        W31594  13.135  13.962   0.094  0.4006  0.0424  0.2000
15461W        W31595   2.944   5.569  12.055  0.0307 -0.0440 -0.0940
15462W        W31596   1.540  11.997  13.700  0.2218 -0.1643 -0.2516
15463W        W31597  13.384   9.861   1.907  0.1275  0.1694  0.1073
15464W        W31598  13.422   9.805  10.372  0.2038  0.1415  0.3032
15465W        W31599   5.617   5.866   4.259 -0.2041  0.0957  0.1683
15466W        W31600   6.305  18.279  12.945  0.0646  0.0883  0.1570
15467W        W31601   8.879   4.252   1.794 -0.3360 -0.0142 -0.1760
15468W        W31602   1.653   5.101  15.459 -0.0370 -0.1752  0.2931
15469W        W31603  14.540  18.515  14.842  0.4081 -0.0662 -0.1362
15470W        W31604  13.475   3.557  13.813  0.1771 -0.2455 -0.0037
15471W        W31605   0.460   1.263   4.820  0.0495 -0.0852  0.2881
15472W        W31606   2.206   1.051  12.223 -0.0044 -0.1921  0.1022
15473W        W31607   0.638   7.234   3.128  0.0792  0.1929  0.0980
15474W        W31608   1.063   6.646  11.102  0.0869  0.1661 -0.1033
15475W        W31609  15.541   3.686  13.085  0.1518 -0.1236  0.0330
15476W        W31610  14.836   3.070  12.878  0.0252 -0.0229  0.1349
15477W        W31611  15.139   7.252   3.608 -0.5099 -0.1173  0.1444
15478W        W31612  16.159  11.869   0.196 -0.1350  0.1926 -0.2897
15479W        W31613  14.677  12.659  11.956  0.0184  0.1339  0.0910
15480W        W31614   4.457   5.470   0.196  0.0253 -0.1105  0.1955
15481W        W31615   1.998  14.753   2.750 -0.3264  0.3464  0.1924
15482W        W31616  15.019  11.721   3.033 -0.0076  0.0463  0.1837
15483W        W31617   9.023   7.028   2.141  0.1351  0.0272 -0.2324
15484W        W31618  11.069   7.728   4.431 -0.0964 -0.0956 -0.1152
15485W        W31619  16.736   1.348  13.242  0.3425 -0.1092 -0.1039
15486W        W31620  15.895  11.480  15.021  0.1557  0.1252  0.2098
15487W        W31621  15.352  12.927   2.237  0.4789  0.1406  0.2554
15488W        W31622  12.882  10.843  14.153  0.0803  0.1923 -0.1101
15489W        W31623  15.332   3.607  10.881  0.1150 -0.1483 -0.0247
15490W        W31624   2.590  10.828   2.841  0.0382 -0.0027  0.0145
15491W        W31625   1.029   7.191   1.587 -0.1826  0.1205 -0.0142
15492W        W31626   0.757   1.435  14.271  0.1178 -0.0995 -0.1906
15493W        W31627  18.330  15.066   3.319  0.0581 -0.0079 -0.0721
15494W        W31628   5.956  12.244  15.319  0.0889  0.1050 -0.0252
15495W        W31629   7.606  12.503  15.120  0.0002 -0.1879 -0.0940
15496W        W31630   3.638   9.300   0.085  0.6171  0.2505  0.2981
15497W        W31631   2.883   3.922  13.523  0.0481  0.3758 -0.0996
15498W        W31632  14.812   8.255   1.074 -0.0120  0.0241 -0.1115
15499W        W31633   9.527   2.384  11.166 -0.0927 -0.0717  0.2347
15500W        W31634   9.769   5.133   0.981 -0.0450 -0.2517 -0.1201
15501W        W31635  14.507  14.766  11.614 -0.0156 -0.0519 -0.0846
15502W        W31636   5.793   0.306   2.217 -0.0082  0.1479 -0.0881
15503W        W31637   9.165   7.745   0.255 -0.0099 -0.1958  0.0824
15504W        W31638  10.133   8.986   4.984 -0.3094  0.1067  0.0743
15505W        W31639  18.556  12.706  11.257  0.0311 -0.0457  0.2318
15506W        W31640  13.158   5.673  12.227  0.0533 -0.0022  0.0534
15507W        W31641   5.759  14.184   1.766  0.2066  0.0266 -0.0081
15508W        W31642  11.859  15.439   2.964  0.0477  0.0216  0.1032
15509W        W31643   1.214  16.377   3.957  0.1552  0.0623  0.1867
15510W        W31644  16.400   2.850   3.020 -0.2256 -0.3257 -0.0204
15511W        W31645  15.291   2.493  13.655  0.2839  0.3094  0.0601
15512W        W31646   9.817  15.672  11.282  0.1662 -0.0249  0.2288
15513W        W31647   7.149   1.374  13.637  0.0736  0.1838 -0.1179
15514W        W31648   0.633  15.603  14.495  0.1943  0.0137  0.0315
15515W        W31649   4.767  13.914   0.067 -0.1601  0.0116 -0.0556
15516W        W31650   1.925   5.440  11.688 -0.3127 -0.1276  0.0955
15517W        W31651   3.528  16.538   2.404  0.3120  0.2047  0.0412
15518W        W31652  18.226   3.233   0.668  0.1699  0.1730 -0.1986
15519W        W31653  11.918  18.103   2.714  0.0362 -0.3388  0.0904
15520W        W31654  12.133   3.428   3.302 -0.3300 -0.1305  0.3146
15521W        W31655   1.784   3.413  15.163  0.0724  0.1056  0.3478
15522W        W31656   0.454   8.034   5.444  0.0519 -0.0985  0.3234
15523W        W31657   3.497   1.826  14.709 -0.0977  0.2487 -0.1818
15524W        W31658  15.482   2.340   3.439 -0.0548  0.0904  0.0910
15525W        W31659   8.545   6.539   0.857  0.1100 -0.1698  0.1155
15526W        W31660   6.432   4.917   0.444  0.3499 -0.2274 -0.2859
15527W        W31661   6.990   8.066  13.165  0.1927  0.2727 -0.1054
15528W        W31662   0.338  10.658   4.422  0.1450  0.0632 -0.2110
15529W        W31663   5.173   4.496  14.408 -0.0601  0.3259 -0.1327
15530W        W31664   3.649   7.526   5.474  0.3898 -0.2995  0.2594
15531W        W31665   4.288  13.031   2.385 -0.0637  0.2701  0.0988
15532W        W31666  10.723   9.461  11.368 -0.0238 -0.2556 -0.3491
15533W        W31667   8.383   0.605  13.690  0.0496 -0.2634 -0.0169
15534W        W31668  16.955  10.109   2.309 -0.4036  0.2044  0.2435
15535W        W31669   6.298  14.017  10.801 -0.0946 -0.1327 -0.0951
15536W        W31670  17.947   2.211  14.323 -0.0122  0.3803  0.3271
15537W        W31671  11.501  15.794   5.287 -0.2039  0.0816  0.1692
15538W        W31672   0.861   9.074  13.992  0.0453  0.0280  0.0214
15539W        W31673  12.919  17.186  13.106  0.0432  0.4187  0.0331
15540W        W31674   1.647   8.878   0.794  0.0702  0.4335  0.2417
15541W        W31675   9.038   0.919  12.120  0.3618 -0.0379 -0.0740
15542W        W31676   5.621  14.556   3.436  0.0954 -0.1424  0.2553
15543W        W31677  14.500   0.393   3.719  0.2528 -0.0684  0.0543
15544W        W31678   3.502  13.893   9.593  0.0736  0.1987 -0.0618
15545W        W31679  18.468  10.395   3.448  0.0303  0.0051 -0.0544
15546W        W31680   8.055  10.346  14.580 -0.1952  0.2786  0.1624
15547W        W31681   3.880  16.192  13.756 -0.0294  0.3261 -0.0732
15548W        W31682   6.285  12.526  15.029  0.3185  0.2078  0.2132
15549W        W31683  13.044   8.397   1.706 -0.3627  0.0007 -0.2136
15550W        W31684   3.893   0.782  11.285 -0.2051  0.0512  0.5227
15551W        W31685  11.624  10.715   0.936  0.0106 -0.3354 -0.1211
15552W        W31686   5.375  13.364   4.598 -0.1221  0.4687  0.1844
15553W        W31687   2.889   2.716   4.746  0.0380  0.0094  0.1738
15554W        W31688  14.489  16.056  11.866 -0.1141 -0.0610  0.3288
15555W        W31689   2.012   3.911  13.698  0.0093  0.0563 -0.3117
15556W        W31690   5.382   2.000   4.084 -0.0269  0.1416 -0.1524
15557W        W31691   7.250  18.382  13.146  0.1687 -0.1083  0.1077
15558W        W31692  13.610  10.088   2.409 -0.2985  0.0026 -0.4219
15559W        W31693  16.030   9.982   0.499  0.3555  0.1531  0.0407
15560W        W31694   5.412  17.605   4.903 -0.0899 -0.1129  0.0286
15561W        W31695   1.611   8.231   1.481  0.1369 -0.1312 -0.0606
15562W        W31696  15.888  11.126  12.195 -0.2549 -0.0870  0.2231
15563W        W31697  10.988  10.772  10.821  0.1713 -0.1717 -0.3401
15564W        W31698  18.403   5.707  15.111 -0.2780  0.1108  0.2763
15565W        W31699  16.531  14.465  15.409 -0.2430 -0.3786  0.1053
15566W        W31700  15.208   4.240   0.327  0.1836  0.0943  0.2913
15567W        W31701  15.385   3.876   4.698 -0.1484 -0.1812 -0.1858
15568W        W31702  13.927  18.078   3.781 -0.0056  0.2476  0.0964
15569W        W31703   5.655   6.059   0.832 -0.1334  0.1808 -0.0237
15570W        W31704  12.393   3.559   1.715  0.0764  0.0675  0.1879
15571W        W31705  13.669   0.232  14.878 -0.0411 -0.0468 -0.1206
15572W        W31706  13.723   7.946   1.703 -0.0930 -0.1953 -0.3206
15573W        W31707  17.804   1.759   3.427 -0.2315 -0.4465 -0.2408
15574W        W31708  17.326   3.518   3.223 -0.2486 -0.0974  0.1991
15575W        W31709  16.545  18.365   1.193  0.0000  0.0488 -0.0366
15576W        W31710   9.497   3.051  11.797 -0.1887  0.0933 -0.1936
15577W        W31711  10.213  12.933  13.207  0.0233  0.0208 -0.0022
15578W        W31712  10.659  11.244   3.212  0.1831  0.0321  0.5107
15579W        W31713   1.620   1.192   5.556  0.2139  0.0278  0.1124
15580W        W31714  16.106   4.869   0.760  0.1910 -0.1290  0.3679
15581W        W31715   8.151  18.404   0.218  0.2245  0.3615  0.3717
15582W        W31716   9.791  15.922   2.308  0.0591 -0.5092 -0.3418
15583W        W31717  15.564  11.976   4.219 -0.2228 -0.2451 -0.0215
15584W        W31718   4.893   7.252  11.236  0.2195  0.2034 -0.0105
15585W        W31719   6.522  16.462   6.024  0.1346 -0.0008 -0.0338
15586W        W31720   5.441   5.746  12.301  0.1531  0.1188  0.2144
15587W        W31721   6.196   8.367   3.501  0.1996 -0.0597  0.1111
15588W        W31722  14.870  17.651   2.825 -0.0908  0.1278  0.2237
15589W        W31723  15.872  14.764   1.134 -0.1714  0.2975  0.1792
15590W        W31724  10.390  11.795   1.751  0.1882  0.1635 -0.3077
15591W        W31725   5.029  12.560   2.177 -0.2683 -0.0077 -0.1084
15592W        W31726  13.003   3.490  10.860  0.0001  0.0172  0.0443
15593W        W31727  16.364  16.531   5.976 -0.0213  0.2090 -0.0130
15594W        W31728  13.717   0.237  11.635 -0.3270  0.2509 -0.4381
15595W        W31729  13.617   7.870   4.236  0.0674 -0.0056  0.0630
15596W        W31730   0.740   7.608   0.920 -0.0663 -0.1473  0.1185
15597W        W31731  15.246   4.119  10.789 -0.1953  0.0674 -0.0251
15598W        W31732  15.308   6.779  13.555  0.3053  0.0569  0.1350
15599W        W31733  15.649   5.250   0.823 -0.0108  0.1402  0.1299
15600W        W31734   1.133   2.889  10.802  0.2458 -0.2071  0.0824
15601W        W31735  10.496   9.947   1.348  0.0638  0.0358 -0.1610
15602W        W31736  18.389  18.092  14.452  0.1246 -0.0496 -0.1391
15603W        W31737  14.784   4.956  12.520 -0.0465 -0.3102 -0.1567
15604W        W31738   0.339   1.951  13.584 -0.3837  0.1027  0.0386
15605W        W31739   4.953   0.070   4.470 -0.1243  0.2890  0.1100
15606W        W31740  13.097   3.912  11.164 -0.1093 -0.3262 -0.1537
15607W        W31741   7.976   1.576  10.397 -0.1253  0.2802 -0.1153
15608W        W31742   9.933  11.145   4.505  0.0587 -0.1938 -0.0154
15609W        W31743   4.665  13.693  11.241 -0.1940 -0.1942  0.2312
15610W        W31744   7.227   1.093  11.645  0.1562 -0.0577 -0.0442
15611W        W31745  12.889  14.108  13.505  0.1592 -0.2288  0.1331
15612W        W31746  15.004  12.790   0.139 -0.2614 -0.1273  0.0166
15613W        W31747   2.648  15.065   2.529 -0.0797 -0.3138 -0.2532
15614W        W31748   8.930  16.812   1.924  0.2550  0.0548 -0.0188
15615W        W31749   6.702  14.013   3.009  0.1750 -0.2543  0.0388
15616W        W31750   6.250  14.775  12.358 -0.3624 -0.1477  0.2665
15617W        W31751   3.985  15.447   5.841  0.0859  0.0110  0.0292
15618W        W31752   4.503   2.615  11.444 -0.3276  0.0802 -0.1020
15619W        W31753   8.014  15.009   2.696 -0.1896 -0.0909 -0.0215
15620W        W31754   6.352   9.341  12.770  0.1705  0.2841  0.1692
15621W        W31755   8.026   3.699  11.371  0.4070  0.1092  0.1819
15622W        W31756   2.489   3.141   2.103 -0.0241 -0.0683 -0.1227
15623W        W31757   3.149  11.640   5.113  0.0638  0.0604 -0.2210
15624W        W31758  15.143  17.797  14.565  0.2009 -0.1180  0.5701
15625W        W31759   0.373   9.309  11.680  0.0971 -0.0784 -0.0550
15626W        W31760  12.048  18.509  11.906  0.0298  0.3420 -0.3884
15627W        W31761   8.912  16.676   2.520  0.0375 -0.0672  0.0721
15628W        W31762   1.164  15.670   2.522 -0.0501  0.0090  0.1973
15629W        W31763  16.620   3.956  14.303  0.1352  0.0893  0.1592
15630W        W31764  12.789  11.962   3.296  0.1927 -0.0420 -0.1932
15631W        W31765   7.869   0.156  15.210 -0.1572 -0.4538  0.1695
15632W        W31766   9.278  10.241   0.909 -0.2699  0.1647 -0.3906
15633W        W31767  14.048   0.414   2.792  0.0208  0.2293  0.0007
15634W        W31768  17.613   1.617  11.014 -0.2163 -0.0508 -0.1050
15635W        W31769   9.752  13.072  14.301 -0.2211 -0.1649  0.0318
15636W        W31770  13.254  12.460   2.268  0.2346  0.2595 -0.0087
15637W        W31771  12.373   1.966   2.295  0.1260  0.0186  0.3173
15638W        W31772   1.490   7.692  12.950 -0.1365  0.3534  0.0251
15639W        W31773   4.279   3.115   1.410 -0.2485  0.0299 -0.2477
15640W        W31774   6.198  12.290  13.983 -0.0810  0.3183  0.0002
15641W        W31775   7.897  17.610   4.302  0.2071 -0.1736  0.0192
15642W        W31776  17.079  12.141  12.963  0.2334 -0.0582 -0.0581
15643W        W31777  16.551   9.596   2.728 -0.0459 -0.1555 -0.0930
15644W        W31778   1.945  13.946   4.336  0.0257 -0.2128 -0.1935
15645W        W31779  18.603   2.738  14.882 -0.2104 -0.4028  0.0556
15646W        W31780  17.012   9.123  15.565 -0.0800  0.0742  0.1988
15647W        W31781   0.366  16.068  11.889 -0.0098 -0.1649  0.2058
15648W        W31782   8.378  12.161   0.166 -0.2392 -0.0590  0.0333
15649W        W31783  14.051  11.773   3.648 -0.1822  0.0713 -0.0452
15650W        W31784   2.333  10.955  12.112 -0.2630 -0.0369 -0.2496
15651W        W31785  13.216   4.980  10.968 -0.0632 -0.1617  0.0030
15652W        W31786   3.291  14.874  13.661 -0.2091 -0.0919  0.0320
15653W        W31787  18.173  18.078   1.109  0.0148 -0.1492  0.1529
15654W        W31788   9.996  12.269  12.398 -0.0381  0.1695 -0.0744
15655W        W31789  13.653  13.221  10.729 -0.0980 -0.0011  0.0292
15656W        W31790  10.472   7.273   1.886  0.0995 -0.2366 -0.1709
15657W        W31791   8.028  15.055   2.236  0.1799  0.2577 -0.1071
15658W        W31792  13.656  17.650   0.760 -0.1701 -0.0733 -0.0129
15659W        W31793  11.048   9.857  12.119 -0.2914 -0.3528  0.0662
15660W        W31794  15.531   7.472  12.887 -0.0352 -0.1142  0.2199
15661W        W31795   1.933  10.719  10.554  0.0671  0.1289  0.2209
15662W        W31796  16.938  13.513   2.778 -0.1698 -0.3214 -0.1889
15663W        W31797  18.391  12.743   1.501 -0.0550 -0.0751 -0.2054
15664W        W31798  13.256   5.669  14.729  0.0099  0.0017  0.0873
15665W        W31799  11.031   5.235  14.604  0.1153 -0.0811 -0.0585
15666W        W31800   2.608   3.371   3.449  0.1324  0.0676 -0.0943
15667W        W31801   0.413   6.110  13.436 -0.1142 -0.0577  0.1110
15668W        W31802   1.984   4.479  12.393  0.0458 -0.2665 -0.1325
15669W        W31803  12.937  12.596   0.614  0.2633  0.3905  0.2237
15670W        W31804  12.530  17.152   5.206  0.2207 -0.1768 -0.0203
15671W        W31805  16.635   4.612  14.367 -0.3899 -0.0409 -0.0578
15672W        W31806   8.816  18.358   1.273  0.1401 -0.0744  0.4624
15673W        W31807  16.438   9.129  14.343 -0.0122  0.1673 -0.0532
15674W        W31808  16.047  17.071   2.304 -0.0518 -0.2076 -0.1051
15675W        W31809   3.214   8.385   1.691 -0.1754  0.1878 -0.2026
15676W        W31810   5.169   2.244   3.229  0.0818 -0.1500  0.0672
15677W        W31811  13.821  17.977  14.330 -0.0604 -0.0972 -0.1554
15678W        W31812   8.694   0.028  11.605  0.0059 -0.2802 -0.2556
15679W        W31813  10.599   3.041   2.314  0.1318  0.0956 -0.2487
15680W        W31814  12.242  18.534  14.242  0.0450  0.3203  0.0724
15681W        W31815  10.038  10.765  11.330 -0.0366  0.3520  0.1488
15682W        W31816   1.256   9.012   3.912  0.2193 -0.1611  0.2322
15683W        W31817   2.212  14.815  11.256 -0.4059  0.1315 -0.0397
15684W        W31818  14.213  13.003   0.287 -0.0788  0.2580  0.0272
15685W        W31819   2.428   8.784   1.580 -0.2796  0.0546  0.1444
15686W        W31820   4.578   8.759   5.484  0.1604  0.1171  0.2752
15687W        W31821   0.490   4.487  11.231 -0.1327 -0.1729 -0.0150
15688W        W31822   6.548   7.924   4.909  0.1735  0.1379  0.3127
15689W        W31823   6.133   0.825   0.693  0.4267  0.0900  0.4961
15690W        W31824   8.419  17.884   0.425 -0.1078  0.1289  0.0519
15691W        W31825   2.763   7.008  11.122 -0.0005 -0.4161 -0.1960
15692W        W31826   5.525  13.197  12.683  0.1293 -0.0866  0.1900
15693W        W31827   7.741  18.573  12.880 -0.0330 -0.0441 -0.2725
15694W        W31828  17.372  10.955   2.541 -0.0809 -0.0180 -0.2454
15695W        W31829   6.093  18.707  11.641 -0.1533 -0.0191 -0.0175
15696W        W31830   7.963   0.369   1.909  0.1798  0.1114 -0.0341
15697W        W31831   6.871  14.003  13.453  0.0766 -0.0434  0.0587
15698W        W31832  16.034   3.813  10.241 -0.1350  0.1427 -0.1099
15699W        W31833  14.057   1.277   4.320 -0.1687  0.0362 -0.1543
15700W        W31834   9.800   0.562   2.062 -0.1278 -0.0682 -0.2087
15701W        W31835   8.699  17.963  14.872 -0.0510 -0.1100  0.0545
15702W        W31836  13.496   9.564  13.168 -0.1648  0.0432 -0.1800
15703W        W31837   8.580   4.440  14.476 -0.1184  0.3701 -0.0838
15704W        W31838  13.030  11.286  11.514 -0.2935  0.3505  0.0845
15705W        W31839   5.924   9.233   1.841 -0.2186 -0.1775 -0.3730
15706W        W31840  15.679   6.979  12.706  0.0111 -0.0961  0.1826
15707W        W31841  18.008   9.717   4.153  0.1189  0.1248 -0.1067
15708W        W31842   9.254   1.384  14.578 -0.0363 -0.0588 -0.0874
15709W        W31843   1.921  12.996  11.911 -0.1099  0.0366 -0.1920
15710W        W31844   4.737  12.734  12.246  0.1282  0.2420 -0.0275
15711W        W31845   1.957  15.195  14.662 -0.0441  0.2013  0.0280
15712W        W31846  13.008  17.727  13.799  0.0996 -0.1305 -0.0623
15713W        W31847  12.371   0.835   3.146  0.0621  0.1320  0.2440
15714W        W31848   2.278  15.861   4.225 -0.2046 -0.3554  0.1591
15715W        W31849  13.139  15.483  12.961  0.1727 -0.2349  0.0432
15716W        W31850   0.802  14.032  11.948  0.2015 -0.4031  0.5723
15717W        W31851   9.926   6.071   3.672 -0.3304  0.1915  0.0634
15718W        W31852   8.127   6.127  12.436 -0.0368  0.0366 -0.1518
15719W        W31853   9.240   0.689   2.096 -0.0867  0.0706 -0.0416
15720W        W31854  16.394  10.913  14.593  0.1992 -0.0619 -0.0358
15721W        W31855  16.651   9.515  11.828  0.0719  0.2957  0.0714
15722W        W31856   3.001   1.896  11.658  0.2543  0.2917  0.0076
15723W        W31857   2.684  16.970   3.737 -0.0833  0.0952 -0.1593
15724W        W31858   6.316   1.572   1.363  0.2660  0.4007 -0.0652
15725W        W31859  14.122   9.834   4.588 -0.0060 -0.2235 -0.0583
15726W        W31860  13.855  10.982   3.319  0.2125  0.2405 -0.0756
15727W        W31861  12.040   9.782  12.303  0.1550  0.0184 -0.1230
15728W        W31862  14.265   0.614  11.493  0.2757 -0.1630 -0.0415
15729W        W31863  12.530  14.653   2.376 -0.2833  0.2177 -0.0415
15730W        W31864  13.456   9.271  10.685 -0.1787  0.0198  0.0390
15731W        W31865  16.242  18.157  14.724 -0.1978 -0.0607  0.0572
15732W        W31866  17.927   1.885   9.828  0.1901 -0.1894 -0.1292
15733W        W31867   9.503  10.382   1.879 -0.0157  0.3707 -0.0914
15734W        W31868   9.500  17.538   2.295 -0.4509 -0.1792  0.0253
15735W        W31869  17.084  13.267   0.749 -0.1283 -0.0985  0.1061
15736W        W31870   7.673   7.442  14.018  0.0254 -0.0647  0.1215
15737W        W31871   7.245   7.119  14.865 -0.1147 -0.0892  0.2509
15738W        W31872  14.649  16.550  15.268  0.0109 -0.1802 -0.1834
15739W        W31873   5.467  12.501   5.570 -0.0986  0.0299 -0.1003
15740W        W31874  14.618   9.876  14.359 -0.0489 -0.2777 -0.2189
15741W        W31875   2.634   6.365  14.538 -0.1195  0.3204  0.0405
15742W        W31876  17.560   1.564  12.097 -0.0823 -0.2711 -0.1820
15743W        W31877   6.680  14.786   4.917 -0.0125  0.1085  0.3997
15744W        W31878   5.178  10.991   3.174 -0.1364  0.0788  0.1658
15745W        W31879   4.161   0.702   1.963  0.1021  0.1552  0.0186
15746W        W31880   2.444  15.806   0.228 -0.0785  0.1345 -0.1552
15747W        W31881  12.723  18.058  14.180  0.2017  0.0564  0.2406
15748W        W31882   4.211  17.525   2.404 -0.3749  0.1498 -0.1454
15749W        W31883  14.271   6.478   4.902  0.1040 -0.3572  0.2441
15750W        W31884   5.648  10.676   1.012  0.0508 -0.2055  0.0573
15751W        W31885   7.395  17.076  14.522 -0.2889 -0.1731 -0.0394
15752W        W31886   9.499   4.492  10.340 -0.1590  0.1083 -0.2086
15753W        W31887  13.884  11.507  11.531 -0.0239 -0.1062 -0.1746
15754W        W31888  14.558   6.970   2.290 -0.3171  0.4289 -0.2552
15755W        W31889   4.847  13.092  14.660  0.1548  0.3001  0.0832
15756W        W31890  12.542   4.875   9.817  0.0245  0.2708 -0.0029
15757W        W31891  14.983   5.989   5.165 -0.1944  0.1300 -0.1071
15758W        W31892   7.283  15.132   0.396 -0.0663 -0.4019 -0.0710
15759W        W31893  17.249   0.919  14.487  0.3313  0.1099  0.0804
15760W        W31894   7.454   3.144   3.548  0.1561 -0.1411 -0.1721
15761W        W31895  14.377   9.921  10.669 -0.2876 -0.1724 -0.2841
15762W        W31896  17.102  16.950   4.696 -0.1984  0.3491 -0.0253
15763W        W31897   0.364   9.511   1.366 -0.0881  0.1073 -0.0767
15764W        W31898  16.985  17.541   3.014 -0.0589  0.0327  0.2204
15765W        W31899  11.635   2.714   0.520 -0.0430 -0.0854  0.1288
15766W        W31900   0.525  17.759   0.423  0.1186 -0.1054 -0.3528
15767W        W31901   0.529   1.705  12.034 -0.1189  0.3016  0.2126
15768W        W31902  11.351  17.648  12.537  0.2634  0.2721  0.1100
15769W        W31903  14.562  12.030   3.756  0.1209 -0.3465 -0.0182
15770W        W31904   9.196   7.852  13.166  0.0548 -0.0443  0.3327
15771W        W31905  13.555   3.684  11.303 -0.3891  0.0747  0.1589
15772W        W31906  18.250  12.483   3.384  0.4198  0.0734 -0.1908
15773W        W31907  15.083   7.867   0.979 -0.1663  0.0634 -0.2563
15774W        W31908  12.014  12.130  14.038 -0.1303  0.0651  0.1232
15775W        W31909   2.160   8.743  14.567 -0.0436  0.0583  0.0690
15776W        W31910  15.012  13.799   3.440  0.0610 -0.0484  0.1601
15777W        W31911  15.475   4.516   4.496  0.1107  0.1762 -0.1884
15778W        W31912   2.156   6.628  13.439  0.2339 -0.1706 -0.3717
15779W        W31913   0.872  12.105   5.419 -0.1434 -0.1670  0.0393
15780W        W31914   3.152   1.466  13.207 -0.2306  0.0672  0.1770
15781W        W31915   0.463  12.057   1.399  0.2746 -0.0768 -0.1678
15782W        W31916  11.153  17.070  13.836  0.2198 -0.0065 -0.1814
15783W        W31917  10.691  10.194  13.456  0.1521  0.0662  0.0842
15784W        W31918  12.030  17.468   0.732 -0.0718 -0.0088  0.0043
15785W        W31919  13.930  14.507   4.712 -0.2754 -0.1266  0.0078
15786W        W31920  10.606   1.973   2.173 -0.0254 -0.1850  0.0976
15787W        W31921   1.866   4.476   6.367  0.3983 -0.0917  0.1413
15788W        W31922   8.836  15.231   2.354 -0.3811  0.3386 -0.1908
15789W        W31923   9.538   8.464   4.199  0.2939  0.0332 -0.1135
15790W        W31924   7.438   0.461  13.354 -0.0970 -0.1801 -0.1496
15791W        W31925   9.042  11.240  14.597  0.0493 -0.2140  0.0605
15792W        W31926  14.453  17.519  10.431  0.0343 -0.0228  0.0689
15793W        W31927  17.818  11.703   5.286 -0.0941  0.1911 -0.1388
15794W        W31928   9.776  15.213   3.085 -0.0992 -0.2387  0.3469
15795W        W31929  16.765   0.286   2.041 -0.0337  0.1292  0.0408
15796W        W31930  13.367  16.529   1.469 -0.0009  0.1285 -0.0847
15797W        W31931   8.676  17.863   4.137 -0.1338  0.0812 -0.0571
15798W        W31932   6.200  10.506  11.313  0.0157 -0.1099  0.0477
15799W        W31933  16.157   1.091   0.836 -0.1234  0.1531  0.1030
15800W        W31934  12.419  11.792  11.167 -0.1027  0.4172  0.1325
15801W        W31935   0.980   9.021   0.365 -0.1508 -0.1015 -0.0888
15802W        W31936   0.312   5.779  12.175  0.2614 -0.1006  0.2737
15803W        W31937  14.922  16.952   6.124  0.2970 -0.0915  0.2328
15804W        W31938  16.077  18.530   1.085 -0.1295 -0.0359 -0.1906
15805W        W31939   7.992   0.535   9.488  0.0246 -0.0850 -0.0354
15806W        W31940  10.990   9.277   0.606 -0.1337  0.1964  0.1892
15807W        W31941  11.221   5.715   4.567 -0.3085  0.5270  0.1693
15808W        W31942   5.697   4.523   5.069 -0.0811 -0.0441 -0.0719
15809W        W31943  17.602   6.246  11.033 -0.0403  0.2345  0.1874
15810W        W31944  17.107  15.634  11.675 -0.1722 -0.1002  0.0263
15811W        W31945   1.005   9.651   2.570  0.1071 -0.0509 -0.0743
15812W        W31946   9.792  10.024  10.607 -0.2635 -0.0343  0.2595
15813W        W31947  12.524   8.238  15.084  0.1891  0.0399 -0.2481
15814W        W31948   1.660   1.757  13.210 -0.1885  0.1105 -0.3542
15815W        W31949   2.650  10.020  14.277 -0.0856 -0.0908 -0.1157
15816W        W31950   6.789  17.219   1.818  0.0408  0.0053 -0.0313
15817W        W31951   4.747   9.487  14.912 -0.4855 -0.1663  0.0618
15818W        W31952   0.994  17.392   2.914 -0.2916 -0.2016  0.4479
15819W        W31953  14.467  11.905   2.411 -0.3743  0.0146  0.2285
15820W        W31954   4.402   4.437   2.765 -0.0639 -0.0392 -0.1256
15821W        W31955   7.038  11.222  14.541  0.2904  0.0846  0.1165
15822W        W31956  14.766   8.574   9.417 -0.0057  0.0796  0.1810
15823W        W31957   5.768   8.624  15.261  0.1729  0.0746 -0.1355
15824W        W31958  11.630   9.122  13.245  0.0883  0.1147 -0.0683
15825W        W31959   8.253  13.944   1.350 -0.0668  0.2798  0.3704
15826W        W31960  15.515  10.920  13.226  0.0237  0.3112 -0.1396
15827W        W31961  13.624  12.635   0.096  0.1712 -0.1454  0.0462
15828W        W31962  18.550   7.686   0.608  0.0501 -0.2214  0.2422
15829W        W31963  11.614   2.829   2.647  0.1189  0.2674 -0.0502
15830W        W31964   8.705   8.149  13.521 -0.3658  0.0879 -0.0312
15831W        W31965  16.885   3.634   1.067  0.1626  0.0368 -0.0097
15832W        W31966  11.114  13.174  14.370  0.0340  0.1444  0.1148
15833W        W31967   0.464  15.162  12.840  0.0357 -0.2671 -0.1283
15834W        W31968  11.914  18.361  11.393 -0.1536  0.0826 -0.0006
15835W        W31969   0.172   4.957  14.522 -0.1283 -0.1605  0.1699
15836W        W31970   9.576  11.693  13.156 -0.2427 -0.0898  0.4582
15837W        W31971   3.738   7.642  14.574 -0.1724  0.0909  0.2300
15838W        W31972   7.198   0.668   2.256 -0.1027 -0.0935 -0.0576
15839W        W31973  10.420   7.907   3.212 -0.1509  0.3159 -0.3431
15840W        W31974  13.605  11.111  15.436  0.1993 -0.0341  0.1925
15841W        W31975  13.918  11.595   4.558  0.1648  0.1924 -0.1430
15842W        W31976  11.587  11.502  11.955  0.2900  0.1729 -0.0234
15843W        W31977   7.815   0.789  13.736 -0.1414  0.0695 -0.3394
15844W        W31978  17.304  17.072   0.479 -0.2032 -0.1637  0.0928
15845W        W31979   3.934  16.133  14.806  0.3436  0.2797 -0.0343
15846W        W31980  17.774   3.893  10.749  0.2573  0.0692  0.2217
15847W        W31981  13.319   9.024  12.088 -0.0084  0.4270  0.1543
15848W        W31982  10.627  10.809  12.975  0.0656  0.1767 -0.1557
15849W        W31983  10.222  16.949  10.801  0.3014  0.5197  0.0222
15850W        W31984  14.159   3.945  11.769  0.2176  0.1252 -0.1827
15851W        W31985  11.494  13.591   5.033 -0.1170 -0.0697  0.1031
15852W        W31986   3.501  17.428  14.081 -0.0080  0.1447 -0.2144
15853W        W31987  15.880   1.962  13.925  0.0855  0.1364 -0.1931
15854W        W31988   5.113   6.684  14.736  0.2944 -0.1679 -0.2213
15855W        W31989   3.193  17.351  13.242  0.2123  0.0253  0.0313
15856W        W31990  10.363  14.475   5.034 -0.0191  0.2242 -0.0107
15857W        W31991   5.500   8.486  11.356  0.1044 -0.0591 -0.2117
15858W        W31992  12.103  15.865   0.861 -0.2184  0.0611 -0.1629
15859W        W31993   7.935   7.935   3.707  0.2311  0.2644  0.1357
15860W        W31994  11.237   2.344   0.925 -0.2050  0.0834  0.2255
15861W        W31995   7.031   0.508  13.566  0.1134  0.5619 -0.0625
15862W        W31996  16.304   2.379   2.621 -0.2329  0.0050  0.3206
15863W        W31997   3.301  18.036  11.963 -0.2352  0.1688  0.0437
15864W        W31998  10.570  14.990   3.852  0.1279  0.0659  0.0730
15865W        W31999   7.720  17.322   3.817 -0.2601  0.3407  0.1489
15866W        W32000  13.034   2.729   3.643 -0.3054  0.0394  0.0603
15867W        W32001  15.906  16.331  10.828 -0.0034 -0.0747 -0.0811
15868W        W32002   2.168   6.812   4.854  0.0259 -0.2438  0.1226
15869W        W32003  12.764   2.767   1.212  0.0297  0.0463 -0.1841
15870W        W32004   1.113  16.186   2.466  0.1866 -0.2738  0.0316
15871W        W32005   7.775  12.189   0.248  0.0137  0.2832  0.1333
15872W        W32006  11.301   0.276   4.992  0.0254 -0.0705  0.2406
15873W        W32007   6.354   8.386  14.490  0.0194  0.1864 -0.1014
15874W        W32008  12.079   3.925  11.561 -0.1057 -0.1316 -0.1340
15875W        W32009   8.955   8.975   4.302 -0.1580 -0.0917 -0.5964
15876W        W32010  11.980   9.260   0.509  0.0329 -0.0158 -0.0372
15877W        W32011  12.184  13.010  13.720 -0.2662  0.1116 -0.2530
15878W        W32012  12.848  10.846  11.716  0.1068  0.2260  0.2268
15879W        W32013   7.028   0.314  13.020  0.1301  0.1020 -0.0429
15880W        W32014  13.530   0.332  13.090 -0.3584 -0.0128  0.3422
15881W        W32015   2.985  12.020  13.367  0.0969  0.3293  0.0656
15882W        W32016  11.006  17.549  13.712 -0.2584 -0.3496  0.3109
15883W        W32017   0.683   2.067   1.029 -0.1525  0.2410  0.2779
15884W        W32018   3.127  15.023   9.554  0.0764  0.0998  0.0721
15885W        W32019  14.292   7.302   4.250 -0.2216 -0.1490  0.1236
15886W        W32020   5.839  17.692   9.402 -0.4169 -0.0683  0.0692
15887W        W32021  16.342  17.720   0.931  0.2443 -0.0522  0.1192
15888W        W32022  16.630   6.971   3.588  0.2496  0.0140 -0.2058
15889W        W32023  13.168   1.056  11.956  0.1444  0.2572  0.0911
15890W        W32024  14.385   2.354   1.839  0.4487  0.0076 -0.0394
15891W        W32025   5.369  11.093   3.782 -0.0858 -0.2547  0.0087
15892W        W32026  14.736   3.242   3.926 -0.0700 -0.0810 -0.0596
15893W        W32027   4.929  12.703  14.377 -0.1988  0.0097  0.2183
15894W        W32028   1.016   3.679  12.590  0.0621  0.0978  0.1759
15895W        W32029  16.759   5.872   4.669 -0.1312  0.0275  0.2748
15896W        W32030  17.933  17.498   3.196  0.3074 -0.1996  0.1860
15897W        W32031  15.633   4.323   3.442 -0.1056  0.1828 -0.2836
15898W        W32032   4.395  13.723   9.986  0.2166  0.1020 -0.0950
15899W        W32033   4.941   2.546  12.373 -0.0637  0.3685 -0.4481
15900W        W32034   7.083   4.250  12.899  0.2156  0.0276 -0.0089
15901W        W32035   1.088  15.670  13.971 -0.0483 -0.0376  0.0748
15902W        W32036  17.256  14.109  12.043 -0.4455 -0.1483 -0.0480
15903W        W32037   8.215   7.975   1.929  0.0437 -0.0117  0.0969
15904W        W32038  16.102  14.764  14.297  0.0233 -0.2258 -0.3195
15905W        W32039  10.417   1.998   0.569  0.0450 -0.2149 -0.0424
15906W        W32040   0.713  11.619  12.589  0.1187  0.1906  0.0518
15907W        W32041  13.609  18.608   4.463  0.2429  0.2804 -0.1623
15908W        W32042   1.419  18.278   0.666  0.0549 -0.0536 -0.1107
15909W        W32043   1.280  14.204  15.268 -0.0155 -0.3150  0.0103
15910W        W32044   3.059  15.984  14.891 -0.2262 -0.2280  0.0786
15911W        W32045   0.350  12.573  14.016  0.1716 -0.3016  0.1003
15912W        W32046   3.513   7.249  14.939 -0.0663 -0.1679 -0.1500
15913W        W32047   3.540   0.587   2.091 -0.2196  0.3559  0.1403
15914W        W32048  12.467  12.165   5.159 -0.1110  0.0470  0.2243
15915W        W32049   3.533  13.865   1.531  0.1898 -0.1043  0.0442
15916W        W32050   1.345  17.028  15.275  0.1155  0.2249 -0.0086
15917W        W32051  12.010  17.336   0.194  0.1253 -0.0990  0.1820
15918W        W32052  17.531  11.289  13.005  0.1573  0.1528 -0.0130
15919W        W32053   0.109   5.895  15.025 -0.0597 -0.1801 -0.0908
15920W        W32054   2.561  16.619   0.688  0.0688  0.1907  0.1532
15921W        W32055  18.490  18.608   0.482  0.1407  0.1527  0.1920
15922W        W32056  14.963  15.785   3.438 -0.1884  0.1060 -0.2203
15923W        W32057   6.118   3.749   2.552  0.0087 -0.2518  0.1535
15924W        W32058  12.454  12.631  13.172  0.1226  0.2103  0.0667
15925W        W32059  11.074  11.717  11.203  0.0317 -0.0501 -0.0348
15926W        W32060   1.475   7.473   1.424 -0.4405 -0.1429 -0.2066
15927W        W32061  10.438   4.123   5.328  0.1831  0.0421 -0.4148
15928W        W32062  15.900  11.216  13.842 -0.0580 -0.0672 -0.0006
15929W        W32063   4.011   4.231  10.988  0.0434 -0.1991 -0.1291
15930W        W32064   7.622  14.075   4.522 -0.0358  0.1507  0.3102
15931W        W32065   4.681   0.842  11.034  0.0689  0.0826 -0.0323
15932W        W32066   8.592   1.965  13.086 -0.0570 -0.0697 -0.0210
15933W        W32067  16.662   2.897   2.134  0.2015 -0.0341 -0.0750
15934W        W32068   8.375  13.743  10.989  0.4613  0.0817 -0.1445
15935W        W32069   2.965  13.459   5.326  0.3172 -0.1704  0.1028
15936W        W32070   2.614   0.718   4.066  0.0184  0.0220 -0.3848
15937W        W32071  10.318   0.279   4.204  0.1230  0.1485 -0.2912
15938W        W32072  11.808  10.006  13.622 -0.1456 -0.0476  0.2452
15939W        W32073  17.363   4.715  10.979  0.0211  0.1641 -0.2378
15940W        W32074  12.824   4.749   4.184 -0.0961  0.0275  0.0872
15941W        W32075   2.066   1.959   2.321  0.1779 -0.4314 -0.0029
15942W        W32076  13.459  10.125  10.820 -0.1808 -0.1006 -0.1723
15943W        W32077  16.900   7.242  13.172  0.1964  0.1094 -0.0269
15944W        W32078  12.453   0.839  11.603 -0.2662 -0.1080 -0.0758
15945W        W32079   2.181  14.753  13.884 -0.2840  0.0641  0.0506
15946W        W32080   4.866   1.466   2.551  0.0712  0.0552 -0.0044
15947W        W32081   5.608   7.196   2.705 -0.3122 -0.2548  0.0267
15948W        W32082  12.763   9.847  15.092  0.1036  0.0565 -0.0205
15949W        W32083   2.361  17.775   1.710  0.1552  0.3209  0.2751
15950W        W32084  14.423   0.416   1.778  0.1085 -0.1382 -0.2257
15951W        W32085  13.973  10.342  13.203  0.1410 -0.1076 -0.1273
15952W        W32086   2.162   0.403   2.184  0.1405  0.0382 -0.1686
15953W        W32087   6.727  18.179   2.823 -0.3543  0.0144  0.0957
15954W        W32088   6.699  13.294  12.340 -0.0066 -0.3424  0.1427
15955W        W32089   9.564  17.081  15.069  0.1503  0.3275 -0.0068
15956W        W32090   8.642  10.988  12.689 -0.0609  0.5351 -0.2151
15957W        W32091  16.578   2.598   0.992 -0.4093 -0.2099 -0.0473
15958W        W32092   2.611  17.139  12.669 -0.1170  0.1346 -0.1295
15959W        W32093  10.958   7.325   1.959  0.0123 -0.4258 -0.1162
15960W        W32094  15.923   1.866  12.413 -0.1055  0.1432 -0.2750
15961W        W32095  15.774   0.472   0.593 -0.0079  0.1676  0.1281
15962W        W32096   4.357   2.790  15.188 -0.1379  0.1488 -0.1102
15963W        W32097   9.738   7.391  12.010 -0.1582 -0.0937 -0.3154
15964W        W32098  17.257   6.954   2.409  0.2647  0.0098  0.0029
15965W        W32099   4.290   8.296  12.156  0.1890 -0.0643 -0.2077
15966W        W32100   7.936  13.653   2.241  0.0151  0.0552  0.3954
15967W        W32101  13.897   8.774  13.086 -0.1143  0.1090 -0.0375
15968W        W32102   7.137   2.623   5.429  0.0080 -0.0514  0.0014
15969W        W32103   3.639  15.891   1.438  0.0719  0.2130 -0.0683
15970W        W32104   6.626   8.642  14.804  0.0597 -0.1797  0.2957
15971W        W32105   3.745   4.921   3.780 -0.3246 -0.0938  0.2181
15972W        W32106   7.632   2.471  11.017  0.2601 -0.2750 -0.5154
15973W        W32107   6.909  16.440   1.346  0.1148 -0.1959  0.1693
15974W        W32108  14.258   0.793   1.186 -0.2830 -0.2726  0.1547
15975W        W32109   0.949   2.282   4.089  0.4332 -0.0214  0.0599
15976W        W32110   5.416  10.835  13.248  0.2538  0.0632 -0.1385
15977W        W32111   1.122  15.540  14.766  0.0197 -0.1792  0.0051
15978W        W32112   6.387   7.140   5.794  0.2581 -0.0914  0.0576
15979W        W32113  11.095  14.823  12.214  0.1693  0.0077  0.5812
15980W        W32114  11.254  11.062   0.998 -0.1052 -0.1855  0.5381
15981W        W32115   7.394   9.316  13.441 -0.0727 -0.1124 -0.3690
15982W        W32116   2.461  13.151   0.478  0.2044 -0.1905  0.2007
15983W        W32117  12.806  10.539  10.780 -0.0329 -0.0263  0.0309
15984W        W32118  15.269  17.808  15.070 -0.0105  0.0338  0.1874
15985W        W32119  15.499  13.018  13.303  0.1955 -0.3657 -0.1272
15986W        W32120   9.778  10.590  14.169  0.0694 -0.2181 -0.2567
15987W        W32121  12.866   0.889  13.342  0.2726  0.1744 -0.0533
15988W        W32122  11.654  11.318   4.724 -0.0836 -0.0902 -0.2675
15989W        W32123   7.166   5.278  13.242 -0.2088 -0.1190 -0.3355
15990W        W32124  15.436   0.164  13.349 -0.1096 -0.1835  0.1798
15991W        W32125  17.887  15.873   5.017 -0.3170 -0.0684 -0.2605
15992W        W32126  17.043  11.061  15.300  0.1749 -0.1115  0.3179
15993W        W32127   4.647   6.275   1.805  0.0992  0.2494 -0.1569
15994W        W32128  13.185  14.554   1.619  0.0447 -0.1843 -0.3658
15995W        W32129   4.184   6.314   3.013 -0.0133  0.3206 -0.2017
15996W        W32130  13.848  13.415   4.235 -0.1894 -0.1426 -0.0911
15997W        W32131   7.698   9.404  15.186  0.0409 -0.1631 -0.3245
15998W        W32132   2.811  17.760   1.434  0.2922 -0.3207 -0.0533
15999W        W32133  11.133   6.637   4.096 -0.0485  0.0644  0.1505
16000W        W32134  12.030   4.477   3.773  0.1279  0.0583  0.0600
16001W        W32135   5.614   8.853   1.723  0.0189  0.1063  0.0661
16002W        W32136  11.794  18.620  10.945 -0.3129  0.0892  0.1647
16003W        W32137  15.151   4.304   1.465 -0.1955 -0.0961  0.3563
16004W        W32138  11.502   2.715  12.133  0.1080 -0.2909  0.0299
16005W        W32139  12.751   7.054  15.074 -0.1179 -0.1463 -0.2369
16006W        W32140  18.544   0.588  10.984  0.2612  0.2578 -0.1495
16007W        W32141   9.395   4.104   5.563 -0.2555  0.1379  0.0096
16008W        W32142   8.487   0.802  12.660  0.0470  0.3332 -0.0140
16009W        W32143   1.919  16.428   0.625  0.2400 -0.2962  0.0612
16010W        W32144   8.492   4.943  15.240 -0.1081 -0.3306  0.2982
16011W        W32145   3.146  17.376  14.622  0.1142 -0.1909 -0.0406
16012W        W32146   2.245   3.407   0.012  0.1709 -0.0729  0.0697
16013W        W32147   0.550  18.306  10.863  0.0037 -0.1843  0.0407
16014W        W32148   7.825  12.568  12.707 -0.1575 -0.3263 -0.0193
16015W        W32149   0.209  13.328   4.713  0.0207  0.2032  0.0081
16016W        W32150   4.366   6.286   1.349 -0.0015 -0.1180 -0.1671
16017W        W32151  18.524  17.990  12.625  0.3843  0.1965 -0.0324
16018W        W32152  17.657   3.857   5.091 -0.2057  0.1431  0.0401
16019W        W32153   4.397   3.701   0.174  0.0297 -0.2856 -0.0571
16020W        W32154  11.939   3.189   2.488 -0.0095 -0.1244  0.1606
16021W        W32155   9.038   4.317  11.392  0.1174 -0.1785 -0.0853
16022W        W32156  13.343  15.833   1.602  0.1112 -0.2030 -0.0669
16023W        W32157   7.588  16.579  13.402 -0.0309 -0.0877 -0.0740
16024W        W32158   8.865   7.673   3.708 -0.0329  0.0501 -0.1388
16025W        W32159  12.100  14.804   2.187 -0.1978 -0.1468 -0.0431
16026W        W32160   3.665   9.444   4.425 -0.1619 -0.1850 -0.1827
16027W        W32161  15.614   4.535  11.547  0.1528  0.1545  0.1550
16028W        W32162  18.288  13.958  12.077  0.0852  0.1262  0.2761
16029W        W32163   3.070   0.959  11.161  0.2585  0.0719 -0.0092
16030W        W32164   2.059   7.035  13.222  0.1242 -0.0166 -0.0096
16031W        W32165   7.578   8.378  10.079 -0.1489 -0.1130  0.0261
16032W        W32166   1.539  17.540  15.437  0.0589 -0.0012  0.3307
16033W        W32167  17.959   8.277  12.332 -0.1211 -0.0250 -0.1874
16034W        W32168   2.742   3.308  13.866 -0.0317 -0.0773  0.0748
16035W        W32169  17.319   6.760   1.171 -0.1453  0.0355  0.0675
16036W        W32170  11.250  17.010  10.544 -0.0139  0.1058 -0.1714
16037W        W32171   1.891   7.091  13.710  0.0180 -0.1644 -0.0579
16038W        W32172  16.750   8.220   3.007  0.1525  0.0339 -0.0142
16039W        W32173   4.021   9.904   3.442 -0.0494 -0.2157  0.1943
16040W        W32174   0.354   8.420   0.378 -0.1453 -0.1253  0.1058
16041W        W32175  14.144   7.619   1.817  0.3604 -0.1490  0.0339
16042W        W32176   0.119   9.499  12.471  0.1420 -0.2411  0.0974
16043W        W32177   6.972   4.386   2.693 -0.1416 -0.1563  0.0435
16044W        W32178  16.629  11.331  12.669 -0.0766 -0.1768  0.2120
16045W        W32179  10.644  16.821  11.857 -0.2166  0.1779  0.0913
16046W        W32180   7.929  14.988   3.211 -0.1344 -0.0152  0.1758
16047W        W32181  14.849  15.736  13.548  0.3960 -0.2642 -0.0985
16048W        W32182  15.079   8.875  15.498 -0.3576 -0.0152  0.0694
16049W        W32183   5.559   1.072  10.634 -0.0491  0.2999 -0.0254
16050W        W32184  12.363  13.403  14.263 -0.1725  0.1185  0.0203
16051W        W32185   0.582   7.472  12.518 -0.0754 -0.2795 -0.0549
16052W        W32186   1.238   0.228  15.167 -0.1076  0.0435 -0.1051
16053W        W32187  10.040  17.106  13.609 -0.5438  0.0310  0.0046
16054W        W32188   9.613  17.174  12.713 -0.1155 -0.0187 -0.0622
16055W        W32189   1.512  16.681   0.026 -0.2244  0.2379 -0.2433
16056W        W32190  11.466   2.923   1.901 -0.1478 -0.0559 -0.3002
16057W        W32191  16.619  17.617   5.167  0.1794 -0.1758  0.0174
16058W        W32192   6.181  13.594   0.828 -0.1726 -0.0656  0.1117
16059W        W32193  17.134  12.381   0.697 -0.0699  0.1021 -0.1973
16060W        W32194  17.972  10.295  10.662  0.0844  0.0847  0.1083
16061W        W32195   9.628   5.541   1.568 -0.3317 -0.1339 -0.1915
16062W        W32196   0.768  15.173  15.464  0.4396  0.1617  0.0242
16063W        W32197  15.969   7.346  12.595  0.1811 -0.2384 -0.1425
16064W        W32198   2.864   7.716   3.700  0.0067 -0.2259 -0.1500
16065W        W32199  14.600   4.916   4.299 -0.1259 -0.2022  0.0700
16066W        W32200   3.480   3.851   1.475  0.0574 -0.0536  0.0264
16067W        W32201  17.353  15.030   5.125 -0.0998 -0.0149  0.0677
16068W        W32202   2.719   7.472   1.527 -0.0682  0.3220 -0.1925
16069W        W32203  17.279   2.506   4.395 -0.1902 -0.0558 -0.0012
16070W        W32204   6.600   3.355  11.281  0.1656  0.0746  0.0539
16071W        W32205  15.682   7.123   3.925  0.0074 -0.1906 -0.0190
16072W        W32206   0.995   1.253   3.625  0.3239  0.1335 -0.1347
16073W        W32207   1.642  16.969   0.494 -0.2858 -0.1853 -0.0060
16074W        W32208   5.535  10.192  10.826 -0.0393  0.2324 -0.1565
16075W        W32209  13.883   8.608  14.831  0.0840 -0.1250 -0.0162
16076W        W32210  13.949   8.333   0.170  0.0515  0.1576 -0.0398
16077W        W32211   5.729  18.133   1.814 -0.2268  0.0128 -0.0929
16078W        W32212   7.115   1.423  14.988 -0.2102 -0.1165  0.2475
16079W        W32213   1.902  11.088   6.044  0.3588 -0.2201  0.2785
16080W        W32214  10.439   2.519  14.589 -0.0994  0.1879  0.1252
16081W        W32215   7.058   2.439  11.117  0.0098 -0.3403 -0.2479
16082W        W32216   7.535   4.586   2.048 -0.0741  0.1049 -0.2535
16083W        W32217  10.743  14.598   0.328  0.2221  0.2391 -0.2650
16084W        W32218  13.350  17.512  13.448 -0.2681  0.0725  0.0061
16085W        W32219  16.516  11.662   1.510 -0.3844  0.1606  0.0933
16086W        W32220  17.116   5.491   2.489  0.0756 -0.1897  0.1328
16087W        W32221   0.391   1.702   5.123 -0.2761  0.1195 -0.3078
16088W        W32222   8.202  14.040   0.087  0.2390  0.0736  0.0510
16089W        W32223   6.330   7.743  12.797 -0.2581 -0.1910 -0.1565
16090W        W32224   5.199  12.924   0.985 -0.2530 -0.0560  0.0514
16091W        W32225  16.834   6.169   0.788  0.1874 -0.1949  0.1501
16092W        W32226  13.314  13.884   1.091  0.0526  0.0432 -0.0372
16093W        W32227  13.974   4.091  14.574 -0.5932 -0.2279  0.0147
16094W        W32228   7.029   3.227  11.544 -0.0207 -0.1711 -0.0697
16095W        W32229   0.260   2.152   4.675  0.1549 -0.0106  0.0375
16096W        W32230  13.460   8.498   3.990  0.0998  0.0203  0.1257
16097W        W32231  13.593  13.821   0.386  0.4475 -0.4386  0.4079
16098W        W32232  16.941  14.447  12.170 -0.0831 -0.1841 -0.0988
16099W        W32233  12.053   2.606  13.855  0.0699  0.2417 -0.0954
16100W        W32234  12.280   6.133  13.595 -0.0988  0.2158  0.0486
16101W        W32235  11.248  15.140  13.355  0.1873 -0.1125 -0.0688
16102W        W32236   6.737  16.560  14.951 -0.1474 -0.2798  0.1787
16103W        W32237  18.675   3.820  12.211  0.1565 -0.0582 -0.1452
16104W        W32238   6.012  12.354   0.715  0.2049 -0.1281 -0.1632
16105W        W32239   2.772   9.800   0.232 -0.0969  0.3313 -0.0516
16106W        W32240  14.886   3.193   0.138 -0.1019  0.0149  0.2475
16107W        W32241   3.252   8.350  11.437  0.0018  0.0716 -0.1625
16108W        W32242   5.443   4.629  13.222  0.2527 -0.0789  0.0671
16109W        W32243  14.474  16.416   2.209 -0.1442 -0.0193 -0.0842
16110W        W32244  17.384  11.050  12.255  0.1680  0.1439  0.0907
16111W        W32245   8.117   6.977   3.910 -0.1621 -0.3539 -0.2368
16112W        W32246  14.353   3.311  13.549 -0.1934 -0.4615  0.1295
16113W        W32247  11.177  16.657   5.687  0.1507 -0.1757  0.1721
16114W        W32248  11.342   0.342  10.593  0.0170  0.2159 -0.2705
16115W        W32249  11.087  10.345  13.141 -0.2764  0.2497  0.1362
16116W        W32250   1.189   7.234  13.041 -0.4445 -0.4692  0.1562
16117W        W32251   2.097   1.548   4.257  0.0628  0.0828  0.3205
16118W        W32252   8.482   5.869  13.609 -0.1817 -0.4262 -0.1336
16119W        W32253  16.589   2.366   0.466 -0.0355 -0.2421  0.0604
16120W        W32254   1.060   5.788   4.857  0.0987  0.1165 -0.3691
16121W        W32255  17.914  18.225  13.824 -0.1768  0.1042 -0.2439
16122W        W32256   2.306   8.079   5.779  0.2303 -0.1045  0.0957
16123W        W32257  10.310   3.361  12.039 -0.2919 -0.1968  0.0221
16124W        W32258  12.992  14.471   0.250  0.1498  0.3838 -0.0589
16125W        W32259   4.964   6.063  12.252  0.0015  0.0149  0.1293
16126W        W32260   3.770   5.347  11.608  0.1530  0.2044  0.0744
16127W        W32261   5.635   2.153  14.801 -0.1762 -0.0269  0.0815
16128W        W32262  13.242  11.397  13.636 -0.0632 -0.0097  0.1216
16129W        W32263  16.387  10.266  12.028 -0.2357  0.2809  0.1686
16130W        W32264  13.403  17.896  14.714  0.0292 -0.2210  0.0486
16131W        W32265   6.474  15.114   4.317  0.0692 -0.1093  0.1308
16132W        W32266  17.719  16.373   0.961  0.0301 -0.1326  0.1666
16133W        W32267  13.167   5.929   3.472  0.0647 -0.0776  0.0903
16134W        W32268  12.749   1.712   1.028  0.1829 -0.0539  0.0210
16135W        W32269   6.781  11.261  12.271  0.0548 -0.2468 -0.4494
16136W        W32270   3.309  12.189   1.744 -0.0017 -0.1586 -0.0615
16137W        W32271  12.465   3.315  12.208 -0.0524  0.1247 -0.2904
16138W        W32272   2.069   1.747   4.755 -0.0181 -0.1578  0.0961
16139W        W32273  10.402   0.762   4.486 -0.1009 -0.1545 -0.1739
16140W        W32274   5.090   6.580   4.307 -0.3054  0.0356 -0.1380
16141W        W32275  12.155  12.519  13.574 -0.0517  0.0970  0.3359
16142W        W32276  17.289   6.843   4.813  0.1675 -0.0954 -0.0612
16143W        W32277   4.611   3.647   0.614 -0.0464 -0.0032 -0.0897
16144W        W32278  15.209   1.282  12.288 -0.4469  0.0934  0.2114
16145W        W32279   3.526   8.962   1.907 -0.2579  0.3306  0.1195
16146W        W32280  11.978  10.888   1.400 -0.2228  0.3380  0.2220
16147W        W32281  16.101   2.996  13.502  0.0942 -0.1207 -0.2390
16148W        W32282   3.708  18.109   5.139 -0.3124 -0.2482 -0.3227
16149W        W32283   6.916   3.374   1.212 -0.1896  0.1015  0.2252
16150W        W32284   4.915   9.970   1.015  0.1070  0.0587 -0.2157
16151W        W32285  13.370   8.549  13.602  0.0110 -0.2226  0.1347
16152W        W32286  10.515   6.607  13.529 -0.0469 -0.1829 -0.1616
16153W        W32287  10.213   5.127  12.157 -0.0251 -0.1488  0.1454
16154W        W32288  16.423  16.623   1.703  0.0654  0.1720 -0.1374
16155W        W32289   3.737  12.079   2.070  0.1080 -0.2069  0.2645
16156W        W32290   0.646  16.840   2.188  0.0686  0.2620 -0.0075
16157W        W32291   6.761  15.030  11.041  0.1551  0.0068 -0.2831
16158W        W32292  11.319  15.843   4.016  0.1681  0.2744 -0.0914
16159W        W32293   5.631   7.663   1.129  0.3159 -0.1568 -0.3557
16160W        W32294  10.344  12.126   0.994 -0.1490  0.3146  0.2135
16161W        W32295   5.609   4.652   1.602 -0.1984  0.1856 -0.1817
16162W        W32296   9.585  14.043   1.673 -0.0022  0.3348 -0.0049
16163W        W32297   5.687   7.302   1.698  0.3041 -0.0667  0.1358
16164W        W32298   4.433  15.170  10.803 -0.1224  0.0958 -0.1053
16165W        W32299   5.412  10.360   2.627  0.3110 -0.2235 -0.0874
16166W        W32300  13.074   1.307  13.611  0.1358 -0.1321 -0.4762
16167W        W32301  13.207  13.638   3.791 -0.0707  0.1850  0.3062
16168W        W32302  18.271  16.772   0.509 -0.1365  0.2061  0.4075
16169W        W32303   8.723  18.629   3.855  0.1145 -0.0293 -0.0510
16170W        W32304   6.216  17.532   0.209  0.2887 -0.0114  0.2264
16171W        W32305   3.890  18.445  11.002  0.0359 -0.2216  0.1191
16172W        W32306  14.928   4.722   1.830 -0.1708  0.2675  0.2726
16173W        W32307   8.353  16.118   5.234 -0.0743  0.0392 -0.0205
16174W        W32308   0.567   1.145   0.449 -0.1750  0.3985  0.0301
16175W        W32309   5.699   3.681   3.627 -0.1767  0.1840  0.2550
16176W        W32310  13.889   0.793  10.854  0.0020 -0.1296 -0.0752
16177W        W32311   0.634   4.738  14.663 -0.1413  0.2464  0.1529
16178W        W32312   0.634  12.018   2.072 -0.1639 -0.1017  0.1765
16179W        W32313   7.426   0.992  13.503  0.0039  0.2185 -0.0279
16180W        W32314  10.935   6.800   0.231  0.0286 -0.1422 -0.2576
16181W        W32315  15.478   7.333  12.413  0.0068  0.0486 -0.0494
16182W        W32316   7.694   9.966  15.077  0.1806  0.2826 -0.2271
16183W        W32317  14.583  15.147  12.022 -0.3589 -0.3597 -0.0221
16184W        W32318  12.233   5.981  10.877  0.2093  0.3029  0.0228
16185W        W32319  13.589  14.616  11.114  0.0269 -0.1513  0.2069
16186W        W32320  12.827   5.370  12.370 -0.2701  0.0732 -0.0493
16187W        W32321   2.951  13.574  15.402 -0.2549  0.0599 -0.0070
16188W        W32322   3.329   9.200  11.979  0.4198 -0.0129 -0.1122
16189W        W32323   2.814   5.322   2.705  0.1314  0.1706  0.0502
16190W        W32324  13.362   6.555   5.391 -0.0381 -0.2989 -0.1227
16191W        W32325   1.265  10.802   2.403 -0.0059 -0.0804  0.4181
16192W        W32326  10.355  10.563  12.619 -0.0916  0.0650 -0.0842
16193W        W32327  10.150   1.473  11.390  0.2108 -0.0965 -0.1614
16194W        W32328   0.413  11.927  14.507  0.1578  0.1735  0.1668
16195W        W32329  17.497  15.066  13.376 -0.1142 -0.0557 -0.0379
16196W        W32330   0.050   3.293  12.966  0.0615  0.1763  0.2032
16197W        W32331  12.950   6.020  10.293 -0.4922 -0.3123  0.3860
16198W        W32332  15.714   0.571   2.334  0.1902 -0.3770 -0.1066
16199W        W32333   8.127   1.856   2.387 -0.0955 -0.0745  0.1551
16200W        W32334  14.818   5.727   1.341 -0.1594 -0.0409 -0.0210
16201W        W32335   2.682   5.015   5.014 -0.0083  0.2299 -0.1451
16202W        W32336  16.702   5.853   4.098  0.0200 -0.2993  0.0427
16203W        W32337  17.945  12.462   2.320  0.1026 -0.3344 -0.2697
16204W        W32338   4.781  12.798  13.658  0.0864 -0.3552  0.2177
16205W        W32339  12.907  15.582   1.387 -0.5532  0.2519 -0.1900
16206W        W32340  15.418  12.256  12.534 -0.0988 -0.1357 -0.1460
16207W        W32341   6.006  13.520   1.451 -0.2371 -0.0606 -0.0923
16208W        W32342   9.269   2.467   1.346  0.0587 -0.0300 -0.3266
16209W        W32343   2.189   4.524   3.421 -0.2246  0.0622  0.1124
16210W        W32344   6.419  11.888  11.075  0.1352  0.3019  0.0076
16211W        W32345  10.560   7.126   2.395 -0.5711 -0.2126 -0.0579
16212W        W32346  10.187   9.660  13.852  0.0651 -0.1184  0.0853
16213W        W32347   9.052   2.621  12.576  0.0783 -0.0770 -0.3600
16214W        W32348   9.195  16.960  12.221  0.0784 -0.3361 -0.0253
16215W        W32349   0.659   8.002  12.597 -0.0525  0.2905  0.1686
16216W        W32350  14.871   7.516  13.699  0.3553 -0.0928  0.3767
16217W        W32351  11.232  12.280   4.583  0.0720  0.0508 -0.1784
16218W        W32352   1.639   6.881  11.390 -0.1435  0.0476 -0.0194
16219W        W32353   9.893   3.583  14.425  0.1821  0.3707 -0.0527
16220W        W32354   5.747  12.946   2.672 -0.0568  0.0164  0.1084
16221W        W32355  14.164   5.220   0.633  0.2747 -0.0269 -0.2699
16222W        W32356   9.025  15.875  10.875  0.2074 -0.0191 -0.0967
16223W        W32357  17.422  14.827  10.946 -0.1480  0.2048  0.1118
16224W        W32358  16.932   2.264  13.880 -0.4784 -0.2394 -0.1845
16225W        W32359   8.884  13.818   3.307  0.0251 -0.0162  0.0202
16226W        W32360   4.176   8.609  12.543 -0.0601 -0.0454 -0.1135
16227W        W32361   2.317   6.536  12.840  0.0526 -0.0731  0.2176
16228W        W32362  16.060   3.925  15.156 -0.0057  0.0422  0.1506
16229W        W32363  10.240  15.318   0.558  0.2425 -0.0531 -0.2691
16230W        W32364  14.154  12.001   1.933  0.0554  0.0521  0.1385
16231W        W32365   7.581  14.724   0.508 -0.1556  0.0184  0.0653
16232W        W32366  10.806   2.625   0.413  0.1332  0.3768  0.0501
16233W        W32367   0.000   6.913   3.580  0.1631  0.1317  0.1699
16234W        W32368  12.037  13.570  13.901 -0.1189  0.0438  0.0119
16235W        W32369  18.455   2.127   4.697  0.0036  0.0862  0.3685
16236W        W32370  17.769  11.627   4.522  0.1806  0.2407 -0.1063
16237W        W32371   1.121   1.486   3.123  0.0593 -0.1779 -0.0217
16238W        W32372   4.079   2.916  11.119 -0.1295 -0.0120 -0.2579
16239W        W32373  11.593  17.066   0.074  0.1489  0.0785 -0.0435
16240W        W32374   1.440   5.006  13.998  0.1107  0.1522  0.1629
16241W        W32375  11.386   1.782  12.044 -0.0910 -0.0994 -0.2349
16242W        W32376  12.625   7.523  11.645  0.0965  0.2327  0.2330
16243W        W32377  15.511  17.229   0.008  0.2631  0.1405 -0.0832
16244W        W32378   7.292  13.374   4.061  0.1566 -0.3589  0.1074
16245W        W32379   0.935   0.889   3.206 -0.0607  0.3774  0.0533
16246W        W32380   8.215   2.262  15.351  0.3530 -0.0792  0.2995
16247W        W32381  12.990  15.958  10.981  0.2200 -0.1542 -0.1581
16248W        W32382   0.494  14.691  12.544 -0.0806  0.0925 -0.0052
16249W        W32383  16.951  15.549  10.759 -0.2185  0.0214 -0.1065
16250W        W32384   4.922   0.560  11.387 -0.1270 -0.5866  0.1288
16251W        W32385  15.476   7.481   0.923 -0.4190 -0.1839 -0.4402
16252W        W32386   4.128   0.697  15.294  0.1652 -0.3532 -0.2372
16253W        W32387   5.876  11.507   5.451  0.1106 -0.2747  0.0366
16254W        W32388   9.172   5.074   0.159 -0.0167 -0.0259  0.2560
16255W        W32389  17.417   9.170  12.077 -0.1971 -0.1187  0.1523
16256W        W32390   4.922  18.451   1.172  0.0035 -0.2264  0.1144
16257W        W32391  15.526  16.202  14.364  0.1396 -0.1321  0.1499
16258W        W32392   9.698  17.696  12.703  0.2132 -0.3088 -0.2485
16259W        W32393  11.406   3.279   3.030  0.1786 -0.3399 -0.2270
16260W        W32394  16.447   3.785  10.570  0.0867 -0.0772  0.0410
16261W        W32395  17.840  15.082  14.409 -0.1403  0.2104 -0.1449
16262W        W32396   9.983  13.531   0.853 -0.0214  0.0216 -0.1055
16263W        W32397  13.919   3.379  13.944 -0.1880  0.0100 -0.0876
16264W        W32398  10.524   3.592  14.366 -0.0481 -0.1004 -0.1474
16265W        W32399  13.758   8.092  14.839  0.0507  0.1231  0.1462
16266W        W32400   6.757   0.228   5.159  0.2008 -0.1024 -0.1024
16267W        W32401  17.483   5.751   4.082  0.2511  0.0764 -0.1725
16268W        W32402  12.928   1.279   1.864 -0.1615 -0.1685 -0.2171
16269W        W32403  15.246  18.725  10.776 -0.0175  0.0940  0.0735
16270W        W32404   0.610  18.731  11.765  0.1419 -0.0175  0.3628
16271W        W32405  10.609   6.188  15.163  0.3554  0.2358 -0.0927
16272W        W32406  14.797  15.308  12.517 -0.2110 -0.0831  0.2030
16273W        W32407  17.456   9.735  14.006 -0.3002  0.1057  0.0377
16274W        W32408   1.575  13.374  15.168  0.1638 -0.1526 -0.1622
16275W        W32409   2.725   2.942  10.700  0.2675 -0.1041  0.0181
16276W        W32410  11.898   8.118   0.557 -0.0444  0.0109 -0.2172
16277W        W32411  16.009  11.718   3.898  0.2253  0.3100  0.1552
16278W        W32412  13.016  15.858   2.330  0.0534  0.0351  0.0065
16279W        W32413  15.717   4.222   3.957  0.4223  0.0342  0.0179
16280W        W32414  12.171   5.011   1.624 -0.0324  0.0714 -0.0192
16281W        W32415  15.110  17.379   1.493 -0.0386 -0.1398 -0.0704
16282W        W32416  17.009   0.114   3.485  0.0258  0.2266  0.2142
16283W        W32417  12.751  15.245  12.068 -0.2642  0.0171  0.1219
16284W        W32418   0.939   9.265  15.048 -0.1482  0.2600 -0.5327
16285W        W32419   3.085   2.967   5.686  0.3411  0.0708  0.0233
16286W        W32420   2.151   2.573  14.548  0.1761 -0.1280 -0.2297
16287W        W32421   5.513   5.995   4.722 -0.0360  0.0224 -0.3998
16288W        W32422  15.065  13.419   4.038  0.2393 -0.0157  0.1496
16289W        W32423   7.898   2.461  14.502  0.1622 -0.1907  0.2519
16290W        W32424  13.419  12.801  12.210  0.0024  0.1988 -0.0033
16291W        W32425  12.020   4.004  13.206 -0.1247  0.0387 -0.2164
16292W        W32426  10.556   5.328   4.466  0.0599  0.0366 -0.0879
16293W        W32427   9.069  14.155  11.642 -0.2626  0.1239 -0.0735
16294W        W32428   3.348   0.039   2.946 -0.3263 -0.1938 -0.0715
16295W        W32429   0.722  16.422   4.650  0.2278  0.1225  0.2284
16296W        W32430  18.404  11.513   4.510 -0.2254  0.1862 -0.0890
16297W        W32431   3.526   0.425   3.976  0.1166  0.0592  0.5471
16298W        W32432   4.096   3.958   5.086 -0.0874  0.1936  0.3494
16299W        W32433   5.298   6.610   3.808 -0.1605  0.1778  0.1998
16300W        W32434  16.415  12.824   0.047  0.0657 -0.0092  0.4209
16301W        W32435  15.270   6.582  11.068 -0.1094 -0.0924 -0.2006
16302W        W32436  15.595   5.357  12.029  0.2584  0.1924  0.3068
16303W        W32437  17.079  17.588  12.800 -0.0161  0.0222  0.2586
16304W        W32438   0.394   0.372   4.714 -0.3857  0.0223  0.1480
16305W        W32439   5.031  14.627  11.937  0.1728  0.0915  0.1124
16306W        W32440  15.013  17.135  11.490  0.0048 -0.1881 -0.3689
16307W        W32441  14.254   8.622  11.181  0.1771  0.0360 -0.1660
16308W        W32442   7.757  18.439   2.756  0.4261  0.0752  0.3850
16309W        W32443   2.579   4.589   0.537  0.4225  0.4157  0.0746
16310W        W32444  15.750  17.318  13.099  0.1022 -0.0399  0.0091
16311W        W32445   5.276   3.441   4.428  0.3628  0.0459 -0.0424
16312W        W32446  16.004  18.064   0.810  0.0819  0.0763  0.0537
16313W        W32447  12.075  14.348  14.549 -0.0654  0.1074  0.0681
16314W        W32448  10.331   2.873   4.176  0.3646 -0.1251  0.4182
16315W        W32449   4.776   5.116   0.185  0.1243  0.0981 -0.3469
16316W        W32450   2.878  10.932   1.061 -0.1526 -0.0845 -0.0873
16317W        W32451  14.531  13.106   1.147 -0.1546  0.0420  0.0132
16318W        W32452   9.977   4.148  14.410 -0.0631 -0.1373 -0.0170
16319W        W32453  15.220  17.152   5.781 -0.1514 -0.0198 -0.3176
16320W        W32454   6.662   2.328  12.006  0.2109 -0.2072 -0.3319
16321W        W32455   2.233  10.317  11.333  0.0165  0.0632  0.0200
16322W        W32456   5.850  15.651   1.370 -0.1614 -0.5284  0.2516
16323W        W32457   6.167   6.913   2.517 -0.0579 -0.2440 -0.0900
16324W        W32458   7.386  12.920   0.545  0.1231  0.0039  0.2536
16325W        W32459   3.734  10.180   2.556  0.1050  0.0545 -0.2601
16326W        W32460   4.717   1.974  14.081  0.0856  0.2148 -0.2000
16327W        W32461  12.726  13.854  12.309 -0.1604 -0.0187  0.0301
16328W        W32462  18.588   8.422  14.524 -0.0876 -0.2128 -0.2280
16329W        W32463   9.243  10.861  14.316  0.1453 -0.3413  0.1178
16330W        W32464  17.295  11.328   0.091 -0.0406 -0.1503  0.0763
16331W        W32465   5.228   8.725   0.791 -0.1497  0.1044 -0.2484
16332W        W32466  14.317   0.842  10.606 -0.1749 -0.0327  0.0069
16333W        W32467   0.688  11.077  11.870  0.0588 -0.0225  0.2344
16334W        W32468  11.730  10.637  10.439  0.0687 -0.1962  0.1327
16335W        W32469   7.272  15.624  14.150  0.1406  0.1125  0.0236
16336W        W32470  14.202   1.497   1.821 -0.2164  0.0644  0.0172
16337W        W32471   3.062   9.711   0.593 -0.2079  0.0518 -0.0774
16338W        W32472   8.595  14.232   0.199 -0.3591  0.1302 -0.0983
16339W        W32473  12.707   7.946  14.612  0.1241  0.1194 -0.1391
16340W        W32474   4.551   5.260  13.547 -0.1097  0.1943 -0.0006
16341W        W32475  10.968   6.432  13.713 -0.1795 -0.1150  0.0579
16342W        W32476  16.014  18.567  10.682  0.2011 -0.3013 -0.0956
16343W        W32477  17.709  15.654   4.089 -0.0760 -0.4798 -0.0772
16344W        W32478   5.576   0.826   3.387  0.1516  0.1535 -0.0055
16345W        W32479   1.438   6.953   3.385  0.0513 -0.3008  0.0756
16346W        W32480  10.079   2.322   3.840 -0.2567 -0.1969  0.3303
16347W        W32481   0.494   9.516  15.171 -0.2135 -0.3975 -0.1336
16348W        W32482   9.648  15.750   3.017 -0.0725 -0.0538  0.0877
16349W        W32483  15.018   2.819   1.586  0.0468  0.2051  0.0014
16350W        W32484  15.851   0.681  14.748  0.1342  0.2472 -0.1982
16351W        W32485  10.715   9.917   0.225  0.0075  0.3312 -0.0010
16352W        W32486   2.978   1.011   0.667 -0.3152  0.0893  0.1816
16353W        W32487  17.177   7.861   3.297  0.1419 -0.2271  0.0768
16354W        W32488   1.224   5.222  14.589  0.0821  0.1580 -0.1317
16355W        W32489  13.204   8.595  14.117  0.3130  0.5292  0.2274
16356W        W32490   3.348   8.194   2.248  0.0846  0.1705  0.1015
16357W        W32491  14.237   7.562  15.555 -0.0258  0.2798 -0.0618
16358W        W32492  12.598  15.739  13.058 -0.0252  0.0962  0.0054
16359W        W32493   9.905  17.143  15.510  0.0242 -0.0170 -0.1280
16360W        W32494   5.508  16.603   1.876 -0.1522  0.2786  0.1697
16361W        W32495   5.939  17.500   1.054 -0.0448 -0.1200  0.1279
16362W        W32496   7.028  16.348  11.130 -0.4108  0.1356  0.3489
16363W        W32497   1.660   4.237  13.251  0.0242  0.0604  0.1237
16364W        W32498   3.848   8.450  13.859 -0.1614 -0.2588  0.0526
16365W        W32499   7.996  15.924   1.557  0.2893  0.0528 -0.1718
16366W        W32500  14.916   9.552   4.425  0.2529  0.0706  0.0397
16367W        W32501   6.225   3.769   5.300  0.1313 -0.2004 -0.3690
16368W        W32502  11.337   2.246  14.124  0.3388  0.1287 -0.0266
16369W        W32503  14.749   4.364  10.846 -0.5122  0.0291 -0.1085
16370W        W32504   2.949  15.102   1.291 -0.1107  0.0395 -0.1004
16371W        W32505  13.408   6.542  14.390  0.1107  0.0992 -0.2337
16372W        W32506  17.557  12.047  13.658 -0.1730  0.0326 -0.1154
16373W        W32507  16.995   8.125   2.084 -0.0973  0.3472  0.1668
16374W        W32508   3.238   2.226  14.447  0.1355  0.1322 -0.2608
16375W        W32509   3.309   4.108  15.487  0.1311  0.2308 -0.0369
16376W        W32510  16.366   7.506  13.684  0.0068 -0.0369 -0.1376
16377W        W32511  12.994   2.929  11.595  0.0189  0.1080  0.0474
16378W        W32512  10.258  13.509  15.116 -0.0495  0.3796 -0.2814
16379W        W32513  12.456  11.659   3.641  0.2585 -0.0654 -0.0705
16380W        W32514   1.260  11.200   2.714 -0.1912  0.3331 -0.0121
16381W        W32515   6.926  16.601   3.492  0.0633 -0.2616  0.2498
16382W        W32516  11.254  11.085  13.246 -0.0249 -0.0747 -0.2070
16383W        W32517   0.464   7.907   2.133  0.1859 -0.1942  0.2124
16384W        W32518   7.233   0.098   5.230 -0.0910 -0.0567  0.0920
16385W        W32519   8.400  10.323   1.126  0.1893 -0.1791  0.2096
16386W        W32520  18.442   5.475   4.906  0.1492 -0.0207 -0.0559
16387W        W32521   6.417  17.063   5.039  0.0728  0.0716  0.0969
16388W        W32522   4.301  15.982  11.424 -0.0773  0.0812  0.0189
16389W        W32523   8.051  15.052   1.715  0.1009  0.0300  0.2321
16390W        W32524  16.838  11.076  12.251 -0.1736  0.1067  0.1888
16391W        W32525  15.413   5.120   0.334  0.1836 -0.1537 -0.0961
16392W        W32526  13.425  11.275  12.226  0.3405  0.2307 -0.0323
16393W        W32527  14.169  17.077  12.347  0.2097 -0.0319  0.0550
16394W        W32528  15.451   4.647   1.680 -0.0688  0.5590 -0.0451
16395W        W32529  16.850   1.529  10.589  0.1649  0.2413  0.2636
16396W        W32530   5.055   5.194   0.660  0.0621 -0.0047 -0.2207
16397W        W32531   1.724   0.150   1.440 -0.0768 -0.0720  0.0058
16398W        W32532  11.444   6.221   2.443  0.0271  0.0583 -0.3203
16399W        W32533   4.300  18.206   2.251  0.2352  0.2530 -0.0998
16400W        W32534   7.249   7.006  14.083 -0.1868 -0.2523  0.0815
16401W        W32535  16.512  14.673  12.458  0.0316 -0.3539  0.0894
16402W        W32536   7.772  13.922  13.710 -0.1106 -0.1434 -0.1892
16403W        W32537   1.404  10.331  10.023  0.0692 -0.2902  0.1785
16404W        W32538   9.001   9.203  12.855 -0.1534 -0.1054  0.4266
16405W        W32539   1.991  12.018  13.559 -0.1771 -0.2047 -0.0267
16406W        W32540  16.900   2.570  11.443 -0.0079 -0.4244 -0.1358
16407W        W32541   3.843   4.865   2.257 -0.0923 -0.1935 -0.0137
16408W        W32542   8.208  14.028  13.418 -0.3289  0.2431 -0.0514
16409W        W32543   9.313  13.226   0.207 -0.1087 -0.0699 -0.1405
16410W        W32544   8.977  15.433  14.666  0.0238 -0.2747 -0.2070
16411W        W32545   2.608  13.972   1.009 -0.0303 -0.0121 -0.1038
16412W        W32546   5.734   9.171   0.348 -0.0833  0.3907 -0.0193
16413W        W32547  17.649   7.738  15.228  0.4249  0.0888  0.1167
16414W        W32548   4.287   5.995  11.215 -0.1631  0.0793 -0.2005
16415W        W32549  11.904   2.267   2.963  0.0341  0.0379 -0.0749
16416W        W32550   4.240   2.062   4.694  0.1339 -0.0537  0.0096
16417W        W32551   0.896  13.376   2.479  0.0283  0.2999  0.2225
16418W        W32552   0.134   9.740  15.554 -0.2425 -0.1528  0.1474
16419W        W32553   8.153   9.653  14.188  0.5014 -0.0236  0.0706
16420W        W32554   2.049   9.013  14.136  0.0890 -0.0117  0.0728
16421W        W32555  16.751  10.207   1.330 -0.2374 -0.0943 -0.4113
16422W        W32556   6.748  18.284   4.533  0.0458  0.3085  0.1091
16423W        W32557   8.699   7.640  13.808  0.2771 -0.1975 -0.0135
16424W        W32558   9.936  10.249  11.636  0.3472  0.1207 -0.1752
16425W        W32559   7.401   9.404   5.075 -0.0655  0.1571 -0.3001
16426W        W32560   5.721  18.558  15.201  0.0435  0.2723  0.0535
16427W        W32561  17.506   6.020  15.564 -0.1190 -0.2240  0.6202
16428W        W32562  16.372  10.329   3.898  0.0274 -0.1150 -0.1323
16429W        W32563   2.093   3.222   4.173  0.0510 -0.0683 -0.3650
16430W        W32564   9.534   3.281   0.754 -0.2206 -0.0075  0.2392
16431W        W32565   5.211   4.066   2.001  0.1628  0.0835 -0.2256
16432W        W32566   3.493  10.339  12.666  0.2004  0.0650 -0.1992
16433W        W32567   2.984  16.608   4.100 -0.0312 -0.3859  0.2332
16434W        W32568   7.323   2.223  11.942  0.1787  0.2476  0.0348
16435W        W32569   0.875  17.339   2.385 -0.0425 -0.3385  0.2001
16436W        W32570  15.525   2.784  12.640  0.0543 -0.0616 -0.3081
16437W        W32571  15.759   8.513  13.706 -0.0958  0.2657  0.1318
16438W        W32572  16.420   6.234   1.955 -0.0666  0.0279 -0.0338
16439W        W32573   9.141  14.133   1.920 -0.0171  0.3512  0.3341
16440W        W32574   9.500   4.412  11.649  0.1539 -0.0477  0.0921
16441W        W32575  17.019  12.595  11.533  0.0414 -0.0845  0.0112
16442W        W32576   3.055  13.099  15.265  0.0224  0.0752  0.1186
16443W        W32577   6.037  10.775  15.498  0.1092 -0.0601 -0.0626
16444W        W32578  15.054  15.082   2.858 -0.0922 -0.0302 -0.2476
16445W        W32579   5.679   7.786   1.660  0.0627 -0.0013  0.1351
16446W        W32580  18.192  17.449  10.533 -0.1829  0.1156 -0.0119
16447W        W32581  12.998  10.700  12.954  0.2557  0.0270 -0.2693
16448W        W32582   9.282  17.671  15.567  0.0869 -0.0680 -0.5728
16449W        W32583   7.280  16.138  12.525  0.0799  0.1261 -0.1606
16450W        W32584   3.777   2.572   4.966  0.1737 -0.3361  0.0339
16451W        W32585  15.007  15.158   9.825 -0.2961  0.2242 -0.0937
16452W        W32586  12.634   1.737   5.579 -0.0425  0.0770  0.3191
16453W        W32587  18.631   8.734   2.094  0.1611  0.0924 -0.0450
16454W        W32588  16.463   7.896  14.522 -0.0560 -0.2904  0.4710
16455W        W32589  10.547   1.095  12.921 -0.0532  0.1643 -0.0751
16456W        W32590  16.254  17.492   1.571  0.0175  0.3520 -0.0426
16457W        W32591   0.159   8.061   3.339 -0.0200  0.0025 -0.2348
16458W        W32592  18.060   5.726  10.221  0.1069 -0.4146 -0.0147
16459W        W32593  11.528   9.506   4.615  0.1763 -0.2304 -0.1261
16460W        W32594   9.364  12.018  15.538  0.0052  0.0529  0.0166
16461W        W32595   1.574  13.879   1.594 -0.0400 -0.0152  0.2703
16462W        W32596   1.872  15.310   3.622 -0.1882  0.0807 -0.0026
16463W        W32597   2.977   3.091   2.166  0.2426  0.0319  0.3473
16464W        W32598  13.951  16.701  14.818 -0.3445 -0.3830 -0.1325
16465W        W32599  17.807  17.789  11.846  0.0431 -0.1138 -0.0021
16466W        W32600  14.475  16.642  12.644 -0.0991  0.0862 -0.1600
16467W        W32601   3.624  11.861   1.601 -0.2545  0.2284  0.1222
16468W        W32602   5.059   4.300  15.464 -0.0962 -0.2464 -0.4038
16469W        W32603   3.505   0.203  11.847  0.2016  0.0454 -0.0504
16470W        W32604   7.439  12.590   1.911  0.2505 -0.1692 -0.0250
16471W        W32605   3.586  10.849  15.556 -0.0876 -0.1629  0.0268
16472W        W32606   8.395   6.801   4.701 -0.0558  0.0274 -0.1036
16473W        W32607   3.915  17.779  10.394 -0.0288 -0.1757 -0.1337
16474W        W32608   5.834   3.683   1.629  0.1755  0.1808 -0.2012
16475W        W32609  14.061   5.260   2.785  0.0790 -0.1683  0.4699
16476W        W32610   1.932  17.243   1.972 -0.0218  0.1862 -0.0069
16477W        W32611   0.559  18.645   3.969  0.0314 -0.2684 -0.2382
16478W        W32612  14.566  18.108   0.653 -0.1697  0.0079  0.0066
16479W        W32613  12.545   9.609   5.095 -0.0318 -0.1768  0.0803
16480W        W32614  17.920   6.514  12.473  0.1263 -0.2001  0.0765
16481W        W32615   0.635  16.161  10.563  0.1358 -0.1043 -0.1137
16482W        W32616  15.257  13.819   0.184  0.1563 -0.0579  0.0683
16483W        W32617   9.027   4.072   5.871 -0.0715  0.0676  0.0656
16484W        W32618  16.331   3.600   0.801 -0.0664 -0.0508  0.3866
16485W        W32619   1.075  10.785  12.009  0.1393  0.0237 -0.1924
16486W        W32620  15.861   8.497  10.850 -0.1467 -0.0656  0.0915
16487W        W32621  14.589  15.928   4.410 -0.1145 -0.1484  0.2230
16488W        W32622   5.626  14.254   4.428 -0.1430 -0.1310 -0.0765
16489W        W32623  16.412  15.078   4.787 -0.2190 -0.0785 -0.0885
16490W        W32624   6.861   9.924   4.967  0.0796 -0.1133  0.0396
16491W        W32625  15.682  11.755  13.810  0.0867  0.2002 -0.2639
16492W        W32626   4.376   9.690   1.048  0.0336  0.2490  0.1513
16493W        W32627   5.537  12.929  14.974  0.1174 -0.2496  0.4107
16494W        W32628  14.639  10.590   0.447  0.2819 -0.0398 -0.3388
16495W        W32629   3.254  16.410   3.618 -0.1443  0.1888  0.1228
16496W        W32630  17.494  10.464  12.022 -0.0523 -0.1716 -0.1906
16497W        W32631   7.299  11.267   2.055  0.0149  0.3029 -0.0545
16498W        W32632   4.997  18.722   3.467 -0.3027  0.2482 -0.0392
16499W        W32633   2.904  15.942   2.425 -0.0703  0.0463 -0.2210
16500W        W32634   8.952  17.572  11.447  0.2356  0.2369 -0.0599
16501W        W32635   2.348   0.549  12.037 -0.4968  0.0122 -0.0479
16502W        W32636  11.829  12.502   4.646 -0.2813  0.3275  0.1116
16503W        W32637  14.177   7.268  12.714 -0.2066  0.0198 -0.0600
16504W        W32638   3.343  17.846  14.243  0.1165 -0.0550 -0.2044
16505W        W32639  11.432   5.025   3.822  0.0257 -0.0672 -0.0314
16506W        W32640   3.506  14.514   2.260 -0.1971  0.1061  0.1944
16507W        W32641  14.692  15.242  15.417  0.0474  0.1196 -0.1048
16508W        W32642  13.686   6.090   1.707  0.3026 -0.0465 -0.0647
16509W        W32643   6.983  10.004   3.293  0.1831  0.0937 -0.0755
16510W        W32644   8.940  18.140   2.123  0.1087  0.0635 -0.1236
16511W        W32645  12.190  15.110  14.340  0.0950  0.1514 -0.1687
16512W        W32646  13.402   2.942  14.243  0.2630 -0.0807 -0.2368
16513W        W32647  14.050  10.687   3.746 -0.2265 -0.0939  0.0007
16514W        W32648   6.020   7.792  13.381  0.2643 -0.1946  0.0663
16515W        W32649  16.623   2.411   1.618  0.0611 -0.2966  0.1622
16516W        W32650  10.251   3.107  13.074  0.1907 -0.0675  0.1481
16517W        W32651  11.715   2.191   0.963 -0.1935 -0.1063 -0.1233
16518W        W32652  11.072  16.706  13.456 -0.2369 -0.0313  0.0339
16519W        W32653   1.405   5.181   4.990 -0.3206 -0.0664 -0.0147
16520W        W32654  18.710  12.377  15.463 -0.1893  0.1017  0.3882
16521W        W32655  12.901  18.436   1.551 -0.4329 -0.1887  0.0004
16522W        W32656  12.935  12.599   3.735  0.0502 -0.1643 -0.0579
16523W        W32657  15.737   8.535   2.623 -0.1147 -0.0320 -0.1079
16524W        W32658  14.137  11.331  13.388  0.2574  0.1670  0.2430
16525W        W32659   0.910  11.010  13.304 -0.0732 -0.1140  0.0183
16526W        W32660  12.712   7.355  14.437 -0.1249 -0.0199  0.0756
16527W        W32661  10.502   1.795  15.283  0.0998  0.1497 -0.5657
16528W        W32662  12.691   2.912  12.028 -0.1347  0.1589 -0.0181
16529W        W32663   2.630   2.841  11.148 -0.1331  0.3432 -0.1365
16530W        W32664   0.066   4.213   4.623  0.0017 -0.0335  0.2607
16531W        W32665   0.107   0.097   3.930 -0.1626 -0.1605 -0.2084
16532W        W32666   2.646   9.241  11.825 -0.2400 -0.3360 -0.0366
16533W        W32667   3.484  12.838  12.672  0.0816 -0.2218 -0.1063
16534W        W32668   8.959   4.737   3.070 -0.1877  0.1106  0.2224
16535W        W32669   5.260  17.426   1.341 -0.0721 -0.2768  0.0377
16536W        W32670  14.282  16.285  12.320  0.0837  0.1346 -0.6225
16537W        W32671  17.890   9.162   5.451  0.0551 -0.0537  0.0426
16538W        W32672  14.802  17.469   9.547  0.1650  0.0349  0.1457
16539W        W32673   4.786   0.276  12.990  0.1385 -0.3195 -0.2020
16540W        W32674   0.825   8.123   1.066  0.0728  0.1876  0.2322
16541W        W32675  11.495   6.408  11.089 -0.2995 -0.0114 -0.0056
16542W        W32676  11.310   1.527  11.612  0.2414  0.2647  0.0894
16543W        W32677   0.416  14.162  15.119 -0.0099 -0.1806 -0.3696
16544W        W32678  13.040  13.536   4.350  0.0152 -0.0233 -0.0258
16545W        W32679   1.959   4.934  13.648  0.0561 -0.2585 -0.1599
16546W        W32680  18.629  14.283  15.254 -0.1164  0.1323 -0.1557
16547W        W32681  18.207   9.544   0.464 -0.0770  0.2485  0.2169
16548W        W32682   1.863  14.910   2.253 -0.0317 -0.0820  0.0201
16549W        W32683  14.242  14.258  13.651  0.0670 -0.0332  0.0341
16550W        W32684   8.673   3.590  12.960  0.0788 -0.0773 -0.0984
16551W        W32685  16.018   6.773  14.045 -0.4091 -0.2151 -0.0870
16552W        W32686   9.234   2.362   2.085  0.3457  0.1314 -0.2767
16553W        W32687   3.752   2.532  12.110 -0.1032 -0.0278  0.0762
16554W        W32688  17.140   3.104  11.485 -0.1407 -0.1163 -0.0326
16555W        W32689   9.517  17.087   3.479  0.0087  0.1148 -0.1805
16556W        W32690   5.954   9.589   2.212  0.0038 -0.2078 -0.0842
16557W        W32691  14.185   5.555  13.414  0.1595  0.1648 -0.2186
16558W        W32692  16.541  10.348   1.744  0.3918  0.0005  0.2071
16559W        W32693  11.131   3.212   2.572  0.1589  0.2049  0.1974
16560W        W32694  14.675   0.459  13.319  0.4312  0.1722  0.2992
16561W        W32695  14.329  14.491  10.426  0.1988  0.0117  0.1832
16562W        W32696   7.301  10.177  15.255  0.4295  0.1826  0.0125
16563W        W32697   1.743   7.432  12.020  0.0385 -0.1209 -0.0201
16564W        W32698   9.313   2.572   2.705 -0.0487 -0.0096  0.4191
16565W        W32699  11.665  11.323  14.559  0.2008  0.3686  0.2204
16566W        W32700   2.986   1.412  14.183 -0.0626  0.1979 -0.1196
16567W        W32701   8.509  16.694   2.237  0.3474  0.0791 -0.1862
16568W        W32702   3.793   8.701  12.913 -0.1321  0.0683  0.4507
16569W        W32703   3.561  17.606   0.831 -0.0404  0.0654 -0.0892
16570W        W32704   2.624   1.299   4.252  0.2810  0.0175  0.1955
16571W        W32705  13.593  14.195  10.706 -0.0109  0.2008  0.1724
16572W        W32706  15.918  18.650   3.167  0.0559 -0.0547  0.0808
16573W        W32707  11.893   7.834   6.077 -0.1242 -0.1123 -0.2204
16574W        W32708   7.481   1.120  15.118  0.1999  0.1013 -0.1815
16575W        W32709   1.599   1.995   2.765 -0.3248 -0.3797 -0.0055
16576W        W32710  14.798   4.249   0.620  0.0281 -0.0719  0.2543
16577W        W32711   4.412  18.245  12.242 -0.2380 -0.3040 -0.2755
16578W        W32712   3.717   8.622   4.048 -0.0918  0.0141  0.1212
16579W        W32713  11.587   8.756  12.113 -0.0662 -0.2128 -0.2929
16580W        W32714   4.710  14.856  12.449 -0.0547  0.2498  0.0121
16581W        W32715   7.410   3.360  12.103 -0.4662  0.0638  0.0745
16582W        W32716  10.722  15.530   0.529  0.1267  0.1468  0.2490
16583W        W32717   4.158   8.579   4.741 -0.0802  0.2080  0.2923
16584W        W32718   4.301  14.546  13.175 -0.1735  0.1067  0.1724
16585W        W32719   7.676  13.884   0.362 -0.2688 -0.2839  0.0425
16586W        W32720  10.931  11.156  11.209 -0.1071 -0.0624 -0.3688
16587W        W32721   2.759  12.916   4.044 -0.0441  0.3171  0.3420
16588W        W32722   3.770  11.593  13.813 -0.0593  0.0161  0.1912
16589W        W32723  18.632   2.472   0.696  0.3918  0.3060 -0.2739
16590W        W32724   1.839   6.790   2.069 -0.2104  0.2937  0.0819
16591W        W32725   4.869   3.501  15.426 -0.0128 -0.1844 -0.0547
16592W        W32726   4.660   7.050  13.385 -0.1270 -0.1913  0.1725
16593W        W32727   2.747  16.557   2.058 -0.2856  0.0148  0.2369
16594W        W32728   6.521   8.392  15.251 -0.4127 -0.0196  0.0709
16595W        W32729  15.484   5.803  15.126 -0.1126  0.0536  0.1196
16596W        W32730  15.559  17.261   3.073  0.1546  0.1207  0.2119
16597W        W32731   5.676  10.338  12.290 -0.1974  0.0215 -0.3331
16598W        W32732   4.061  15.157   2.467  0.2478 -0.0409 -0.1624
16599W        W32733   0.341  13.164   3.445 -0.3848  0.0402 -0.3667
16600W        W32734   2.607   9.871  12.537  0.1402 -0.0701 -0.0587
16601W        W32735  14.450  18.053   4.496 -0.0809 -0.0989  0.2143
16602W        W32736   9.328  12.061   1.726  0.0532  0.1250  0.2272
16603W        W32737  16.335   3.588   4.944  0.1681 -0.2266 -0.1453
16604W        W32738   4.091  12.621   5.016 -0.1746  0.0496 -0.0093
16605W        W32739   8.343   1.389   4.462  0.1815  0.5225 -0.1853
16606W        W32740  10.046   2.869  12.654 -0.0229  0.1791 -0.0386
16607W        W32741   6.632   3.174   4.374  0.1073  0.2157  0.0760
16608W        W32742  11.235  14.116  12.145 -0.1438  0.0484 -0.0216
16609W        W32743  13.443   6.381  13.627  0.0356 -0.4135 -0.0053
16610W        W32744  13.315  11.625  10.826  0.4104  0.1121  0.0495
16611W        W32745   8.541  16.473   2.875 -0.0353 -0.2545 -0.0414
16612W        W32746  11.870   7.713   4.649  0.1356  0.0217 -0.0714
16613W        W32747   1.324   8.279  12.152 -0.0322 -0.0989 -0.0311
16614W        W32748   3.252  12.975   4.047  0.4524 -0.0825  0.3133
16615W        W32749  12.265  15.470   4.242 -0.2604 -0.1619  0.1546
16616W        W32750   3.666   8.489  10.892 -0.2384  0.2105 -0.0041
16617W        W32751   9.121  11.781   0.351 -0.2112  0.0007  0.0401
16618W        W32752  10.998   5.755   3.024  0.2880 -0.1522  0.1777
16619W        W32753  14.423  11.997   4.577  0.1648 -0.1990  0.1626
16620W        W32754  17.061  18.384   4.870 -0.2032 -0.2590  0.1112
16621W        W32755  11.256   0.718  12.047  0.2587  0.0545 -0.1292
16622W        W32756  16.813  10.648  14.275 -0.0445  0.1223 -0.0761
16623W        W32757   2.762   6.548  12.578 -0.0629  0.0465 -0.0446
16624W        W32758  18.464  15.495  11.300  0.4878  0.1218  0.0578
16625W        W32759   6.496   3.354  12.507 -0.0929  0.1904  0.1719
16626W        W32760  17.932   8.611  11.818  0.0545  0.2490  0.0551
16627W        W32761  17.538   4.968  14.106 -0.0578 -0.3539 -0.4361
16628W        W32762  11.960  10.774  10.963 -0.1814 -0.1845 -0.1602
16629W        W32763  15.794   7.740   1.933 -0.1894  0.1562  0.0262
16630W        W32764   6.857  15.903  11.113  0.0928  0.0972  0.0600
16631W        W32765   5.429   8.707  12.585  0.4457 -0.1636  0.2773
16632W        W32766   2.472  14.396   0.074  0.0751  0.0132 -0.0869
16633W        W32767  12.056   7.393   5.280 -0.1127  0.0621 -0.2131
16634W        W32768  17.370   7.423   5.098 -0.0168  0.1046  0.2085
16635W        W32769   1.374   1.119  15.142  0.0261  0.1427 -0.3423
16636W        W32770   6.570  10.842  10.530 -0.2547 -0.4033 -0.0465
16637W        W32771  12.842  10.616   0.886 -0.2284 -0.3743  0.1082
16638W        W32772  15.217  16.601   2.748  0.0310 -0.6013 -0.0532
16639W        W32773   3.229  15.747   4.613 -0.1331  0.1639 -0.1119
16640W        W32774   3.579   1.249  10.572 -0.0537 -0.1014 -0.0073
16641W        W32775  14.109   3.826  14.155 -0.0252  0.1260 -0.3398
16642W        W32776   3.820  17.939  12.910 -0.2273 -0.0793 -0.0915
16643W        W32777  17.922  14.582   5.464 -0.0204 -0.0119  0.2031
16644W        W32778  16.509  14.298   3.122  0.0615 -0.0408 -0.0393
16645W        W32779   7.460   0.223   4.389 -0.1312  0.2071  0.1622
16646W        W32780   5.487   1.118   1.381  0.0037  0.0873  0.1239
16647W        W32781   6.204   0.525   0.297 -0.1632 -0.0917  0.0163
16648W        W32782  12.714  15.538   4.097 -0.1448  0.1466 -0.0632
16649W        W32783   6.552  12.902  14.601 -0.0107  0.2558  0.0352
16650W        W32784   6.874   5.041   2.568 -0.0054 -0.1987 -0.0505
16651W        W32785   8.589   8.740  11.009 -0.0441  0.0299  0.1366
16652W        W32786  11.375   0.721  12.564  0.0698 -0.4231  0.1100
16653W        W32787  13.555  17.167   0.602  0.1372  0.1819  0.0175
16654W        W32788  15.707  15.513   3.801  0.2410  0.0396  0.0468
16655W        W32789  18.680   0.472   1.176 -0.0405  0.1134  0.2776
16656W        W32790  18.512  15.216   1.506  0.2122 -0.1141 -0.1694
16657W        W32791   6.387   7.450  13.235 -0.0359 -0.0154 -0.3733
16658W        W32792  15.452   6.250   0.749  0.4067 -0.1395 -0.1467
16659W        W32793   4.133   6.319  15.315 -0.2718 -0.2524  0.4200
16660W        W32794  14.644  15.587   4.827  0.0331 -0.1876  0.1569
16661W        W32795  16.110  11.257   4.047 -0.0319 -0.2434  0.0823
16662W        W32796  12.084  14.735   0.225  0.0662 -0.1420  0.1579
16663W        W32797  18.011  13.341  12.266 -0.0653  0.0839 -0.0495
16664W        W32798   1.919   3.377  13.419 -0.1540 -0.2577  0.0203
16665W        W32799   3.265  10.382   3.907  0.3376  0.0255 -0.1336
16666W        W32800   0.432   8.602   5.391 -0.0548 -0.0434 -0.1313
16667W        W32801   4.655   5.866   4.560  0.1953  0.3727 -0.0113
16668W        W32802   0.769   6.689  12.039  0.0478  0.0268 -0.3640
16669W        W32803   8.285  10.816   2.536  0.3409 -0.1034  0.1461
16670W        W32804   2.570   0.191   0.941  0.0918 -0.0094  0.0500
16671W        W32805   3.019  17.882  13.238  0.1721  0.1668 -0.0827
16672W        W32806   2.507  11.684   2.314 -0.0778  0.1803 -0.0887
16673W        W32807  17.054  10.648  11.897 -0.0545 -0.0783 -0.0790
16674W        W32808  17.433   0.487   4.596 -0.0636  0.1368  0.3505
16675W        W32809  14.609   6.839   5.407 -0.1695  0.4451 -0.0458
16676W        W32810   1.546  10.349   0.888  0.3633 -0.1942  0.2186
16677W        W32811  11.866   9.866  12.847  0.1372  0.2037 -0.1776
16678W        W32812   5.004   8.116   4.620 -0.0138 -0.3048 -0.0656
16679W        W32813   4.335   6.318   0.482  0.0924  0.1167  0.0526
16680W        W32814  17.564  16.496  14.826 -0.0089 -0.1135  0.1566
16681W        W32815   4.089  17.929   0.845  0.0474  0.3780  0.1709
16682W        W32816  11.223  17.863  11.822 -0.2927 -0.0330  0.1228
16683W        W32817  16.245   6.233  14.860 -0.1760  0.1790 -0.0211
16684W        W32818  17.146   4.744  13.336 -0.4752  0.0917 -0.2144
16685W        W32819  16.426   5.364  13.087 -0.0611 -0.0389  0.1425
16686W        W32820   3.982   4.334   2.079 -0.2125 -0.0439  0.0216
16687W        W32821   9.519  13.315  14.710 -0.3333 -0.1094 -0.0122
16688W        W32822   7.622   6.136   1.804  0.0612 -0.0773 -0.3558
16689W        W32823   5.402   9.374  14.179 -0.2816 -0.0357 -0.2281
16690W        W32824  15.244   4.164   3.713 -0.2016 -0.0821  0.0029
16691W        W32825   1.698   5.386  11.254 -0.0189  0.0099 -0.2135
16692W        W32826   3.183   9.252   2.762 -0.0110  0.0537  0.0710
16693W        W32827   0.157   6.084   0.278  0.3860 -0.1988  0.1548
16694W        W32828   0.957  16.326   0.573  0.3020 -0.3059 -0.3026
16695W        W32829  15.295   2.752   3.454 -0.1770  0.0273  0.1547
16696W        W32830   7.500   4.624   4.420 -0.0822 -0.2043 -0.1932
16697W        W32831   8.032  15.219  15.514 -0.1273 -0.2869  0.0005
16698W        W32832   8.013  12.162  13.156 -0.2221 -0.1200  0.1325
16699W        W32833   1.444   7.912   1.120  0.1845 -0.1572 -0.1310
16700W        W32834   0.942   1.609   6.157  0.1587 -0.3150 -0.1288
16701W        W32835   0.665  18.347  13.937  0.0341  0.0728  0.1598
16702W        W32836  17.016   2.519   0.158 -0.2789  0.1206 -0.4311
16703W        W32837   4.180  13.731  10.454  0.0794  0.1445  0.0438
16704W        W32838  12.519  10.756  14.560  0.0434  0.1792 -0.2284
16705W        W32839   8.699  12.088   3.301 -0.2683  0.1059 -0.0106
16706W        W32840  13.331   3.954   2.108 -0.1530 -0.0929 -0.0576
16707W        W32841   8.249  17.289   4.533  0.1919 -0.2781  0.1620
16708W        W32842  18.420   7.454   4.767  0.1722 -0.1408 -0.0876
16709W        W32843   8.487  13.716  13.055  0.0687 -0.0380  0.0296
16710W        W32844   5.473  17.275   1.861 -0.0232  0.0128 -0.2795
16711W        W32845   0.012  16.868   4.682 -0.2655 -0.2239  0.0630
16712W        W32846   5.427   5.984  14.805 -0.0532  0.0382 -0.0292
16713W        W32847  15.117   9.830  14.380  0.1585 -0.0772  0.0432
16714W        W32848   1.176   9.055   4.428 -0.0745  0.1500 -0.0029
16715W        W32849   0.392   2.571  13.763  0.0787  0.0707 -0.0571
16716W        W32850   0.315   8.186   4.997  0.0554  0.0742 -0.0307
16717W        W32851   7.619   0.968  15.575 -0.1923  0.0894  0.1665
16718W        W32852   0.258  14.386  11.235 -0.0330  0.1083 -0.1384
16719W        W32853   0.671  11.850   0.033 -0.1281  0.1993  0.2259
16720W        W32854  17.051  14.491   3.658 -0.3322 -0.3179  0.2262
16721W        W32855   3.649   3.907   5.313 -0.2626  0.1443 -0.2836
16722W        W32856   7.148   2.369   3.903 -0.3006 -0.0582  0.1039
16723W        W32857   9.882  12.206   2.447  0.2057 -0.3844 -0.1695
16724W        W32858   1.876  16.681  15.180 -0.1989 -0.0969 -0.1042
16725W        W32859  16.097   0.957  12.344  0.1384 -0.0634 -0.0158
16726W        W32860   1.817  10.396  12.542  0.2346 -0.0788  0.4246
16727W        W32861   1.982   5.363  13.081  0.3256  0.1520  0.2915
16728W        W32862  10.430   9.889   2.299  0.3163 -0.0690 -0.2269
16729W        W32863   6.848   9.821  10.789 -0.2382  0.0498  0.2539
16730W        W32864   5.286  10.292  15.389 -0.1970 -0.0555 -0.0703
16731W        W32865  10.762  17.041  14.266 -0.0592  0.2230  0.0127
16732W        W32866  10.688   8.796   2.712 -0.0691 -0.0293  0.1405
16733W        W32867  18.357   2.118   4.213 -0.0401 -0.2263 -0.0032
16734W        W32868   8.357  12.781  13.463  0.1964  0.0255  0.0199
16735W        W32869  16.370  11.224  15.003 -0.2044  0.0751  0.0743
16736W        W32870   5.696  17.604  13.015  0.0251 -0.0930 -0.0819
16737W        W32871   5.596   3.767   2.159  0.0222  0.0347 -0.1732
16738W        W32872   2.661   2.093   3.855  0.0998  0.0748  0.1288
16739W        W32873  13.541  16.259   6.034 -0.4149  0.3931 -0.1270
16740W        W32874   7.910  10.489   1.374  0.0471 -0.2875 -0.0704
16741W        W32875   4.756  17.063   5.847 -0.0866  0.0263 -0.0848
16742W        W32876   3.951   0.651   3.753  0.3380  0.1676 -0.3390
16743W        W32877  14.800   2.775  15.394  0.0080 -0.0808  0.2449
16744W        W32878   7.122   7.473   3.677 -0.0064  0.0681  0.1294
16745W        W32879  12.976   9.670   0.304 -0.2315 -0.0910 -0.1904
16746W        W32880  15.475   8.184   4.786 -0.0254 -0.0704 -0.3350
16747W        W32881  11.971   0.522   0.466  0.0675 -0.0401  0.0426
16748W        W32882   6.075   2.585  14.311  0.0540 -0.2844  0.2357
16749W        W32883  16.277  16.137  12.202 -0.1098  0.0168 -0.0752
16750W        W32884   0.472  10.050   5.337 -0.0776  0.2023 -0.0430
16751W        W32885  11.265   9.425   1.065  0.1519 -0.2478  0.3846
16752W        W32886  10.759  14.484  12.249 -0.1173 -0.2424  0.0225
16753W        W32887  10.551  16.859   4.508  0.1873  0.1604 -0.0555
16754W        W32888   8.131   0.261   5.243 -0.0323  0.0873  0.2048
16755W        W32889   5.319  10.528   3.141 -0.0985  0.2932  0.2840
16756W        W32890  11.850  14.140   2.770 -0.1942 -0.0629  0.0680
16757W        W32891   4.653  11.955   1.789 -0.4459 -0.2761 -0.1249
16758W        W32892  15.493   5.112  13.220 -0.0012  0.0573 -0.2343
16759W        W32893   6.792   9.179   3.719 -0.2252 -0.0011  0.0285
16760W        W32894  16.394   5.108   4.619  0.0926 -0.3224  0.2172
16761W        W32895  15.238   8.750   3.148  0.1466  0.0604  0.1509
16762W        W32896  12.556  16.745  13.891  0.2733  0.0411  0.2820
16763W        W32897   0.729  16.088   1.141  0.0302 -0.1290 -0.1926
16764W        W32898   8.810  11.153   0.067 -0.0572 -0.3118  0.2512
16765W        W32899   7.595  14.012   2.194  0.0750 -0.0903 -0.1694
16766W        W32900  11.274   6.648  14.168  0.2305 -0.1789 -0.1653
16767W        W32901  16.567   3.757   2.644  0.2989 -0.1376  0.0176
16768W        W32902  17.981  11.750   2.307  0.0518  0.2658 -0.0533
16769W        W32903  16.601   9.736   1.173 -0.0818  0.2679  0.0753
16770W        W32904  10.915  10.534  12.638  0.0938  0.3124  0.3139
16771W        W32905  10.619  16.923  11.333 -0.1511  0.3570  0.1102
16772W        W32906  14.356  11.781  15.291 -0.0435 -0.0340  0.1840
16773W        W32907   1.264   7.570   0.807  0.0030 -0.0811  0.1379
16774W        W32908  10.707  15.446  10.978  0.3961 -0.3832  0.1443
16775W        W32909   0.910  13.112  13.745 -0.1523 -0.0909  0.3205
16776W        W32910  17.640   1.718   2.910 -0.0464 -0.0566  0.2512
16777W        W32911   5.332  17.870  15.401  0.0175 -0.3355 -0.0207
16778W        W32912   3.686   3.541  12.040 -0.0433 -0.1387  0.0467
16779W        W32913  11.496   4.914  10.617  0.0026  0.1224  0.0228
16780W        W32914   7.794   5.627   1.823  0.1543  0.1323  0.0459
16781W        W32915   2.447  15.147   2.055 -0.0945 -0.0969 -0.0996
16782W        W32916   2.914  17.920   1.864 -0.2489 -0.1956  0.0843
16783W        W32917   9.117  13.338   4.643 -0.1507 -0.0052  0.2448
16784W        W32918   3.395   7.942  12.175 -0.2642  0.0665 -0.1006
16785W        W32919  10.683  14.106   1.324 -0.2066  0.0542  0.0998
16786W        W32920  15.402   5.148  10.717 -0.1869  0.2120  0.0053
16787W        W32921   7.005   9.788   4.528 -0.1122  0.0114 -0.2652
16788W        W32922  12.412  17.677   4.245 -0.3166  0.4742 -0.0930
16789W        W32923   7.144   8.244   3.369 -0.1254  0.3378  0.1831
16790W        W32924  17.783   5.913  14.606  0.0726  0.0304  0.1461
16791W        W32925  11.820   7.357   9.819 -0.4512  0.0418  0.3345
16792W        W32926   6.655   5.896   5.099  0.1651 -0.1164  0.0832
16793W        W32927   1.593  15.067  10.986 -0.0931 -0.0258 -0.1245
16794W        W32928   1.197  14.222   0.862  0.1077 -0.1405  0.4108
16795W        W32929   8.970   3.205   0.811 -0.4926  0.3194  0.0322
16796W        W32930  12.374   3.819   2.150  0.2052 -0.1462 -0.0392
16797W        W32931   2.130   4.559   0.317  0.2001 -0.1440  0.1271
16798W        W32932  13.629  14.985   9.703 -0.1746 -0.2753  0.1501
16799W        W32933   8.851  17.854   3.226  0.1383  0.2021 -0.1939
16800W        W32934   6.960   4.546   3.268  0.0799  0.0804  0.1067
16801W        W32935   6.419   2.034   2.482  0.1793  0.0514 -0.1800
16802W        W32936   7.132   6.673   2.586 -0.4156 -0.1411  0.0259
16803W        W32937  11.429   5.764   2.683  0.1314  0.2098 -0.0538
16804W        W32938   7.883   4.155  10.666  0.0054 -0.3050  0.1340
16805W        W32939   2.907   4.757   2.759  0.0307  0.3211 -0.1145
16806W        W32940  13.737   2.239   5.052  0.1497  0.1265  0.0273
16807W        W32941   1.511   6.991  13.394 -0.1590 -0.0180  0.0682
16808W        W32942   4.690  13.146  14.153  0.0063 -0.1350 -0.1440
16809W        W32943   8.255   7.547  10.925  0.1631  0.2666  0.4237
16810W        W32944  16.766  17.057   5.062 -0.1400  0.0083  0.0742
16811W        W32945  12.389   5.432  13.073 -0.0024 -0.2962  0.0781
16812W        W32946   3.055   9.372   1.005  0.2361  0.4097 -0.0061
16813W        W32947  13.670  12.745   3.535  0.1428 -0.4241 -0.0773
16814W        W32948   7.613   1.320   4.792  0.0217  0.1641 -0.2273
16815W        W32949   0.963   0.499   1.611 -0.1662 -0.0321 -0.0012
16816W        W32950   4.928   5.503  15.475 -0.0319 -0.1459 -0.0139
16817W        W32951   0.549  11.705  11.333  0.1191  0.2822  0.1536
16818W        W32952   7.350  18.284   4.452 -0.0148  0.1034  0.1804
16819W        W32953   1.766  16.578   4.038 -0.0860  0.0677  0.2810
16820W        W32954   4.501   8.349   9.878  0.3588 -0.0646  0.0182
16821W        W32955  14.015   9.374  15.011 -0.1213  0.3041 -0.2282
16822W        W32956  16.781   9.381   3.732 -0.0051  0.4135  0.0180
16823W        W32957   8.210  13.178   5.263 -0.0723 -0.4085  0.0227
16824W        W32958  15.136  16.541  13.170 -0.0660  0.0881 -0.4017
16825W        W32959   6.968  14.498  13.199 -0.3403  0.2173 -0.4133
16826W        W32960   5.193   5.765  13.579 -0.0800  0.0236 -0.0871
16827W        W32961   9.302  10.227   0.053  0.1390 -0.1527 -0.1080
16828W        W32962  16.574  14.317  13.820 -0.0733 -0.2080  0.1395
16829W        W32963   9.441   2.616  14.769  0.1226  0.1964  0.0314
16830W        W32964   4.637   2.973   3.442  0.1283 -0.0062  0.1778
16831W        W32965  10.943   7.126  14.363  0.3353  0.0039  0.1881
16832W        W32966  13.558   5.742   1.092  0.0825 -0.0965 -0.0682
16833W        W32967  18.319  13.898  13.245  0.1224  0.0338  0.1504
16834W        W32968   4.637   7.489   2.138  0.0638  0.0063 -0.3706
16835W        W32969   4.863   7.163   1.671 -0.1385 -0.0213  0.0785
16836W        W32970  11.239   5.991   5.004  0.0537  0.0426  0.0613
16837W        W32971   2.835  16.932  15.219 -0.2449 -0.1071 -0.3112
16838W        W32972  17.650  10.968   2.004  0.0148 -0.2092  0.1449
16839W        W32973   3.188   0.308   4.371 -0.1028 -0.0124  0.2620
16840W        W32974   6.148   1.096   3.374 -0.2093 -0.1186  0.1633
16841W        W32975   8.662  14.796   2.599 -0.0643  0.2802  0.1169
16842W        W32976   6.975  14.091  12.934 -0.0503  0.2530 -0.0717
16843W        W32977   1.755   2.584  15.022  0.0008 -0.0931 -0.1297
16844W        W32978  16.648  11.527  11.368  0.0360 -0.0121  0.0422
16845W        W32979   7.030   9.032   2.888  0.4840 -0.1553 -0.0090
16846W        W32980  17.216   8.720  12.699  0.1254 -0.0597 -0.0885
16847W        W32981   8.234  10.749  14.252  0.2842  0.3665 -0.0088
16848W        W32982  15.928  17.479   1.940 -0.1776 -0.0429  0.1696
16849W        W32983  14.303  17.884  14.238 -0.0309  0.1654  0.3246
16850W        W32984   3.989   0.934  11.778 -0.0510 -0.1121 -0.0855
16851W        W32985  17.351   2.676  11.601 -0.0013 -0.1675  0.0826
16852W        W32986   0.250  11.424  14.570 -0.3191  0.0555  0.1810
16853W        W32987   3.298  11.251   4.824 -0.0748 -0.1904 -0.0950
16854W        W32988  10.227  10.419  11.997 -0.2132  0.0601 -0.0192
16855W        W32989  11.780  12.913   2.240 -0.2307 -0.0022 -0.1514
16856W        W32990  17.862   3.088  10.866  0.1484  0.0292  0.1091
16857W        W32991  16.473  12.444  10.714 -0.0500 -0.1249  0.1893
16858W        W32992   5.743  12.548  13.780  0.0648  0.0371 -0.1045
16859W        W32993   3.671  17.092   0.746  0.1944 -0.1905 -0.1639
16860W        W32994   4.596  12.096   0.456 -0.0033  0.0822  0.0271
16861W        W32995  11.470   7.328   4.477  0.0444  0.3324 -0.0375
16862W        W32996   7.149   8.132  14.174  0.1527  0.0918  0.0546
16863W        W32997  13.210   2.941  12.002  0.1008  0.2595 -0.0576
16864W        W32998  13.144  16.221   4.886 -0.0744  0.1688 -0.0692
16865W        W32999   1.719  17.883   3.478  0.2952  0.4323  0.1739
16866W        W33000   9.462   2.948   3.710  0.3096 -0.2080  0.3166
16867W        W33001  10.920  18.359  10.840  0.0228 -0.1036 -0.0533
16868W        W33002   2.730  13.143   3.233  0.5627 -0.3198  0.3584
16869W        W33003  17.048   4.928   4.858  0.2325  0.1171  0.1160
16870W        W33004   8.797   0.721   0.894  0.1170  0.2804  0.0881
16871W        W33005   1.304   9.395   1.249 -0.0073 -0.3017 -0.0049
16872W        W33006   2.985  11.891  14.043  0.2201  0.0725  0.0624
16873W        W33007   1.530  12.282   3.725  0.4526  0.1535 -0.1690
16874W        W33008  17.612   5.273   0.397 -0.2537  0.0705 -0.1422
16875W        W33009  15.071  16.948  13.547 -0.1232 -0.0419  0.1114
16876W        W33010  15.757   0.810   4.680  0.1336  0.2504 -0.0281
16877W        W33011   8.771  12.119  15.053  0.2018  0.0192 -0.0994
16878W        W33012   7.082   4.647  12.481 -0.1881 -0.2444  0.0900
16879W        W33013   2.650  17.286   1.288 -0.0331  0.0261  0.1526
16880W        W33014  15.472   4.937  11.170 -0.2399 -0.2025  0.1838
16881W        W33015   2.901  10.706  10.870  0.0303 -0.1899  0.1342
16882W        W33016   8.934  16.676   5.626  0.0151 -0.2447 -0.1601
16883W        W33017  15.037   5.732  11.187 -0.0513 -0.2428  0.0772
16884W        W33018   5.450   2.750  12.237 -0.0314  0.0516  0.0015
16885W        W33019   9.160   6.899   3.556  0.0733  0.0499 -0.2352
16886W        W33020  16.068  11.863  10.536 -0.1991 -0.1522  0.0312
16887W        W33021  17.133  13.087  12.624  0.3042 -0.2878 -0.2650
16888W        W33022   3.826  18.456   2.144 -0.2283  0.3677  0.5442
16889W        W33023   1.150   0.336  12.578  0.1870  0.0892 -0.1066
16890W        W33024   3.650  15.059   4.436 -0.1002 -0.0997 -0.3056
16891W        W33025   4.885  15.537   2.201 -0.0535 -0.1028 -0.0421
16892W        W33026  13.283  18.264   4.224 -0.0739  0.1723 -0.1034
16893W        W33027   7.637  15.314   2.939 -0.0459 -0.3394 -0.0383
16894W        W33028   5.263  11.403   1.854 -0.3117 -0.2637 -0.1498
16895W        W33029   3.434   1.520   3.865  0.2872 -0.1452 -0.2087
16896W        W33030  11.357  15.478   4.905  0.1768 -0.1684  0.0381
16897W        W33031   6.396  12.016  12.319 -0.1941 -0.5928 -0.4027
16898W        W33032   1.892  10.545   2.990  0.3336 -0.2255  0.0229
16899W        W33033   8.354  13.520   4.361 -0.1150 -0.3730 -0.1013
16900W        W33034  15.720   9.467   9.778  0.2522 -0.2414  0.2037
16901W        W33035  17.075   8.185   5.131 -0.2601  0.2941  0.0176
16902W        W33036  13.537  17.124  13.022  0.0359  0.1440  0.1266
16903W        W33037   1.493  14.903  13.246  0.0539 -0.0160  0.1174
16904W        W33038   4.261   1.539   0.810  0.0976 -0.2030 -0.1969
16905W        W33039  10.693   8.663  12.300  0.1002  0.0227 -0.1098
16906W        W33040   6.564   3.226   3.210 -0.3778  0.0471  0.1181
16907W        W33041  14.437  10.688   4.949  0.0295  0.1028  0.1034
16908W        W33042   4.381   9.307   0.755  0.1338  0.1509 -0.1750
16909W        W33043   0.340   6.796   4.086 -0.0817  0.0661 -0.0960
16910W        W33044   2.073  17.633   9.988 -0.1454 -0.2309  0.1033
16911W        W33045   6.889   5.826   6.136 -0.1609  0.1372  0.1861
16912W        W33046   6.638   4.355  12.434  0.0605 -0.1023 -0.1198
16913W        W33047  11.980   1.328  13.348  0.1084 -0.2572 -0.0978
16914W        W33048  10.328   4.939  11.230  0.2196 -0.2952 -0.0917
16915W        W33049  14.954   6.471   0.090 -0.3996  0.0451  0.0762
16916W        W33050   9.566  10.275  11.991  0.2294 -0.1568 -0.0284
16917W        W33051   4.290  10.088   4.834  0.2643  0.2128 -0.1305
16918W        W33052   3.218  11.164   1.362  0.0133 -0.0564 -0.3917
16919W        W33053  12.286   7.555   1.875 -0.2188 -0.0996 -0.1773
16920W        W33054   4.802  13.963   1.945 -0.0559 -0.3710  0.0346
16921W        W33055  15.565  14.955   2.569  0.2755 -0.4107 -0.1612
16922W        W33056  17.119   5.852  12.506 -0.3993 -0.2146  0.0078
16923W        W33057   3.417  17.182   2.109  0.0081 -0.0020  0.1634
16924W        W33058   5.941  12.705  11.519  0.3477 -0.1997 -0.0842
16925W        W33059   9.017   6.307   4.334  0.0502  0.1915  0.1731
16926W        W33060  17.460  13.202   1.371 -0.0688  0.1372  0.1291
16927W        W33061   9.367   5.608   6.293 -0.3387  0.2777  0.4316
16928W        W33062   3.434   1.932  13.225  0.2672 -0.2541 -0.3397
16929W        W33063   4.509   9.708   3.411  0.2733  0.0844  0.0775
16930W        W33064  17.343  17.426   2.503  0.1104  0.1985  0.1648
16931W        W33065  10.007   7.819  11.687 -0.0892  0.3234  0.1987
16932W        W33066  11.465  16.461  14.647 -0.2071  0.0134  0.0902
16933W        W33067   6.374   6.333  12.362  0.0416 -0.0786 -0.4273
16934W        W33068   6.280   7.254  12.707  0.2065  0.0607 -0.0380
16935W        W33069   5.291   1.922   5.599  0.2888  0.3553  0.4541
16936W        W33070  11.461  10.540   2.872  0.0221  0.0328  0.3915
16937W        W33071  15.131  15.931  14.807 -0.1365  0.1019  0.1757
16938W        W33072   2.650   5.781  13.852 -0.0633  0.0714 -0.5759
16939W        W33073   0.333  10.806   0.023  0.1905  0.1258  0.0332
16940W        W33074   7.293   9.927  14.749  0.2264 -0.2832  0.1001
16941W        W33075   2.405   7.920   1.435  0.1228 -0.0980  0.4232
16942W        W33076  18.131  13.476   4.730  0.0619  0.2926  0.2532
16943W        W33077  15.952   8.673   4.411  0.1042  0.4021  0.1961
16944W        W33078   7.267   5.516   0.988 -0.0051 -0.0723  0.3956
16945W        W33079   3.994  14.998  14.539 -0.3390 -0.0443 -0.3359
16946W        W33080  11.978   4.842   1.063  0.3304 -0.0272  0.1494
16947W        W33081   6.610  13.166   3.621  0.1338  0.0670 -0.1432
16948W        W33082   4.309   2.836  13.650  0.0323 -0.0547  0.0800
16949W        W33083   3.257   4.402  12.126 -0.0773  0.0704  0.1843
16950W        W33084  14.921  17.766  10.547 -0.1691  0.0576 -0.2987
16951W        W33085   8.807   2.289  11.641  0.0435 -0.0052  0.1629
16952W        W33086   3.721  11.423   9.842  0.3215 -0.1207  0.0554
16953W        W33087  10.107  15.582   3.117  0.0016 -0.4397  0.2752
16954W        W33088  13.828  17.573  11.731 -0.0243 -0.2086 -0.1279
16955W        W33089   8.908   2.993   2.635  0.3482  0.0166 -0.0808
16956W        W33090   2.269   5.134   3.691 -0.0174 -0.1449  0.1182
16957W        W33091   7.041   8.542   2.346  0.1577 -0.2893  0.2370
16958W        W33092  17.409   4.335   3.736  0.0523  0.0558  0.2949
16959W        W33093   0.692  13.559  11.836  0.0525  0.0752 -0.0148
16960W        W33094   6.946   0.901  11.239  0.0087  0.1386  0.0088
16961W        W33095  10.431  16.609  14.803 -0.0341 -0.1685 -0.0632
16962W        W33096   4.277  18.001  14.710 -0.0958  0.0005 -0.1820
16963W        W33097   6.946   1.574   5.700 -0.1317 -0.0266 -0.3136
16964W        W33098  17.807   8.327  13.548 -0.1110 -0.1756  0.0328
16965W        W33099   4.787   5.190  14.999  0.0839  0.0392  0.0796
16966W        W33100   7.485  15.210   4.462  0.1726  0.1750  0.2518
16967W        W33101   6.892   3.457  13.687 -0.1572  0.3809  0.2179
16968W        W33102  12.160   1.497  14.866 -0.2738 -0.1681  0.0713
16969W        W33103   1.870   8.439  14.876 -0.4265 -0.2090 -0.1895
16970W        W33104   7.030   8.267  15.472  0.1905 -0.0206 -0.0408
16971W        W33105  14.857  14.703  10.695  0.0170 -0.0929 -0.2115
16972W        W33106   4.414   7.033  13.842  0.1605  0.0743 -0.3845
16973W        W33107  14.624  17.030   5.744  0.1981 -0.0352  0.1407
16974W        W33108   6.051   3.259   5.423 -0.2793  0.1532 -0.1042
16975W        W33109   6.665  16.421  13.226 -0.1211 -0.1674 -0.1002
16976W        W33110   4.298   0.936   0.212 -0.0124 -0.3711 -0.2928
16977W        W33111  13.263  15.860   9.720  0.2541 -0.0059 -0.0037
16978W        W33112  15.746   9.647  11.972 -0.3510  0.1551 -0.0373
16979W        W33113  14.108   9.252  12.437 -0.0156 -0.1185 -0.2284
16980W        W33114   9.994  18.282   0.137 -0.1084 -0.1198  0.1593
16981W        W33115   7.402   6.311  15.380  0.0136  0.0612  0.0455
16982W        W33116   2.781  12.122   2.364  0.1433  0.1428 -0.1248
16983W        W33117  16.552  11.158   4.302  0.2827 -0.1034 -0.0159
16984W        W33118  16.119  11.505   1.201  0.3936 -0.0333 -0.2384
16985W        W33119   0.806   0.665   2.723 -0.3092  0.2535  0.1830
16986W        W33120  12.916  16.870   0.547 -0.2951  0.0086 -0.0144
16987W        W33121  13.431   1.067  12.339 -0.0029 -0.1248  0.1693
16988W        W33122  11.223  16.210   0.311  0.1525  0.3319 -0.4192
16989W        W33123  17.251   4.993  10.599 -0.0233  0.1318 -0.1102
16990W        W33124  15.652   9.408  12.863  0.0388 -0.0957  0.7190
16991W        W33125   3.367  11.375  15.537 -0.0746 -0.1205  0.1095
16992W        W33126   6.214  12.350  11.992  0.0219 -0.2428 -0.0485
16993W        W33127  11.968   8.267  12.488 -0.2833 -0.0207 -0.3436
16994W        W33128   0.093  16.401  15.486 -0.2983 -0.4112  0.1304
16995W        W33129  18.353  11.500   5.157  0.0569 -0.1295 -0.1355
16996W        W33130   3.754   4.950   2.939 -0.1786  0.0978  0.3397
16997W        W33131  17.349  14.086   3.992 -0.1561 -0.1176 -0.0043
16998W        W33132   2.666  11.696   5.178 -0.1276  0.3152 -0.2262
16999W        W33133   6.899   4.983  14.072  0.2095  0.1898 -0.1901
17000W        W33134  14.720  15.512  14.397  0.3367 -0.3267  0.1213
17001W        W33135   0.795  14.722   0.171  0.2385 -0.0174 -0.0864
17002W        W33136  16.937  15.348  14.402  0.1409 -0.0871 -0.3102
17003W        W33137  10.927  10.614  14.659 -0.0417 -0.1466 -0.0702
17004W        W33138  10.094   5.252   3.931  0.1369  0.0882  0.2110
17005W        W33139  15.740  12.043  15.535  0.2459  0.0896  0.1390
17006W        W33140  11.272  17.291  11.036 -0.1079  0.4666  0.1604
17007W        W33141   9.517  10.971   3.660 -0.0797 -0.0049  0.4743
17008W        W33142   8.181   1.763  11.929  0.1276 -0.0503 -0.0448
17009W        W33143  17.311  17.269  12.508  0.1977  0.1714 -0.1705
17010W        W33144   7.915   5.070   0.424  0.0239  0.0365 -0.0618
17011W        W33145  13.304   4.540   0.841  0.2287  0.0279 -0.0673
17012W        W33146  11.840   1.051   0.599  0.0373  0.1607 -0.1054
17013W        W33147   4.662  14.020   2.421 -0.0252  0.1191  0.2496
17014W        W33148  18.413  15.963  15.119  0.0645  0.1716 -0.1019
17015W        W33149  10.473  13.969   5.310 -0.1800  0.0728 -0.4071
17016W        W33150   6.804   7.996  13.784 -0.0964  0.1071  0.0585
17017W        W33151   7.227   8.118   4.457  0.2279  0.0924 -0.1866
17018W        W33152   2.125   4.352   5.714  0.0211  0.1480 -0.1269
17019W        W33153  10.840   4.914   5.606 -0.1308  0.1151 -0.1066
17020W        W33154  18.166   9.295  14.812 -0.0260  0.0486 -0.1285
17021W        W33155   9.286  16.085  13.720  0.2467  0.0430 -0.0511
17022W        W33156   1.249  14.786  13.696 -0.0121 -0.3045 -0.0494
17023W        W33157  10.930   6.147   3.323 -0.1764  0.0023  0.0011
17024W        W33158   4.831  13.542   2.850  0.3490  0.3150  0.2720
17025W        W33159  17.922  14.236   1.280  0.2524  0.0491 -0.0391
17026W        W33160   2.114   9.316   3.870 -0.2222 -0.0302  0.1023
17027W        W33161  17.445  14.900  12.725 -0.2471 -0.0286 -0.0536
17028W        W33162  11.251   6.677   6.161  0.0254 -0.1769  0.1561
17029W        W33163   2.614   6.341  13.276  0.0374 -0.1933  0.2193
17030W        W33164   3.555   5.252  14.376  0.0399 -0.1199 -0.2501
17031W        W33165  14.700  11.607  10.573 -0.3460 -0.2490 -0.1441
17032W        W33166  13.036   9.898  12.292  0.2202 -0.0290 -0.0265
17033W        W33167  12.998  10.868   4.710 -0.4373  0.2223  0.1621
17034W        W33168   0.093   3.712   4.374  0.2803  0.1041  0.0274
17035W        W33169   8.543  12.575  12.612 -0.1515 -0.1318 -0.0003
17036W        W33170  10.145   8.042   4.125 -0.2690  0.1611  0.1196
17037W        W33171   0.904   7.135   2.608 -0.1144 -0.1137 -0.2037
17038W        W33172  18.376  16.594   4.846 -0.0352 -0.2817 -0.1242
17039W        W33173  10.458   5.426  10.681 -0.1601 -0.3324  0.4161
17040W        W33174  16.189   6.623  10.826  0.1164  0.0103  0.0367
17041W        W33175  12.224  16.811  14.917 -0.1786  0.0055 -0.0038
17042W        W33176   4.902  11.318  14.806 -0.2685 -0.0426 -0.2255
17043W        W33177   5.863   7.302  12.407 -0.0038 -0.2317 -0.2668
17044W        W33178  15.625  12.041  15.049  0.1756  0.0824  0.1904
17045W        W33179  11.854  11.783  13.684 -0.1167  0.0928  0.1626
17046W        W33180   1.934  17.328   2.594 -0.1571  0.0602 -0.0509
17047W        W33181  17.399   3.481  11.928  0.1703  0.0250  0.1280
17048W        W33182  16.598   7.380   1.385  0.0886 -0.2855  0.1656
17049W        W33183   4.054  17.023   5.253 -0.0560 -0.2805 -0.1315
17050W        W33184  17.488   8.657  12.134 -0.0808 -0.1924 -0.0780
17051W        W33185   2.879   8.755  10.613 -0.2080 -0.2174 -0.0120
17052W        W33186  13.175   8.369   5.089 -0.2456 -0.2070  0.2580
17053W        W33187   2.439  10.058   2.405  0.1469  0.0441  0.0133
17054W        W33188  18.389   7.230   1.345 -0.0022 -0.5442  0.0324
17055W        W33189   9.231   2.919   4.402 -0.0928 -0.0144  0.2903
17056W        W33190   2.744   8.515   5.064 -0.1319 -0.0667  0.1046
17057W        W33191  15.953   3.955   3.331 -0.2005  0.0153  0.3782
17058W        W33192  14.577   0.645  11.986 -0.0812 -0.1292 -0.2820
17059W        W33193  12.781   6.415  12.283 -0.1008 -0.1863 -0.0006
17060W        W33194  17.054  16.760  10.757 -0.1366  0.1940  0.1416
17061W        W33195  14.131  15.034   1.746 -0.1415  0.3089 -0.0284
17062W        W33196   0.337   3.104  13.754  0.3326 -0.1010 -0.0229
17063W        W33197   3.897  15.976   0.092 -0.2294 -0.0773 -0.1082
17064W        W33198   8.643  18.495  12.418 -0.1522  0.1903 -0.1098
17065W        W33199   5.522  17.317  12.595 -0.1374 -0.3560 -0.1531
17066W        W33200   2.693   7.460   0.899  0.0824 -0.0306  0.1596
17067W        W33201   1.926   0.276   2.807  0.1362 -0.1172 -0.0911
17068W        W33202   9.898  12.111   4.132  0.0955 -0.0038 -0.0948
17069W        W33203  11.703   7.049  10.519 -0.2525  0.3115  0.0442
17070W        W33204   2.334  15.647  10.810  0.0695  0.1872 -0.0585
17071W        W33205   9.434  18.489  14.389 -0.2861 -0.2319 -0.3442
17072W        W33206   0.081  11.751   4.649 -0.0019 -0.1854 -0.0061
17073W        W33207  10.446   7.824   0.027  0.0163  0.2361  0.1526
17074W        W33208   0.104   8.485  11.471 -0.2289 -0.2881  0.3030
17075W        W33209   9.915   7.732  12.335  0.3638 -0.0126 -0.0224
17076W        W33210   4.995  17.111  13.671  0.1038  0.0385  0.0977
17077W        W33211   2.900  10.943   4.683 -0.0001  0.0455 -0.0458
17078W        W33212  12.017   5.547   4.169  0.2865 -0.4846 -0.0580
17079W        W33213   0.221  12.356  12.894  0.2543 -0.1209 -0.0448
17080W        W33214  12.111  16.768  10.699 -0.0586  0.3113 -0.0483
17081W        W33215   6.395   8.005  14.195  0.0779 -0.0211 -0.4196
17082W        W33216  11.036   4.858   3.019  0.1075  0.1048 -0.0459
17083W        W33217  13.255  16.503  14.342  0.0220  0.0567 -0.0390
17084W        W33218  18.617   5.693   1.694 -0.3799 -0.1190 -0.1615
17085W        W33219   2.302   6.547   3.087  0.1481  0.0137 -0.0659
17086W        W33220  13.509   2.459   2.225 -0.0151 -0.0570 -0.0568
17087W        W33221   1.150  10.273  12.133  0.0228 -0.0184  0.0154
17088W        W33222   0.042  14.503   2.382 -0.1547 -0.0795  0.1167
17089W        W33223  17.603   7.845   4.972 -0.0201 -0.1104  0.0630
17090W        W33224   0.169   3.893  12.658  0.2321 -0.0544 -0.3318
17091W        W33225   1.427  11.138   4.301 -0.1183 -0.1758 -0.1275
17092W        W33226   7.755  11.226  11.798 -0.1322 -0.1846 -0.1822
17093W        W33227  12.603  12.380   2.837 -0.3084  0.0029 -0.0181
17094W        W33228  11.527   2.994  13.937  0.0185  0.0600 -0.0519
17095W        W33229  15.513   9.882   9.623  0.3284  0.0960 -0.0114
17096W        W33230   2.519  13.964   0.391  0.3085 -0.1384 -0.2336
17097W        W33231   7.364   2.200   2.583 -0.2644 -0.4314 -0.2640
17098W        W33232   6.306   3.359  13.644  0.1171 -0.4992 -0.0462
17099W        W33233   2.483  11.372   3.422 -0.0099  0.0797  0.2116
17100W        W33234  10.370   5.922  10.670  0.1255  0.1881  0.0311
17101W        W33235  11.254  16.529   1.195 -0.4027 -0.0270 -0.2827
17102W        W33236  15.060   1.676   3.862  0.3122 -0.0110  0.1583
17103W        W33237   5.007  11.812   4.476  0.0219 -0.3146  0.1147
17104W        W33238   2.070   8.837  12.353  0.1055 -0.1006 -0.2635
17105W        W33239  10.220   9.201  11.416  0.1064 -0.1712  0.3285
17106W        W33240  18.273   7.704   3.826 -0.0282  0.3544  0.0851
17107W        W33241   2.674   2.738   1.233  0.1194  0.0073 -0.0828
17108W        W33242  16.437   2.087  12.446 -0.2612  0.4035 -0.0306
17109W        W33243   5.496  11.887  11.393 -0.0644 -0.2111  0.1811
17110W        W33244  13.086   2.797   0.784  0.0853  0.1954  0.1773
17111W        W33245  15.596  10.058   2.606 -0.1502  0.1511  0.4607
17112W        W33246  14.649  14.744   3.663 -0.1047  0.2746  0.1148
17113W        W33247   9.977   3.985   0.199 -0.1414  0.3272  0.1674
17114W        W33248  15.255  12.690   4.622  0.3381 -0.3418  0.1194
17115W        W33249  17.705   1.038  14.238  0.1227 -0.0997  0.1718
17116W        W33250   3.129   2.971  11.403 -0.4437  0.0427  0.2798
17117W        W33251  16.416  11.694  14.946  0.1811  0.1287  0.0803
17118W        W33252   4.685  16.750  11.300  0.2856 -0.1293 -0.1522
17119W        W33253  17.878   9.535  15.548 -0.3932 -0.1173 -0.3070
17120W        W33254   9.850  14.623   3.164  0.0277  0.2779 -0.2391
17121W        W33255   1.642   1.317  11.601  0.1524  0.3861  0.1706
17122W        W33256   2.005   9.727  12.480 -0.1436 -0.3468  0.1663
17123W        W33257  18.493   7.891  11.032  0.4148 -0.0533  0.0891
17124W        W33258   1.843  13.886   3.431 -0.0710 -0.0724 -0.2770
17125W        W33259   2.682  16.082  11.746  0.0947  0.0196 -0.2811
17126W        W33260  14.613  16.947  11.146  0.2676 -0.2556 -0.2633
17127W        W33261   6.999  10.525  11.764  0.3501  0.0946 -0.3126
17128W        W33262   4.491   7.401   5.864 -0.2738  0.1405 -0.0768
17129W        W33263  13.664   6.969  13.019  0.0693 -0.2596  0.2427
17130W        W33264  13.802   4.274  12.999 -0.0073 -0.0530 -0.0961
17131W        W33265  14.934   2.771  10.716 -0.2171  0.1006  0.1024
17132W        W33266   8.397  10.132   4.649  0.1245  0.3065 -0.3841
17133W        W33267  11.504   4.242   4.485 -0.5120 -0.1374 -0.1863
17134W        W33268   4.612  18.720  14.071 -0.4039  0.1322 -0.1988
17135W        W33269   7.049  11.637   5.063 -0.1815 -0.1615 -0.2423
17136W        W33270   0.012  13.060  11.637 -0.0687  0.1278 -0.1066
17137W        W33271   7.939   4.832   4.505  0.2226  0.3533 -0.0538
17138W        W33272  18.265   1.901   2.318  0.3247 -0.1097  0.0448
17139W        W33273   8.160  12.687  13.921 -0.1241 -0.0848  0.0923
17140W        W33274   8.581   4.493   2.620  0.0216  0.0228 -0.0692
17141W        W33275   5.363  13.853   1.229 -0.1527 -0.5192 -0.1075
17142W        W33276   6.289   3.580  15.451 -0.4959  0.1704  0.1244
17143W        W33277  15.843  18.470  14.778  0.0231  0.0349 -0.0042
17144W        W33278  10.094   1.417   2.551  0.1089  0.2296  0.1173
17145W        W33279   6.146  17.356  11.697 -0.0162  0.2492  0.0862
17146W        W33280  13.800  11.635   1.106 -0.0786  0.3524  0.1491
17147W        W33281  10.297   0.875   2.349 -0.1435  0.4536 -0.1669
17148W        W33282   6.779  11.300  12.805 -0.1119 -0.2426  0.1279
17149W        W33283   0.121   5.686  13.330  0.0809 -0.1373 -0.0615
17150W        W33284   2.520  18.656   4.150  0.3570  0.0988  0.0309
17151W        W33285   0.211  15.361   4.986 -0.1987 -0.0972 -0.0401
17152W        W33286   6.844  14.215   5.317 -0.1192 -0.1543 -0.0994
17153W        W33287   5.712  14.347  13.640 -0.2004 -0.2360 -0.1447
17154W        W33288  14.238   3.957  15.498 -0.0787 -0.1476 -0.1178
17155W        W33289  18.103  17.708   0.503 -0.2246  0.0256 -0.0617
17156W        W33290  13.302  17.544   4.888  0.0530 -0.2620  0.1328
17157W        W33291   7.711  13.378  11.079  0.0681 -0.0849  0.0640
17158W        W33292   2.807   6.347   0.966  0.1456 -0.1971 -0.3155
17159W        W33293   0.844  14.813   0.935 -0.5043 -0.0893  0.1305
17160W        W33294   4.825  14.829   2.940 -0.0436  0.4222 -0.1391
17161W        W33295  11.261   7.079  12.585  0.0029 -0.3084  0.0759
17162W        W33296  18.061  16.208   0.534  0.3937  0.0462  0.0736
17163W        W33297   4.374   4.305   1.795  0.3563 -0.2508  0.1016
17164W        W33298  14.040   1.367   9.835  0.3046  0.3504 -0.0621
17165W        W33299  10.192   0.087  13.968 -0.0719  0.1593 -0.0237
17166W        W33300  16.677   1.199   3.099  0.0420  0.0123 -0.0659
17167W        W33301  10.162  13.507   3.235  0.0231 -0.2402  0.1013
17168W        W33302   8.682  15.029  12.908  0.0514 -0.0959  0.0729
17169W        W33303  11.367   1.258   3.812  0.1764 -0.1735 -0.1615
17170W        W33304   6.927   0.096  10.708 -0.1999 -0.2603 -0.2719
17171W        W33305  13.285   3.461  15.441 -0.0900 -0.2219 -0.2417
17172W        W33306   3.830   8.167   2.384  0.1431 -0.1347  0.0163
17173W        W33307   9.422   7.595   4.672  0.0904  0.0847  0.3289
17174W        W33308   2.562   4.945   2.350 -0.4226 -0.0664  0.2569
17175W        W33309  10.931   6.971   3.779  0.0355  0.3679  0.1367
17176W        W33310   2.473   5.989   5.178 -0.0796 -0.1182 -0.1134
17177W        W33311  11.871   0.704   1.781 -0.1463 -0.0313  0.0773
17178W        W33312  14.694   9.444   2.650 -0.1103 -0.2607  0.2680
17179W        W33313   2.121   8.679   5.675 -0.0934 -0.0699 -0.1186
17180W        W33314  14.865   8.021  10.853  0.0399  0.3152  0.1490
17181W        W33315   8.343   6.813   2.962 -0.0799 -0.0508  0.0507
17182W        W33316  15.930  17.323   3.834 -0.0599  0.3272 -0.1924
17183W        W33317  18.188   4.636   2.085 -0.1350 -0.1797 -0.5017
17184W        W33318  10.672  18.170   4.517  0.3485 -0.1364  0.0197
17185W        W33319   6.926  14.835   0.515 -0.0195 -0.1850 -0.0621
17186W        W33320  12.924   0.654  11.774  0.1210 -0.0512 -0.0108
17187W        W33321   6.420   9.845   1.478 -0.2882 -0.0160 -0.3323
17188W        W33322   7.009  18.184  11.425  0.0990  0.1089 -0.1814
17189W        W33323   7.745   3.714   0.386 -0.1923 -0.2020  0.0696
17190W        W33324   4.025   8.023   3.425  0.2186 -0.0868  0.1973
17191W        W33325  11.857   8.504  12.959  0.2542  0.3039 -0.0968
17192W        W33326  12.038   7.732  12.189 -0.0944 -0.2084  0.0262
17193W        W33327  17.848  10.542  12.381 -0.2662 -0.0163 -0.0804
17194W        W33328  12.208   8.302   1.399  0.0744 -0.1017  0.0812
17195W        W33329   1.734  13.628  14.023 -0.1259 -0.2102 -0.0990
17196W        W33330  14.697  15.363  11.370 -0.1988  0.0398  0.2589
17197W        W33331  11.318  14.699  11.379  0.1238 -0.1304  0.0780
17198W        W33332   6.475  12.972   3.081  0.0253 -0.0621  0.2843
17199W        W33333  16.951   3.084   1.084 -0.0879 -0.1998 -0.1813
17200W        W33334   1.574   8.035  14.587  0.0226 -0.2464 -0.1765
17201W        W33335   3.841   8.964   2.820 -0.0569 -0.0371 -0.0734
17202W        W33336  12.746  16.089  11.744 -0.1936  0.1345  0.2371
17203W        W33337  16.988   1.753   0.840  0.1087  0.1862 -0.3161
17204W        W33338   5.010  10.452   4.058 -0.0616  0.1271  0.0705
17205W        W33339  11.018  11.063   3.568  0.1091 -0.0377 -0.0131
17206W        W33340   2.707   0.447   4.455 -0.1750  0.0309 -0.1596
17207W        W33341  16.322   7.420   1.853  0.2541  0.0314 -0.0843
17208W        W33342  17.936   4.418   1.116 -0.1947  0.1250 -0.0175
17209W        W33343  16.229   0.421  10.771 -0.1322 -0.2677  0.0455
17210W        W33344  18.450   6.340   0.183 -0.0778  0.4111 -0.3884
17211W        W33345   5.667  18.703   0.855 -0.0085  0.1095  0.2429
17212W        W33346   7.471  14.223   4.989  0.1292  0.0935 -0.1744
17213W        W33347   1.674   7.196  10.420  0.0759  0.0575  0.0741
17214W        W33348  16.537   8.717  11.198  0.0257  0.1848 -0.1140
17215W        W33349   2.355  12.782   1.365 -0.0015  0.0615 -0.1823
17216W        W33350  10.578   2.711  15.024  0.1713  0.1100 -0.1636
17217W        W33351   3.553   9.745  11.545  0.0805 -0.2498 -0.0981
17218W        W33352  15.684   4.948   5.202 -0.1640 -0.0303 -0.1463
17219W        W33353   0.773   4.308  13.306  0.0181  0.0890  0.3667
17220W        W33354  10.756   8.259   3.171 -0.1586 -0.1113 -0.0029
17221W        W33355  11.312  10.750   3.329  0.1825 -0.1127  0.1497
17222W        W33356   4.402  16.680   0.479  0.2111  0.2429 -0.0541
17223W        W33357   3.216   8.626   2.129 -0.3601 -0.1497  0.0624
17224W        W33358  11.813  15.325   4.478  0.2476  0.0789 -0.0506
17225W        W33359   4.220   3.580  13.996  0.0112 -0.1609 -0.1140
17226W        W33360   9.020   9.464   5.147 -0.0485 -0.1564  0.0668
17227W        W33361  17.289   8.940  14.538 -0.5793  0.1883 -0.2687
17228W        W33362   4.248  15.060  13.193 -0.0196  0.3877  0.0433
17229W        W33363   5.420   5.371   2.241 -0.1994  0.1611  0.0451
17230W        W33364   7.359   6.565   3.340 -0.0704 -0.2622 -0.0620
17231W        W33365   7.786   5.413   1.347  0.1252 -0.3398 -0.2286
17232W        W33366  11.578   3.602  13.218 -0.3477 -0.3201  0.0488
17233W        W33367  17.257   0.840   5.328  0.2192 -0.0799 -0.2659
17234W        W33368  17.356   9.455  14.793 -0.2179 -0.0098  0.1100
17235W        W33369  17.833   3.831  10.220  0.1133 -0.0788 -0.0039
17236W        W33370  10.537  17.512   3.852  0.2505 -0.0098 -0.1789
17237W        W33371   0.289  12.011  13.996 -0.0562 -0.0186 -0.0412
17238W        W33372   3.532  16.336  13.342 -0.2136 -0.0097 -0.1646
17239W        W33373  18.207   9.456  12.894 -0.3527 -0.3812  0.0875
17240W        W33374   1.333   1.480   4.768 -0.0846 -0.2872 -0.2064
17241W        W33375   2.380  13.845   4.506  0.2047  0.5037 -0.0096
17242W        W33376  12.962   7.683  13.786  0.1256  0.3574 -0.0406
17243W        W33377  15.259  15.033  10.641  0.1297  0.3189 -0.1106
17244W        W33378  10.283   5.298  15.021 -0.0009  0.0523 -0.0712
17245W        W33379  18.483   9.475   3.155 -0.0080  0.1695  0.2237
17246W        W33380   1.704   7.577   5.099 -0.0575 -0.4002 -0.0316
17247W        W33381  11.958   5.975  15.271 -0.3925 -0.2913  0.0043
17248W        W33382  13.353   0.907  13.222  0.2464  0.0142 -0.0063
17249W        W33383  11.479  14.514  12.001 -0.1787  0.2696 -0.2014
17250W        W33384   9.935  15.017  13.481  0.1974  0.2538 -0.2110
17251W        W33385  14.598   0.516   4.475 -0.0853 -0.0401  0.1738
17252W        W33386   0.301   2.394   3.770  0.3108 -0.1117 -0.1789
17253W        W33387  15.945   0.265   5.009  0.0587  0.0237  0.0478
17254W        W33388   2.800  18.317  14.808 -0.0775  0.1688 -0.0898
17255W        W33389  17.421   0.463   1.044 -0.0480 -0.0764  0.1473
17256W        W33390   6.347   2.707   2.190  0.0039  0.2279  0.1194
17257W        W33391  13.421  12.239   1.669  0.4038  0.3376  0.0576
17258W        W33392  13.513   3.617   1.763  0.1316 -0.0186 -0.1685
17259W        W33393   0.977   6.841   3.033  0.1820 -0.1602 -0.2124
17260W        W33394   0.483   8.641  13.911  0.0573  0.3682  0.0184
17261W        W33395   9.581  12.689   0.136  0.1611  0.1561  0.0377
17262W        W33396  13.413   3.861  15.137  0.0705 -0.2600  0.0826
17263W        W33397  14.045  11.392  14.893 -0.2088  0.0693  0.3042
17264W        W33398   2.043  17.475  12.175 -0.1042  0.2939 -0.1304
17265W        W33399  13.938   9.265  11.297  0.0009  0.2056 -0.1078
17266W        W33400   6.141   8.369  10.625  0.0029  0.0074 -0.0484
17267W        W33401   6.744   1.136  10.312 -0.1834 -0.0459 -0.2066
17268W        W33402   9.820   1.421   3.499 -0.2921  0.2128  0.1240
17269W        W33403  13.592   1.462   1.183  0.1300  0.1968 -0.1382
17270W        W33404   3.678  10.480  11.727 -0.0759 -0.2719  0.0746
17271W        W33405   2.483   1.945  13.176  0.2626  0.2038 -0.0211
17272W        W33406  13.509  15.852  14.765 -0.1287 -0.1806 -0.1628
17273W        W33407  15.789   9.461  14.955  0.0771  0.0140 -0.3806
17274W        W33408  15.528  17.083  14.829 -0.0444  0.0713  0.3323
17275W        W33409  17.874   5.977   4.343  0.2125 -0.1427 -0.0244
17276W        W33410  17.343   8.494  13.684 -0.1025  0.4732 -0.2536
17277W        W33411   7.516  12.560  13.109  0.1264  0.3972 -0.0000
17278W        W33412   5.910  15.137  15.394  0.2077  0.3333  0.2212
17279W        W33413   4.925  16.977  14.306 -0.3383 -0.3172 -0.0539
17280W        W33414   4.383  11.548   2.873 -0.3387  0.0661  0.0926
17281W        W33415   9.669   4.946   0.364  0.0118 -0.2313  0.1558
17282W        W33416   9.814   3.079   1.781 -0.2179 -0.1945 -0.0173
17283W        W33417   7.738  10.943  14.101 -0.0370 -0.0186  0.0660
17284W        W33418   0.096  10.199   4.342  0.2411  0.1762  0.0102
17285W        W33419   2.608  15.599  13.270  0.0105 -0.3540 -0.0059
17286W        W33420  16.305   4.224   4.693 -0.0549  0.0701 -0.1187
17287W        W33421  13.837  12.599  12.709 -0.1327  0.0125  0.2937
17288W        W33422  17.711   3.407   0.728  0.0249  0.2869 -0.1047
17289W        W33423  15.646   4.871   2.446 -0.0548 -0.0979  0.0217
17290W        W33424   7.155  17.330   4.603 -0.1162 -0.0559  0.1914
17291W        W33425  16.218  10.708   1.585  0.2380 -0.0417 -0.0613
17292W        W33426  12.784   3.379  15.293 -0.0708  0.3057 -0.1250
17293W        W33427  13.709   1.543  14.375  0.3060  0.1478  0.3604
17294W        W33428   8.760   6.202   1.713 -0.2375  0.3177  0.2084
17295W        W33429   6.519  16.389  11.045  0.1022  0.1452  0.3587
17296W        W33430   6.391  13.069   0.315 -0.0637 -0.0532  0.0203
17297W        W33431   2.397  13.549   0.775  0.1521  0.0193 -0.1415
17298W        W33432  11.012   2.579  14.839 -0.4535 -0.2309  0.1635
17299W        W33433  13.452   7.025  13.494 -0.0335  0.0314  0.0778
17300W        W33434   3.461   7.114   5.182  0.4786  0.1095  0.2034
17301W        W33435  10.187  17.652  14.367  0.2207  0.0695 -0.1311
17302W        W33436  14.206  14.263   5.253 -0.2863 -0.2316  0.0402
17303W        W33437   2.577   3.132   4.933 -0.0400 -0.0059 -0.0488
17304W        W33438   5.464   6.253  13.579 -0.1035 -0.0118  0.1915
17305W        W33439  10.634   3.658   3.158 -0.2371 -0.2169  0.0537
17306W        W33440  13.638   5.694  10.799  0.0077 -0.0693  0.4736
17307W        W33441  10.439   2.004   4.935 -0.0969  0.5823  0.1460
17308W        W33442   5.618  18.682  11.824  0.1548 -0.2438 -0.0554
17309W        W33443  11.743  12.547   1.463  0.1377 -0.0834 -0.1123
17310W        W33444   3.470   6.804  11.703 -0.1015  0.1170  0.0208
17311W        W33445   0.777  17.735  12.896 -0.2132  0.2158 -0.1400
17312W        W33446  16.254   8.485   2.917 -0.0104 -0.0808  0.2109
17313W        W33447  10.603  16.454   2.249  0.5744  0.3176  0.1214
17314W        W33448   4.483  17.602  14.978 -0.2568 -0.1791 -0.0713
17315W        W33449   1.397  12.750  13.569  0.1464  0.1733 -0.3855
17316W        W33450  15.693  12.421   4.084 -0.0921 -0.2189  0.1805
17317W        W33451  13.945  16.618   2.119  0.0330 -0.2634 -0.1602
17318W        W33452  18.165  12.094   1.914  0.1177  0.1343  0.2303
17319W        W33453  12.325   7.938   3.363  0.0335  0.0186  0.0110
17320W        W33454  18.158  10.641  11.414 -0.0166 -0.0287  0.1255
17321W        W33455   2.812  13.616  11.254 -0.2307 -0.0393 -0.1977
17322W        W33456   2.025  12.408   4.561 -0.1928  0.2788  0.0890
17323W        W33457  12.783   6.105  15.521 -0.0245 -0.3056  0.0349
17324W        W33458   3.761  18.519  12.871  0.1190 -0.0855 -0.1721
17325W        W33459   5.079  16.723   2.765  0.3211  0.4458 -0.1860
17326W        W33460   6.117   0.169  14.558  0.0942 -0.0661  0.0413
17327W        W33461   6.001  16.990   3.679 -0.1642  0.1527 -0.0741
17328W        W33462   9.522   2.756   0.807  0.5147  0.2313 -0.1202
17329W        W33463  17.647  17.717   4.860  0.0148  0.0042  0.1703
17330W        W33464   4.000   0.692  12.266 -0.0719  0.1094  0.0776
17331W        W33465   4.496  15.172   2.195  0.0895 -0.0214  0.1439
17332W        W33466   1.042   5.297   4.696 -0.1476  0.1174 -0.2723
17333W        W33467   3.215  18.097   4.269 -0.0150  0.0924 -0.2444
17334W        W33468  10.880   2.603   3.783  0.0728  0.0034 -0.0410
17335W        W33469  10.103   2.823   4.605  0.0446 -0.0390  0.0166
17336W        W33470   1.705  10.306   5.544  0.2568  0.1430  0.1868
17337W        W33471  13.459  12.405   3.877 -0.1670  0.0901  0.0248
17338W        W33472   3.512   7.636  11.286 -0.0672 -0.0061 -0.2361
17339W        W33473  10.000   2.802   3.595 -0.0875  0.0497 -0.0712
17340W        W33474   3.823   3.134   3.199  0.0236  0.0671  0.0076
17341W        W33475  16.070  16.851  13.851  0.1654 -0.0084  0.1269
17342W        W33476  10.642  12.593  12.217 -0.0606  0.0174 -0.3886
17343W        W33477   4.634  13.491   2.375 -0.0336  0.0077 -0.2722
17344W        W33478   0.024  11.882  14.771 -0.1177  0.0670 -0.3099
17345W        W33479  15.451   2.092   4.247  0.0268  0.0778  0.2015
17346W        W33480  12.244  10.357   0.220 -0.3820  0.1683 -0.2383
17347W        W33481  13.279  16.425   9.797  0.0803  0.1608 -0.3417
17348W        W33482  13.999  14.577  10.752  0.4358  0.1338 -0.0041
17349W        W33483   6.973   7.076   2.351 -0.0573 -0.1459  0.0202
17350W        W33484   7.750   7.340  11.739  0.0010 -0.1455  0.0425
17351W        W33485   6.714   5.891   0.378  0.2355 -0.2241  0.0229
17352W        W33486   1.553   1.983  13.700  0.1818  0.0156 -0.2050
17353W        W33487   4.107   0.172   2.082  0.3757 -0.3118  0.3287
17354W        W33488   8.597   3.765   4.171  0.1595  0.0253  0.3386
17355W        W33489  10.680   9.628  14.575  0.1444  0.2423  0.2533
17356W        W33490   7.831   4.941   1.223 -0.1392 -0.1378  0.0145
17357W        W33491   2.512   4.676   4.512  0.0997  0.2456  0.0672
17358W        W33492   2.296  13.919  14.489 -0.0606  0.2107 -0.0555
17359W        W33493   7.626   1.528   2.600 -0.0104  0.1771  0.1232
17360W        W33494  13.040   5.989  11.806 -0.0638 -0.1693 -0.3198
17361W        W33495  17.172   9.054   3.531  0.2234 -0.2763 -0.0019
17362W        W33496  12.002  13.090   4.506 -0.0494  0.0686 -0.1095
17363W        W33497   0.126  16.015  14.937  0.1837 -0.1391  0.1152
17364W        W33498   7.182   4.066  14.877 -0.1316  0.0849 -0.0019
17365W        W33499   3.396   7.494   2.778  0.4296  0.3601 -0.2082
17366W        W33500   3.357   9.361  14.730  0.0491 -0.4791 -0.0658
17367W        W33501   2.521  14.534  10.859  0.1772 -0.0184  0.0693
17368W        W33502   0.364  10.388   4.865  0.2282 -0.0704 -0.2332
17369W        W33503  17.460  18.191   0.180  0.2767  0.1019  0.2435
17370W        W33504  14.506   4.149  13.345  0.0011 -0.0212 -0.2750
17371W        W33505  16.174   8.377  11.284  0.2072  0.0631 -0.0879
17372W        W33506   2.260  14.648  12.796 -0.3476 -0.1698 -0.2135
17373W        W33507   2.071  16.624  12.327 -0.0542  0.0785 -0.1504
17374W        W33508   2.846   1.230  14.788 -0.1074  0.1109 -0.0968
17375W        W33509   7.545  10.043  11.081 -0.1236  0.1021 -0.0242
17376W        W33510   7.162   9.539  11.697 -0.2627  0.0192  0.1320
17377W        W33511  12.286   9.823   2.402  0.0962  0.1434  0.0946
17378W        W33512   3.096   9.562  15.107  0.1573 -0.1970  0.1161
17379W        W33513  18.036  14.611   0.067 -0.0375 -0.1469  0.1250
17380W        W33514  11.450  14.143  11.601 -0.2924  0.0016  0.1894
17381W        W33515   2.033   5.040   3.272 -0.2669 -0.1576  0.0582
17382W        W33516  11.746   1.837  14.728  0.0514 -0.2617  0.3897
17383W        W33517  16.309   0.819  14.201 -0.3743 -0.1122 -0.2633
17384W        W33518   2.056   9.905  15.075  0.1841  0.1387  0.0141
17385W        W33519  10.914   9.363   5.679  0.2231 -0.1590  0.0167
17386W        W33520   0.408  13.762  10.166 -0.3426  0.3159  0.1283
17387W        W33521   8.681   7.974   0.227 -0.0727  0.2148  0.1955
17388W        W33522  17.146  13.548  11.909 -0.1489 -0.2224  0.2041
17389W        W33523   4.281  16.147  10.569 -0.0971  0.0648 -0.0735
17390W        W33524  10.572   3.505   1.286  0.2248  0.0645  0.0310
17391W        W33525   9.420  13.150   2.786 -0.1028 -0.0610  0.2253
17392W        W33526  11.717   3.943  11.904  0.1785  0.1501 -0.1571
17393W        W33527   9.254   0.871  15.253  0.0234  0.1343  0.0230
17394W        W33528  11.870  16.660  11.728  0.1462 -0.0032 -0.4946
17395W        W33529  16.616  13.225  12.845 -0.1680 -0.1700  0.2425
17396W        W33530   1.190   1.188   0.022  0.1766 -0.1593 -0.2147
17397W        W33531  14.275   4.061   2.590  0.3128 -0.0928 -0.4216
17398W        W33532   5.376   8.821  10.938  0.2710  0.0215  0.1464
17399W        W33533  14.460   6.695  13.104 -0.0095 -0.2134 -0.0653
17400W        W33534  17.930   3.159  13.445 -0.0731 -0.1099  0.1750
17401W        W33535   1.099   9.890   3.288  0.3297  0.0768  0.2088
17402W        W33536  16.793  16.127  14.084  0.0732  0.1415 -0.1511
17403W        W33537   8.977   2.691   0.905 -0.0582 -0.2964  0.3871
17404W        W33538   9.976  17.747   2.518 -0.0246  0.0029 -0.0968
17405W        W33539  13.574   8.153   4.903  0.2027  0.2889 -0.0473
17406W        W33540   7.228  15.410   1.659 -0.1774 -0.0712  0.0134
17407W        W33541   6.332  17.038   1.574 -0.0084 -0.0427 -0.0693
17408W        W33542  18.049   0.342  13.803  0.2261  0.1380 -0.2478
17409W        W33543  13.870   7.479  13.282 -0.1225  0.0474  0.0097
17410W        W33544   4.558   6.410  14.680  0.0481  0.0445 -0.0229
17411W        W33545  12.306   7.198   1.548 -0.0494  0.1042 -0.1493
17412W        W33546  11.443   0.790  14.412 -0.1036  0.1083 -0.0077
17413W        W33547   5.156  10.743  12.792 -0.1136  0.2667 -0.1439
17414W        W33548  10.830   9.974  11.645  0.0740  0.0330  0.1068
17415W        W33549   3.139   3.760   5.511 -0.1646  0.1742  0.0851
17416W        W33550   7.662   4.709  14.059 -0.1461 -0.5132  0.1035
17417W        W33551   5.289   8.220  13.983  0.0199 -0.0859 -0.3909
17418W        W33552   8.389   8.526   1.435  0.2086 -0.1543 -0.2756
17419W        W33553   0.393   2.581   0.069  0.2229 -0.1727 -0.1700
17420W        W33554   4.775  15.271   3.173 -0.0142  0.0841 -0.1465
17421W        W33555  17.956   1.449   5.231  0.0042 -0.0944 -0.2229
17422W        W33556  17.777  15.580   3.547  0.1214  0.1797  0.1903
17423W        W33557   1.187  14.867   4.228  0.2906  0.2301 -0.0861
17424W        W33558  16.284  16.544  11.136  0.2998  0.0041  0.0633
17425W        W33559   1.585   6.730  15.271  0.1442  0.0343 -0.1640
17426W        W33560   6.706  11.423   2.374 -0.0105  0.2016  0.2615
17427W        W33561  11.015  16.699  14.581  0.2170  0.2128  0.2253
17428W        W33562   2.505   1.967   4.781 -0.0240 -0.2373  0.0203
17429W        W33563  17.166  13.617   4.184 -0.0113  0.0586  0.0175
17430W        W33564  15.074  16.783   4.377  0.3193  0.2925 -0.2831
17431W        W33565   8.220   2.135  14.264  0.0157 -0.1802  0.1511
17432W        W33566  16.634   7.506  11.755  0.0409 -0.0752  0.0049
17433W        W33567   1.740  17.651  12.912  0.0510  0.1221  0.2144
17434W        W33568  15.693   7.493  10.759 -0.1612  0.0543  0.1425
17435W        W33569   2.366   3.364  14.406  0.4404 -0.0297  0.1638
17436W        W33570  17.795   6.772   2.155  0.3039 -0.1660 -0.0708
17437W        W33571   4.976   1.982  15.348  0.2284 -0.1551  0.0613
17438W        W33572  11.592  14.864  12.516 -0.0155 -0.0967 -0.2901
17439W        W33573   8.879   0.795  14.002  0.0348 -0.0161 -0.0426
17440W        W33574   3.053   8.408  11.001 -0.0098  0.0970  0.2920
17441W        W33575  14.078   1.657   1.251 -0.3235  0.2925 -0.0799
17442W        W33576   5.323   0.313   2.090 -0.0860  0.2572 -0.2816
17443W        W33577   8.826  11.660   4.516 -0.1835 -0.0062 -0.0784
17444W        W33578  16.573   6.835   4.122 -0.0318 -0.2001 -0.2873
17445W        W33579   5.751   2.295  11.312 -0.0414 -0.4471 -0.0541
17446W        W33580  13.359   1.645  14.043  0.2391 -0.1055  0.1231
17447W        W33581   1.567   3.657  13.254  0.1576  0.0001  0.1664
17448W        W33582   1.977   1.523   2.072  0.1098 -0.2854 -0.0393
17449W        W33583  16.984   7.282   4.824  0.1928  0.1944  0.2375
17450W        W33584   6.303   9.806   2.484  0.1204 -0.5511  0.2239
17451W        W33585   0.301   9.383   0.894  0.0591  0.0061 -0.1537
17452W        W33586  11.649  14.446  14.265 -0.1738  0.0356 -0.0229
17453W        W33587   8.641  12.258  11.417  0.1595  0.3156 -0.2425
17454W        W33588   1.020   0.765  11.191 -0.0776  0.0496  0.1877
17455W        W33589   9.045  11.795  13.090 -0.1646 -0.0563  0.0788
17456W        W33590   6.807  11.143   1.926  0.1303  0.1912 -0.0480
17457W        W33591  11.945   9.216  12.839 -0.1023 -0.1778  0.0806
17458W        W33592  13.117  14.204  11.016 -0.3894  0.1622 -0.0129
17459W        W33593   7.134  14.669   4.683 -0.1421 -0.2628  0.1428
17460W        W33594  13.853  10.666   0.055 -0.1240  0.0661  0.1765
17461W        W33595  10.695   5.569   0.627  0.3480  0.0400  0.1206
17462W        W33596   5.988   2.512   1.778 -0.0356  0.1482  0.0799
17463W        W33597   8.054   6.424  11.011 -0.1041 -0.1529 -0.1676
17464W        W33598  17.974   2.508   2.653  0.0306 -0.2016 -0.1835
17465W        W33599  12.270  15.465   2.711  0.0705 -0.4478  0.1388
17466W        W33600  11.985  10.155  14.102 -0.1167  0.1048  0.1156
17467W        W33601   9.174   0.291  12.929 -0.3599  0.1520 -0.0693
17468W        W33602   0.676  10.616  13.537  0.1348 -0.0922 -0.1654
17469W        W33603  16.069   7.676   0.123  0.1852  0.3638 -0.0013
17470W        W33604   9.091   6.155   0.288  0.2665 -0.1271 -0.0830
17471W        W33605   3.567   2.954  11.134  0.0883  0.3221  0.1563
17472W        W33606   1.953  15.369   3.144  0.0504 -0.1455  0.1388
17473W        W33607  15.117  10.122   2.572 -0.0999 -0.1358 -0.1298
17474W        W33608  16.098   9.906  11.183 -0.0671  0.0026 -0.1828
17475W        W33609   5.846   7.422   2.321 -0.0226  0.3400  0.1188
17476W        W33610  11.885   7.004   2.797 -0.0665  0.0518  0.1035
17477W        W33611   7.545   7.075  10.843  0.1700 -0.0036  0.0029
17478W        W33612   6.653   3.778   1.322  0.0248  0.1529  0.2056
17479W        W33613   1.909   9.573  13.799 -0.0383  0.0465 -0.1659
17480W        W33614   8.157   2.427  10.868 -0.2402 -0.3075 -0.0500
17481W        W33615   2.968  16.386  12.666 -0.0175 -0.1820  0.0261
17482W        W33616  14.523   2.138  11.050  0.0862  0.0091 -0.0042
17483W        W33617   8.858   1.113  14.428  0.0465  0.0023 -0.0638
17484W        W33618  12.242   6.260   3.693 -0.1283 -0.0221 -0.0567
17485W        W33619  18.546  12.192   4.503  0.0285 -0.0075  0.3015
17486W        W33620  14.143   3.449   3.323  0.2570  0.2411  0.0991
17487W        W33621   7.356   1.545  12.145 -0.0665 -0.0823 -0.0221
17488W        W33622  13.517  16.473   2.832  0.1302  0.1196 -0.0044
17489W        W33623   1.926   0.852   5.133 -0.2691  0.0298  0.2450
17490W        W33624  15.957   6.578   2.598 -0.3065  0.0936 -0.0166
17491W        W33625   5.888  15.126  14.702 -0.0884 -0.2206  0.0651
17492W        W33626   3.374  14.669  12.601  0.0892 -0.2800  0.1139
17493W        W33627  15.906   7.789   3.401  0.0560 -0.1537 -0.0703
17494W        W33628   7.731   9.264   9.861 -0.2684  0.3424 -0.0483
17495W        W33629   1.625  15.069   0.889  0.0295 -0.0786 -0.1662
17496W        W33630   8.464   1.290   1.100  0.0405 -0.1762  0.1182
17497W        W33631  13.493   1.705   3.672 -0.2260  0.3022  0.2182
17498W        W33632  12.801   7.685   0.160  0.0478  0.0802 -0.0650
17499W        W33633   1.297   2.908  12.172  0.5917 -0.0364  0.1784
17500W        W33634   3.776   0.210  13.165 -0.0358  0.2084  0.0986
17501W        W33635   9.971   7.489  12.887  0.2578 -0.0417  0.0802
17502W        W33636   1.028  17.550  12.074 -0.2185 -0.2114  0.0018
17503W        W33637   4.536   7.328   4.434 -0.1928 -0.1012  0.0723
17504W        W33638   7.208  15.674   4.768  0.0803  0.0674  0.1143
17505W        W33639  14.099  17.209   2.943  0.1856  0.0114  0.1536
17506W        W33640  11.595   9.537  13.662  0.0729 -0.0266  0.0188
17507W        W33641   7.429  18.590  14.185 -0.2041 -0.2291  0.0850
17508W        W33642  13.201  10.035   2.682 -0.0473  0.2611 -0.1409
17509W        W33643   3.734  11.901   5.288 -0.1233 -0.2943 -0.2107
17510W        W33644   7.657  11.004   0.218 -0.2961 -0.3096  0.0285
17511W        W33645   4.070  10.613  13.865 -0.1506 -0.1893 -0.1016
17512W        W33646  11.594  17.811   0.864 -0.0049 -0.2064 -0.4510
17513W        W33647   5.530   4.332   2.679  0.0091  0.0520  0.3684
17514W        W33648   2.494   2.036  11.669 -0.0185 -0.2630  0.0332
17515W        W33649   5.204  14.492  11.463  0.2209  0.2513  0.2198
17516W        W33650   3.640   8.515   4.557 -0.0735  0.1570 -0.0496
17517W        W33651  10.100   5.691   2.828 -0.1194  0.0199 -0.1159
17518W        W33652  14.040  11.178   3.792 -0.0507  0.1996 -0.1998
17519W        W33653  14.783   1.130   3.720 -0.0370 -0.2275 -0.1258
17520W        W33654  17.989  15.109  11.536  0.0342  0.0113  0.3344
17521W        W33655  15.990   4.461   0.415 -0.0232  0.0358  0.0803
17522W        W33656   9.506  18.439   5.346 -0.2708 -0.2235  0.0995
17523W        W33657  10.297  14.797   2.934  0.1638  0.4002 -0.1408
17524W        W33658   9.548   9.627   2.431 -0.1139  0.3424 -0.3529
17525W        W33659   6.678  18.001   1.507 -0.2526 -0.0956 -0.1111
17526W        W33660   5.914   1.802   1.106  0.2509 -0.2632  0.0809
17527W        W33661   0.125   8.695   0.017 -0.2027  0.1545 -0.2041
17528W        W33662  11.341  14.587  10.658 -0.5278  0.1292  0.0005
17529W        W33663   3.240   2.366  12.836  0.1966 -0.2755  0.0878
17530W        W33664   0.531  15.188   3.330 -0.0892  0.2347 -0.1884
17531W        W33665  14.789  15.167  10.889 -0.2997  0.1672  0.0342
17532W        W33666   1.747   6.426   3.348 -0.0436  0.2233  0.1818
17533W        W33667   7.667   5.813  13.672 -0.0609  0.1563  0.1742
17534W        W33668   2.577   9.473  15.024  0.0359  0.3967 -0.1989
17535W        W33669  16.108   6.113   4.495  0.0838 -0.3854  0.1105
17536W        W33670  10.253   1.912   0.136 -0.3296  0.1468 -0.0268
17537W        W33671   7.196  15.487  13.141  0.1449  0.0354 -0.1586
17538W        W33672   1.890   5.025   0.319  0.1963  0.0428 -0.2088
17539W        W33673  15.917   6.371   4.909  0.2830 -0.0288 -0.0862
17540W        W33674   2.790  10.161   2.077  0.1838 -0.0413  0.0775
17541W        W33675   8.857  15.671   3.638  0.3765  0.1588 -0.3614
17542W        W33676  15.586   1.250  10.293  0.1901  0.2599 -0.1747
17543W        W33677   6.019  16.543  11.030  0.0353 -0.3304 -0.2070
17544W        W33678   3.444   8.768   0.319 -0.0629 -0.1184  0.1103
17545W        W33679   7.946   4.621   0.200  0.0486  0.0647 -0.1807
17546W        W33680  10.282  12.223   0.109  0.2207 -0.2937 -0.1520
17547W        W33681  15.432  16.966   4.021 -0.1366 -0.1150 -0.1666
17548W        W33682  11.128  12.975  12.969 -0.0174 -0.0631 -0.0903
17549W        W33683  11.429   1.285  14.295 -0.1500 -0.0687 -0.0216
17550W        W33684   2.586  17.126  12.154 -0.1852 -0.4991  0.2984
17551W        W33685   8.815   9.349   4.680  0.2042 -0.0320  0.1266
17552W        W33686   2.262   4.154  14.766  0.2908 -0.2476 -0.0278
17553W        W33687   6.047   5.267  14.587  0.1400 -0.2305 -0.2067
17554W        W33688   1.807   5.274   5.365 -0.2962 -0.1880 -0.0257
17555W        W33689   6.342  13.491  10.497 -0.1173  0.0130 -0.3090
17556W        W33690   3.810  14.800  12.414  0.2676 -0.2169  0.0320
17557W        W33691  16.628  14.021  14.526 -0.3028  0.0399 -0.0099
17558W        W33692  17.162   7.907  12.042 -0.0297  0.0475 -0.3044
17559W        W33693  12.563   3.331  13.432  0.1597 -0.0998  0.2895
17560W        W33694   2.988   5.849  12.548 -0.0402 -0.0274  0.1010
17561W        W33695  14.309  17.241   4.216 -0.1436 -0.0091 -0.1617
17562W        W33696   2.574  10.423  12.184 -0.2943  0.0152  0.1898
17563W        W33697   9.793  13.745   3.392 -0.0036  0.1416 -0.4258
17564W        W33698  15.814  14.306   2.034  0.1786 -0.1809 -0.0840
17565W        W33699  17.219  15.875   3.816 -0.2388 -0.1336 -0.1250
17566W        W33700  10.457   1.515  13.724  0.0325 -0.1699 -0.0278
17567W        W33701  10.906   4.817  13.368  0.2895  0.0506 -0.0697
17568W        W33702  14.109   0.503   5.479  0.0908 -0.2115 -0.0582
17569W        W33703   5.331   5.468  11.414  0.0019  0.4319  0.1565
17570W        W33704  11.868   5.414  14.097  0.1375  0.1150  0.1403
17571W        W33705   0.875  13.608  14.559  0.5229  0.3856  0.1330
17572W        W33706  17.309   6.399  11.839  0.0309 -0.0119  0.1565
17573W        W33707   1.649   3.448   3.884  0.2675  0.2245 -0.0673
17574W        W33708  16.976  13.561  12.834 -0.0671 -0.1369 -0.0363
17575W        W33709   3.813   4.276  11.878 -0.0069  0.1796  0.0024
17576W        W33710  12.321  14.511  11.625  0.1238  0.1887 -0.2220
17577W        W33711  18.039  13.272   3.728  0.1681  0.2150 -0.2421
17578W        W33712   6.333   1.081   9.976 -0.0613  0.0029 -0.1194
17579W        W33713  12.585  14.455  12.383 -0.1043 -0.2815 -0.0168
17580W        W33714  18.521  10.961  10.674 -0.1753 -0.1609  0.0905
17581W        W33715   0.154   4.286  12.263 -0.2223 -0.0007 -0.3097
17582W        W33716  10.234   6.560  15.362 -0.2303 -0.0232  0.1314
17583W        W33717   3.124   8.015  15.262 -0.3373 -0.0552  0.0203
17584W        W33718   2.453  12.944   4.487 -0.1047  0.0234 -0.3702
17585W        W33719  11.908   5.355  12.946 -0.0186  0.1724  0.4775
17586W        W33720  14.609   3.686  15.256  0.1501 -0.2062 -0.2768
17587W        W33721   7.507  10.758  15.302  0.1219  0.0785 -0.1260
17588W        W33722  13.636   2.400   3.026  0.1093  0.0453  0.2336
17589W        W33723   9.648  16.734   0.179 -0.0509 -0.2097 -0.4804
17590W        W33724   6.140  13.382   2.303 -0.1164 -0.1747  0.2251
17591W        W33725   9.973   0.420  12.422  0.1122  0.0350 -0.0367
17592W        W33726   6.039   5.291   1.187 -0.1215  0.0821  0.1018
17593W        W33727   7.483  17.339   0.643  0.3817  0.1501 -0.0043
17594W        W33728  14.824   6.856   3.708 -0.1882  0.0056 -0.0468
17595W        W33729  17.136   6.117   4.200 -0.2056  0.1323 -0.5773
17596W        W33730  16.714  14.743   3.372 -0.2058 -0.0214 -0.2408
17597W        W33731   6.167  17.097   0.017 -0.0572 -0.1105 -0.3419
17598W        W33732   7.920  12.892  15.230 -0.0586  0.2580 -0.0940
17599W        W33733   2.737   3.603   4.707  0.3377 -0.1128  0.0916
17600W        W33734  18.663   8.543  12.671  0.0612 -0.0441  0.0169
17601W        W33735  17.976   1.023   4.150  0.0535  0.0417  0.1646
17602W        W33736   8.210  17.159  14.698 -0.1519  0.0556 -0.0812
17603W        W33737   1.017  13.600  13.496  0.2935 -0.3009  0.0052
17604W        W33738  15.910  15.540   0.894  0.0646  0.0319  0.3388
17605W        W33739   4.681   1.249   1.680 -0.1759 -0.1402 -0.1485
17606W        W33740   8.617  14.946  13.919  0.0322 -0.1393 -0.0601
17607W        W33741   9.894   3.114  12.197  0.0901  0.0248 -0.1918
17608W        W33742   6.874   5.813   3.171 -0.1244 -0.1277 -0.0718
17609W        W33743  17.100   3.737   4.291 -0.1413  0.0829  0.3017
17610W        W33744  14.820  14.770   1.119 -0.2890 -0.2320  0.0970
17611W        W33745  18.715   8.543   4.242  0.0322  0.2824  0.1216
17612W        W33746  14.677  17.524   3.767  0.1235  0.3389  0.3168
17613W        W33747   5.862  16.646  12.585 -0.2054 -0.0656  0.1186
17614W        W33748   9.316   1.421   4.757  0.0585  0.1625 -0.1647
17615W        W33749  12.150   5.792   3.773  0.1040 -0.0348  0.3610
17616W        W33750  14.472   7.399   1.451 -0.0958  0.1867  0.1847
17617W        W33751   1.299  17.148   2.548  0.1144 -0.0148 -0.1953
17618W        W33752  16.925  12.198  15.126 -0.0497  0.0369  0.1500
17619W        W33753   6.324  16.512  14.693 -0.2042 -0.0270  0.0867
17620W        W33754   7.776  13.179   4.832  0.1813  0.2229 -0.0094
17621W        W33755  18.527  17.644  14.224 -0.1331 -0.1499 -0.1296
17622W        W33756   7.692   7.154   1.832 -0.2029  0.0481 -0.4009
17623W        W33757   0.487   4.154  14.471  0.2734  0.2051  0.0463
17624W        W33758  17.667  17.485  14.874 -0.2219 -0.0310 -0.1217
17625W        W33759  10.753  13.004   5.246 -0.0197 -0.0190  0.0710
17626W        W33760   1.820   9.704  11.236 -0.1302  0.2018  0.1308
17627W        W33761  16.000  18.665  11.712  0.3888  0.3442 -0.1134
17628W        W33762  13.845  13.524   2.015 -0.0105  0.0521 -0.0984
17629W        W33763  16.441  11.311   4.745 -0.0331  0.1811 -0.1716
17630W        W33764  17.866   6.206   4.836 -0.1436 -0.1033  0.2260
17631W        W33765  11.939  17.234  12.150  0.0027 -0.0206  0.0926
17632W        W33766  10.885   8.317   2.674  0.1346 -0.2527  0.1033
17633W        W33767   3.082  18.410   3.251 -0.4624  0.1044  0.1088
17634W        W33768  15.898   8.819  12.174  0.0555  0.1461 -0.1470
17635W        W33769  13.420  17.673  13.009 -0.1929  0.1638  0.2078
17636W        W33770   2.124   9.564   3.372 -0.6172 -0.2004  0.0386
17637W        W33771   6.701  12.826   3.958 -0.0416 -0.1470 -0.4276
17638W        W33772   5.555   8.070   0.908 -0.4162  0.1803  0.3649
17639W        W33773   4.984   4.829  13.382 -0.1930 -0.0423  0.1432
17640W        W33774   3.963   6.412   0.780 -0.1136  0.0424  0.0846
17641W        W33775   2.939   2.113   3.358 -0.3165 -0.1172 -0.2549
17642W        W33776   6.822   7.122   5.381  0.0224 -0.0679 -0.0593
17643W        W33777   5.221   1.937   2.714 -0.0968 -0.0690  0.2189
17644W        W33778   8.382  15.232   3.423 -0.1389 -0.0581 -0.1323
17645W        W33779   5.029   8.994  14.259  0.0801  0.1146  0.2259
17646W        W33780   3.097   6.080   1.559  0.2194 -0.3824  0.3784
17647W        W33781   7.954  14.291   1.575  0.1395 -0.0746  0.1715
17648W        W33782  17.142  12.506   4.878  0.0301  0.1474 -0.1652
17649W        W33783  15.021  13.635   1.884  0.3370 -0.2035 -0.0498
17650W        W33784  18.101  10.486   3.007 -0.4241  0.3417 -0.0186
17651W        W33785   1.760  12.094  15.136  0.1755 -0.2846 -0.2543
17652W        W33786   7.558  18.245   3.199 -0.1029 -0.1487  0.2245
17653W        W33787  16.918  15.016   1.877  0.2761  0.4078  0.0066
17654W        W33788   7.360   9.343   1.373 -0.0657  0.0599  0.1412
17655W        W33789   4.734  10.485  14.545  0.2037  0.1195  0.0651
17656W        W33790   9.095   1.398  12.091  0.1173 -0.5263 -0.0697
17657W        W33791   0.396   8.787   4.116 -0.0314 -0.0568  0.0473
17658W        W33792   5.124   1.028   0.076  0.1678 -0.0091 -0.0686
17659W        W33793  15.308   9.325   0.479  0.2485 -0.0101  0.1336
17660W        W33794   7.600  12.642   1.362  0.3505 -0.1879 -0.1088
17661W        W33795   5.018   4.262  11.179  0.1430 -0.1030  0.0406
17662W        W33796  18.120  14.786   1.235  0.1744  0.2595 -0.0883
17663W        W33797   1.660  14.376   0.711  0.3045  0.2257 -0.2604
17664W        W33798  17.059   1.991   2.182 -0.3119  0.1821 -0.1151
17665W        W33799  13.199  18.090   0.504 -0.2638  0.0022  0.0810
17666W        W33800  14.493   8.414   2.282 -0.0882  0.0321 -0.1550
17667W        W33801   4.007  18.375   0.577 -0.2311  0.1980  0.1351
17668W        W33802   5.665  14.854   5.077  0.2388  0.0896 -0.3018
17669W        W33803  17.919  14.238   6.061  0.1885  0.2021 -0.0629
17670W        W33804   7.078  15.211  13.768  0.2302  0.2935 -0.0198
17671W        W33805   6.423  11.001  14.490  0.1216  0.0357  0.0647
17672W        W33806   3.808  15.664   9.524 -0.1367 -0.0143  0.1288
17673W        W33807  17.848   0.983  11.627  0.0441  0.0777 -0.0542
17674W        W33808   2.611  11.846   3.267  0.1895  0.0380 -0.0342
17675W        W33809  11.189   8.885  15.236 -0.1431 -0.0865 -0.0236
17676W        W33810  18.610   0.686   3.119 -0.3708 -0.2871  0.0310
17677W        W33811  14.672   1.097   2.382 -0.0346  0.2101 -0.3236
17678W        W33812  11.197   7.761   3.974  0.0363  0.0266  0.0377
17679W        W33813   7.259   8.053  14.632 -0.2124 -0.1868 -0.2294
17680W        W33814   8.881   1.502  15.413  0.6668 -0.0891  0.2272
17681W        W33815  13.330   1.631   1.748 -0.1805 -0.1258  0.2881
17682W        W33816   1.520  10.399  12.943 -0.1016 -0.1033  0.0808
17683W        W33817   2.002  11.870  11.278  0.1958 -0.1449 -0.3572
17684W        W33818   5.350  14.422   4.841  0.0552 -0.0720  0.3844
17685W        W33819  15.529   2.842  15.009 -0.0679  0.0119  0.1372
17686W        W33820   6.316  13.745   4.237  0.0350 -0.1878 -0.0588
17687W        W33821   1.270   4.808   0.199  0.0836  0.0077  0.3378
17688W        W33822   8.963   2.002  14.100  0.2611 -0.1658  0.1679
17689W        W33823   0.410   5.778   3.143 -0.0836 -0.0044 -0.0247
17690W        W33824   5.230   3.726   5.368  0.1013  0.0960 -0.3067
17691W        W33825   8.691   0.465  12.960  0.1341  0.0189 -0.0911
17692W        W33826  10.505  12.294   2.559 -0.2225  0.0513  0.1170
17693W        W33827   6.211   3.052  11.123 -0.0601 -0.2295 -0.3750
17694W        W33828   1.576  12.883  14.881 -0.4231  0.2436  0.1339
17695W        W33829  14.499  12.306   5.053  0.0298 -0.1000  0.0858
17696W        W33830  10.684  14.696   2.632 -0.0625  0.1739  0.1630
17697W        W33831   8.857  14.649   1.678 -0.1353  0.0841  0.2553
17698W        W33832   7.465  15.909   0.331 -0.3978 -0.0622 -0.0127
17699W        W33833   3.803   1.759   4.731 -0.1373 -0.1836  0.0411
17700W        W33834   9.940  17.166   1.465  0.0253 -0.1115  0.1282
17701W        W33835   9.921   2.442   1.267  0.2913  0.1648  0.2228
17702W        W33836  17.020   1.485  14.499  0.1004  0.0609 -0.1597
17703W        W33837  13.901  15.480  11.368  0.1382  0.0895  0.0102
17704W        W33838  14.157  13.788   4.300 -0.0621 -0.0777  0.0121
17705W        W33839   4.544   4.651  15.387  0.1553  0.0626  0.1520
17706W        W33840  17.936   6.887  14.658  0.2289 -0.1436 -0.0097
17707W        W33841   3.202   6.623   1.400  0.0033  0.3555 -0.0739
17708W        W33842  13.174   6.122  14.815 -0.1586  0.0260 -0.0843
17709W        W33843  17.356   9.640  10.962  0.3454 -0.0241 -0.2226
17710W        W33844  10.071  14.449   4.422 -0.2029 -0.0690  0.2721
17711W        W33845   7.525  17.165  11.687  0.2683  0.0153  0.1203
17712W        W33846   6.448  12.544   0.837 -0.1003 -0.1108 -0.0217
17713W        W33847   2.432   6.077  11.852  0.0341  0.2396  0.2313
17714W        W33848   1.476   0.024  10.982  0.2393 -0.1949 -0.3663
17715W        W33849  12.144  17.646  11.355  0.1037  0.0540 -0.1590
17716W        W33850   1.047   1.881  14.673 -0.2153  0.0259  0.2155
17717W        W33851   7.034  14.036   4.750  0.3186 -0.0699  0.2993
17718W        W33852  18.620   1.758  12.685  0.1691  0.3199  0.0921
17719W        W33853   2.228  18.063  11.493 -0.0251  0.0560  0.2226
17720W        W33854  15.260  16.409   0.851 -0.1654 -0.0391  0.0591
17721W        W33855  17.571  13.463   3.925 -0.3390 -0.1549  0.0400
17722W        W33856  15.774   7.944   5.192  0.1133 -0.1537 -0.1404
17723W        W33857   1.027   8.294   3.332  0.0092 -0.1178  0.0594
17724W        W33858  17.331  15.313   1.979  0.4186  0.1845  0.0665
17725W        W33859   6.577  18.174  12.313  0.2701 -0.2586  0.2091
17726W        W33860   2.835   2.005  14.176 -0.1679  0.3650  0.1305
17727W        W33861  15.216   5.147   1.783  0.3100  0.1158  0.2195
17728W        W33862   2.849   0.829   1.772  0.0121 -0.2239 -0.0567
17729W        W33863   4.035   4.831  10.051 -0.2557  0.1169  0.1497
17730W        W33864   8.717  18.331  15.236 -0.1078  0.2179  0.0739
17731W        W33865  10.635  17.618  15.401 -0.2128 -0.1058  0.0305
17732W        W33866   2.231  16.850   5.872  0.0096  0.0785 -0.0685
17733W        W33867   1.537  17.452  13.366  0.0255  0.0274 -0.1831
17734W        W33868  13.002  13.241   0.026 -0.4007 -0.1572  0.2466
17735W        W33869   9.132  14.657  12.338 -0.1173  0.2748  0.1983
17736W        W33870   2.533  12.136   3.689  0.1081 -0.0987 -0.0247
17737W        W33871  13.522  10.060  13.413 -0.1688  0.0425 -0.2648
17738W        W33872  14.839   4.232  14.295  0.4329 -0.0566 -0.1558
17739W        W33873  17.930   1.871  11.860  0.0340  0.1096 -0.0091
17740W        W33874   9.563   7.206   3.456  0.4473  0.0373  0.1771
17741W        W33875  13.174  15.419  14.234  0.2684  0.4757  0.2396
17742W        W33876   9.096  10.852   3.267  0.2602 -0.0501  0.3440
17743W        W33877  13.646  12.613   2.925 -0.1799 -0.4237 -0.2820
17744W        W33878  13.633  11.958   0.331 -0.0561  0.4642  0.0915
17745W        W33879   4.303  14.982  11.541 -0.0553  0.2917 -0.0066
17746W        W33880  16.974   8.668  13.255 -0.4288  0.2036 -0.1217
17747W        W33881   6.641   1.579   2.311  0.1659  0.0725 -0.2013
17748W        W33882   8.977   7.334   3.391 -0.4398 -0.2400 -0.3651
17749W        W33883   2.637  15.310   0.334 -0.0280  0.0642  0.0055
17750W        W33884   6.072   6.553  12.721  0.5779  0.0442 -0.0145
17751W        W33885   8.980   8.486   0.786  0.1753 -0.3977 -0.1375
17752W        W33886   1.249   4.091   2.153  0.0144  0.2580  0.0521
17753W        W33887  18.575  17.026   2.755  0.0827  0.1569  0.0166
17754W        W33888   1.355   3.964  12.885 -0.2049  0.0359 -0.2657
17755W        W33889   7.815  11.065   1.906 -0.3110  0.0100 -0.1105
17756W        W33890   2.011   5.742   0.502 -0.0029  0.0727  0.1766
17757W        W33891   0.953  18.593  11.068  0.1776 -0.1215 -0.2515
17758W        W33892   4.401  10.955  11.850  0.3095  0.1415 -0.1539
17759W        W33893  13.080   2.326   1.310  0.0616 -0.0295  0.1076
17760W        W33894   9.040   6.208   5.079  0.0964  0.0350  0.4243
17761W        W33895   7.978  12.344  10.417 -0.2095  0.1934  0.1619
17762W        W33896  14.675  17.163  14.636  0.0526  0.1672  0.0168
17763W        W33897   9.407  16.650  15.324 -0.1325 -0.0648 -0.1297
17764W        W33898  10.294   8.207   3.650  0.2137 -0.1759 -0.1918
17765W        W33899  15.272   3.441  14.257 -0.1197 -0.2073  0.0079
17766W        W33900   6.229   2.086  12.036  0.0904 -0.1105 -0.2529
17767W        W33901   7.415   9.864   5.003  0.0000 -0.2542 -0.1576
17768W        W33902   3.791   5.726   3.905  0.0417  0.0392  0.0907
17769W        W33903   4.621  16.262  11.122 -0.0774 -0.0268  0.0268
17770W        W33904  13.184   2.829   4.489 -0.1506  0.1583  0.1150
17771W        W33905  14.123  14.405   2.071 -0.0143 -0.0989 -0.0062
17772W        W33906  14.103   1.805   4.423  0.0065  0.0091  0.2167
17773W        W33907  14.624  16.399  10.330  0.1524 -0.0045  0.2035
17774W        W33908  17.932  11.086  12.222 -0.0595  0.0822  0.3545
17775W        W33909   3.921  10.306   3.129  0.1220 -0.4485 -0.1482
17776W        W33910   0.123   3.459  10.822 -0.0039 -0.0248 -0.2276
17777W        W33911   1.018   3.775  11.431  0.0130 -0.0136 -0.1195
17778W        W33912   3.056   9.072   3.826 -0.0743 -0.1134  0.0830
17779W        W33913   5.724  16.078   0.900  0.3317  0.0747 -0.3282
17780W        W33914  10.310   9.933   4.352  0.2734 -0.1909  0.1227
17781W        W33915   6.983   6.835   3.202 -0.0074  0.0974 -0.0309
17782W        W33916   7.776  17.399  10.666 -0.0422 -0.1406  0.0368
17783W        W33917  18.082  11.782   4.120 -0.1353 -0.0103  0.1383
17784W        W33918  11.780  17.110  13.950  0.1305  0.0964 -0.0009
17785W        W33919  10.917  18.662   2.321  0.3793 -0.2461 -0.0782
17786W        W33920   1.612   9.798   4.894  0.0837  0.2330 -0.0708
17787W        W33921  11.229  14.084  14.291 -0.3377  0.1899 -0.1005
17788W        W33922  16.841  18.610  15.303  0.0473 -0.2180  0.1065
17789W        W33923   7.542  13.542  13.511 -0.0389  0.0300 -0.0684
17790W        W33924   7.531   7.179  14.412 -0.0430  0.0582 -0.2246
17791W        W33925  14.036  14.375  15.563  0.2462 -0.0934  0.0439
17792W        W33926  11.020   8.354   4.079 -0.1103  0.1417  0.1686
17793W        W33927  13.122  10.571   3.199  0.0156 -0.1940  0.3123
17794W        W33928  11.152  12.846  11.396 -0.0614  0.0136 -0.1445
17795W        W33929  10.050   7.575  14.320  0.2987  0.0094 -0.2589
17796W        W33930  16.809   0.604  11.850 -0.0112 -0.1489 -0.1122
17797W        W33931  13.448  17.604   0.294  0.0130  0.3388  0.2237
17798W        W33932   7.349   3.955  13.503  0.1161 -0.1946  0.1148
17799W        W33933  10.639  18.718   3.316  0.0173 -0.0237 -0.0682
17800W        W33934  12.848   7.106   3.466  0.2203 -0.1038  0.4212
17801W        W33935  10.167  12.929  11.221 -0.0777  0.3010 -0.0480
17802W        W33936  11.989   1.524  14.364  0.0171 -0.2074  0.1435
17803W        W33937   4.388   0.738   2.415  0.5256  0.0693  0.0396
17804W        W33938   6.769   2.471   0.713 -0.1069  0.0081  0.0165
17805W        W33939   2.820   7.509  11.412 -0.0822 -0.0361 -0.2698
17806W        W33940  10.165  13.067   1.255  0.2564  0.0641 -0.0117
17807W        W33941   9.107   0.488   0.098 -0.0966 -0.3824  0.2315
17808W        W33942   4.683  11.044   2.985 -0.2026 -0.1005 -0.2952
17809W        W33943  17.522  14.236  14.580 -0.0198  0.0184  0.0678
17810W        W33944   9.109  13.462   9.914 -0.3666  0.2345  0.3291
17811W        W33945  17.697   5.460  14.346  0.3507  0.0926  0.1642
17812W        W33946  13.410   9.921  15.534  0.1136 -0.1095  0.0319
17813W        W33947  18.030  13.763   2.585 -0.0475  0.2974 -0.0880
17814W        W33948  11.487   8.073   0.843  0.0138 -0.1247  0.3697
17815W        W33949  17.369   6.408  14.640 -0.2400 -0.3124  0.0677
17816W        W33950   0.851   9.321  15.534 -0.0049 -0.1213 -0.0154
17817W        W33951   4.556  15.420  15.419  0.2726 -0.1449 -0.4421
17818W        W33952   5.357   3.189  10.265  0.0296 -0.0009  0.5832
17819W        W33953   0.663  12.457   2.327  0.0052  0.1005 -0.0409
17820W        W33954   5.285  10.141   5.001  0.0951  0.5435 -0.1486
17821W        W33955   5.407   1.279  14.291 -0.0259  0.0197  0.1843
17822W        W33956  14.828  11.635  14.902 -0.2751 -0.4046 -0.0891
17823W        W33957   3.552  10.603   1.008  0.0607  0.3001 -0.1108
17824W        W33958   3.264   3.280  11.829  0.1988 -0.1686 -0.0443
17825W        W33959   2.316  18.076  13.975 -0.3237 -0.1408  0.0546
17826W        W33960  16.679   0.410   1.364 -0.2586  0.1801 -0.5327
17827W        W33961   5.729  18.297  12.324 -0.0373  0.2601 -0.1091
17828W        W33962   9.024  13.994   2.364 -0.1473  0.1499 -0.1388
17829W        W33963   8.204   4.180  14.963 -0.1454  0.1137  0.3797
17830W        W33964   9.682  13.245  11.258 -0.0412 -0.0816  0.2870
17831W        W33965  15.415   4.214   1.889 -0.0028  0.3321 -0.0245
17832W        W33966   3.878   4.695   5.952  0.0246  0.0555 -0.0789
17833W        W33967  11.976   2.228   5.146 -0.3859  0.1267 -0.0530
17834W        W33968  12.253  12.809   2.771 -0.0672 -0.2806 -0.0231
17835W        W33969  11.386   6.504  13.400 -0.0286  0.0620 -0.1126
17836W        W33970   8.352   4.750  13.666  0.1615  0.3255 -0.2822
17837W        W33971   5.188   5.473   3.175  0.0890 -0.1386 -0.1030
17838W        W33972   5.792   0.515  12.857  0.0848  0.2364  0.2303
17839W        W33973   8.221   7.077  13.055  0.0662  0.0177 -0.5405
17840W        W33974   6.349   8.127  12.499  0.0276  0.2183  0.0801
17841W        W33975  17.871  15.695  11.824  0.1284  0.0806 -0.0004
17842W        W33976  14.570   7.842   2.145  0.2621 -0.0554  0.0731
17843W        W33977   3.311  18.163  14.698  0.2375  0.0327  0.1683
17844W        W33978   3.809   2.119  13.577 -0.0192 -0.0783  0.2170
17845W        W33979  14.041  15.713  12.036 -0.1616  0.0197  0.1922
17846W        W33980  11.369  10.299  15.340 -0.1457  0.0153  0.1841
17847W        W33981   3.032   0.770   4.336 -0.1058 -0.1857  0.0736
17848W        W33982   9.828   0.893  14.465  0.1984 -0.0184 -0.1317
17849W        W33983   6.599  14.704   4.062  0.3438 -0.4522 -0.1919
17850W        W33984   5.699   5.252  14.007  0.1884  0.0871 -0.1051
17851W        W33985   4.907   1.615  12.820  0.0179  0.3680  0.2313
17852W        W33986   2.641  14.293  14.684  0.0939 -0.0261  0.1430
17853W        W33987   3.664  12.679  11.667  0.2263 -0.0702 -0.0356
17854W        W33988   9.510  17.720   3.818 -0.1107  0.0895  0.0350
17855W        W33989  11.258   0.424   2.346 -0.1596  0.0586 -0.0803
17856W        W33990   0.663  13.078   3.862 -0.1660  0.1608 -0.0578
17857W        W33991   4.622  10.757   1.578 -0.2134 -0.3256 -0.1030
17858W        W33992   4.943  12.360   2.652 -0.1349 -0.1001  0.0486
17859W        W33993   2.472  11.300  13.659 -0.1128  0.0436 -0.2903
17860W        W33994   3.857   1.795   3.288  0.1291  0.2444  0.2657
17861W        W33995  18.185   6.852   0.233  0.0408  0.0747 -0.1182
17862W        W33996   3.427   5.888   0.114  0.2043  0.2356  0.0173
17863W        W33997   0.532  12.401   2.854 -0.0001 -0.0928 -0.0344
17864W        W33998  11.000  14.619  10.985  0.2341 -0.0817 -0.0359
17865W        W33999  16.072  13.652   3.808 -0.2697 -0.0377 -0.0648
17866W        W34000  10.794  12.184   1.763  0.0839  0.2507  0.1693
17867W        W34001  10.082  14.552  13.558 -0.2118 -0.0234 -0.1784
17868W        W34002   4.275  13.382   2.768 -0.0291  0.0186  0.0180
17869W        W34003  16.703  11.590  12.233 -0.0375  0.0295  0.0408
17870W        W34004  13.008   7.583  14.804  0.2135 -0.0804  0.3060
17871W        W34005  18.238  14.511   3.246  0.1652  0.2256 -0.0320
17872W        W34006  17.766   9.871   5.024  0.0466  0.0742 -0.2175
17873W        W34007  10.983   6.600   0.652  0.1955 -0.1163 -0.2662
17874W        W34008  11.724  13.080   4.094  0.0414  0.2100  0.1003
17875W        W34009  14.026  14.821  10.096  0.1692 -0.1997  0.0310
17876W        W34010   6.114   3.363   3.406 -0.0500 -0.3321 -0.2827
17877W        W34011  15.327   6.298  11.818  0.1276  0.1175  0.0878
17878W        W34012  14.707   7.393  15.489  0.3043  0.1078 -0.0719
17879W        W34013  18.281  13.410   4.246 -0.2389  0.1229  0.2941
17880W        W34014   8.000  14.819  10.987 -0.1067 -0.1530  0.2148
17881W        W34015  10.253   4.646   2.718 -0.0119  0.0580  0.0394
17882W        W34016   3.849  14.258   1.752  0.0597 -0.3586 -0.0376
17883W        W34017  10.708   2.241  11.959  0.1149 -0.2499 -0.1077
17884W        W34018   3.112  18.703   0.357 -0.1267  0.1598  0.2541
17885W        W34019   2.345   2.989  14.112 -0.2901 -0.0614 -0.0122
17886W        W34020   9.250  14.368   3.815 -0.0058  0.2619  0.1157
17887W        W34021   9.814  16.369  12.570 -0.0088  0.0248  0.0017
17888W        W34022  10.866   2.535  12.330 -0.1261  0.1726 -0.0910
17889W        W34023   2.251  11.248  13.188 -0.1357 -0.0319 -0.0384
17890W        W34024   0.002   9.448   0.401  0.1259  0.0094 -0.1466
17891W        W34025   7.283  18.716   0.329  0.1559  0.0411 -0.0517
17892W        W34026   4.374  16.597   4.840  0.1553  0.2274 -0.1322
17893W        W34027  11.462  16.801   2.472 -0.1690 -0.0779 -0.1005
17894W        W34028   9.601  18.016  14.479 -0.0162  0.0827 -0.0213
17895W        W34029   3.269   8.779   9.716 -0.2408 -0.0153  0.1294
17896W        W34030   8.636  14.096  10.712  0.0004  0.0414 -0.0192
17897W        W34031  16.319  12.930  13.654  0.0817 -0.0802  0.0759
17898W        W34032  10.215  11.713   0.637 -0.0738 -0.1928 -0.0362
17899W        W34033  16.651  17.859   2.027  0.1316 -0.0954  0.0462
17900W        W34034  12.105  15.834   3.250  0.1198  0.1476 -0.0927
17901W        W34035  12.397  12.142  15.195  0.0617 -0.2258 -0.1320
17902W        W34036  11.032   2.114  12.542  0.0767  0.0006 -0.0187
17903W        W34037  18.599  16.521  14.855 -0.1608  0.2116  0.0422
17904W        W34038   2.120  12.108   1.103  0.0654 -0.2201  0.1356
17905W        W34039  17.602   6.889  11.126 -0.1226 -0.0883 -0.0921
17906W        W34040   5.395  14.413  11.012  0.0756 -0.1343 -0.0030
17907W        W34041  12.100   6.719   4.043 -0.0442  0.0693 -0.0417
17908W        W34042  13.300   7.761  10.216  0.3752 -0.0543  0.1680
17909W        W34043   5.955   4.303  13.155  0.3141  0.0690  0.0947
17910W        W34044   6.995   9.280   2.453  0.2997 -0.0652 -0.2895
17911W        W34045  12.614   2.989  14.754 -0.0859 -0.2784 -0.0154
17912W        W34046  14.386   1.835   0.076 -0.1760 -0.1307 -0.1558
17913W        W34047   0.135  14.161   1.026  0.1092  0.1508  0.0398
17914W        W34048   1.699  14.665   3.097 -0.0310  0.1362 -0.1579
17915W        W34049  11.166  17.264   0.264 -0.2172 -0.3106 -0.2696
17916W        W34050  13.878   6.712   3.438 -0.1886 -0.0249 -0.0911
17917W        W34051   6.462   0.743  11.371  0.1512 -0.1472  0.2879
17918W        W34052   5.216   7.667  13.345 -0.1430 -0.0513 -0.2520
17919W        W34053  13.514   9.363   4.036  0.0304  0.3016 -0.2551
17920W        W34054   1.825   8.441  15.425 -0.2417  0.0479 -0.1688
17921W        W34055  11.793  16.846   4.954 -0.1696  0.3488  0.1247
17922W        W34056  12.846  18.393  12.067  0.1900  0.2187 -0.0283
17923W        W34057   5.164   1.694  11.419  0.0273  0.1483 -0.0791
17924W        W34058   9.352  13.922   3.474 -0.0521  0.0103  0.1099
17925W        W34059  15.118  10.657   0.257 -0.1154 -0.1628 -0.1135
17926W        W34060  12.812  13.579  13.441 -0.2871  0.0161  0.0532
17927W        W34061  12.800   6.902  14.635 -0.0103  0.2328  0.1111
17928W        W34062   7.128  11.240   5.338  0.2137  0.0167  0.1993
17929W        W34063   4.141  10.419   4.392 -0.0472  0.2131  0.0217
17930W        W34064  15.003   8.012   5.064 -0.0890  0.0395 -0.0568
17931W        W34065  15.364  16.491  11.090 -0.3658 -0.0490  0.1141
17932W        W34066  13.821  16.149   4.460  0.2773  0.0591 -0.0427
17933W        W34067   9.443  12.804  14.009  0.0415  0.2293 -0.1978
17934W        W34068  14.074   1.317   4.856  0.3207 -0.0901  0.3673
17935W        W34069  11.337   0.811   5.244  0.2159 -0.5253 -0.0448
17936W        W34070  16.352  16.842   4.202  0.2306 -0.1748  0.1590
17937W        W34071   2.033  11.329   2.117 -0.0823  0.0241 -0.1616
17938W        W34072   6.148  12.842  11.954 -0.1130 -0.0535 -0.0567
17939W        W34073  16.959  15.079  10.989 -0.0008  0.0871 -0.1862
17940W        W34074  15.594   9.185   2.957 -0.1199 -0.2095 -0.1513
17941W        W34075   7.623   7.923   4.891  0.1167 -0.0559 -0.5407
17942W        W34076  15.931  17.483   0.017 -0.1056 -0.0118 -0.0368
17943W        W34077   4.974  14.399  12.544 -0.0616  0.0194  0.1137
17944W        W34078  13.813  15.174   4.378  0.1465  0.1551  0.2468
17945W        W34079  12.615  12.032   0.660  0.1081 -0.2695 -0.1579
17946W        W34080   9.373   5.135   1.330  0.0994  0.1576 -0.0516
17947W        W34081  14.720   5.277   1.843  0.1817  0.0418 -0.0683
17948W        W34082  10.184   9.864   0.196 -0.0590  0.5579 -0.0017
17949W        W34083   3.868  15.542   3.747 -0.0395  0.1420  0.1673
17950W        W34084  11.159   8.943  10.815 -0.1547  0.0773 -0.1032
17951W        W34085   0.550   4.107   4.390  0.0073  0.2135 -0.0497
17952W        W34086  12.508   6.316   1.575 -0.0392  0.2505 -0.0013
17953W        W34087   2.203   0.748   2.663 -0.0984  0.1371  0.0412
17954W        W34088  10.737  15.026  13.101 -0.1032  0.1635  0.0388
17955W        W34089  10.838   6.477   3.722  0.1570 -0.2556  0.4764
17956W        W34090   1.037  17.259  13.776  0.0264  0.0604 -0.2598
17957W        W34091  18.398   4.190   3.885 -0.4246 -0.0634  0.4340
17958W        W34092  17.529  14.243  11.187 -0.0095  0.0243  0.2862
17959W        W34093   4.415  17.238   1.121  0.0673  0.1073 -0.0630
17960W        W34094  14.872  15.402   5.299 -0.0259  0.1859  0.0764
17961W        W34095  14.175  13.959   0.863  0.1103  0.1453  0.1127
17962W        W34096  11.084  13.565  10.839 -0.0707  0.1985  0.3848
17963W        W34097   7.071  17.382  11.806 -0.1824  0.4261  0.0893
17964W        W34098  14.748  11.016   1.356  0.0001  0.2369 -0.0709
17965W        W34099   5.924   4.021  11.347 -0.0162 -0.0866 -0.0633
17966W        W34100   8.510   3.618   2.084  0.0202  0.0132  0.2236
17967W        W34101   7.015  13.498   4.968  0.0676  0.2365  0.1335
17968W        W34102  10.928  16.409  12.006 -0.0896  0.2590 -0.2602
17969W        W34103   7.612  11.561   2.270  0.0666  0.1550 -0.3284
17970W        W34104  15.726  12.516  14.441 -0.0106  0.2587  0.2917
17971W        W34105   5.584   5.582  15.077 -0.0498 -0.1933  0.2777
17972W        W34106  15.915  17.363  13.820 -0.1328 -0.0892 -0.2341
17973W        W34107   2.783  12.603  12.179  0.0952 -0.2115  0.4203
17974W        W34108   1.477   8.771   2.157 -0.0027 -0.0646  0.1344
17975W        W34109   9.734   3.362   2.390  0.1322 -0.2877 -0.0466
17976W        W34110   4.435  17.575   0.758 -0.0953 -0.0452  0.1074
17977W        W34111   8.428  10.226  11.102 -0.2920 -0.0882  0.0517
17978W        W34112   8.944   0.623   4.950  0.0604  0.0635 -0.0599
17979W        W34113  18.138  14.832  15.218  0.0252  0.0378  0.3524
17980W        W34114   3.945   7.173  14.103 -0.0889 -0.0826  0.2360
17981W        W34115   4.037  15.303   3.223 -0.0169 -0.1703  0.5983
17982W        W34116  17.747   1.764  13.484 -0.1333  0.0133  0.2645
17983W        W34117   5.573  13.692   1.675  0.0582  0.3200  0.1411
17984W        W34118  11.358   9.843   3.946  0.1890 -0.1081 -0.2165
17985W        W34119  16.966   2.975   3.784  0.0359 -0.0536 -0.1189
17986W        W34120  13.000   2.736  12.655 -0.3193  0.1987 -0.3352
17987W        W34121   1.511   1.446   2.784  0.1619 -0.1816 -0.1059
17988W        W34122   2.115   7.287   4.151  0.1225 -0.0747 -0.1373
17989W        W34123  13.003  13.711   2.382  0.1323 -0.2373 -0.1188
17990W        W34124  15.280   0.954  10.606  0.0724 -0.1113 -0.3991
17991W        W34125   3.047   6.761   0.887  0.3800 -0.1778  0.0142
17992W        W34126   5.568   4.464  10.534 -0.3292 -0.0122 -0.0129
17993W        W34127   9.509   4.298  11.170 -0.1465 -0.0107 -0.1278
17994W        W34128   3.597   5.385   3.620  0.1954 -0.2235  0.0463
17995W        W34129  11.619  11.827   3.847 -0.1262  0.0812 -0.3820
17996W        W34130   5.761  17.394   1.498  0.2446  0.2229 -0.0527
17997W        W34131   3.253  18.295  13.475 -0.1733 -0.0129  0.2205
17998W        W34132  13.895  16.151   0.711  0.2456  0.0396 -0.1646
17999W        W34133   6.072   8.651  14.037  0.0929  0.2646  0.0560
18000W        W34134  15.034  16.809  15.538  0.0372  0.0869  0.0618
18001W        W34135  10.199  11.503   4.760 -0.0197 -0.1451  0.0915
18002W        W34136   5.700  14.993  12.077  0.0557  0.0277 -0.1370
18003W        W34137  18.075   7.325  13.835 -0.2053 -0.0631 -0.2115
18004W        W34138  11.574   2.055  12.528  0.1657  0.2636 -0.0481
18005W        W34139   2.037   0.886   0.344 -0.1425  0.2197 -0.0386
18006W        W34140  16.082   8.929   0.641  0.2184  0.0281  0.1095
18007W        W34141  15.669  10.882  12.603 -0.0591 -0.1864  0.3670
18008W        W34142  16.662   6.203  13.199  0.0518 -0.1346  0.2932
18009W        W34143  13.256   1.858   1.089  0.0384 -0.0866  0.0040
18010W        W34144   2.551   3.787   9.719 -0.1404  0.1173 -0.0331
18011W        W34145   3.086  13.368   0.745  0.0822  0.2286 -0.1201
18012W        W34146  14.905  11.273   3.099 -0.3864 -0.0561  0.0759
18013W        W34147   2.444  14.481   0.585 -0.3231  0.0332  0.3126
18014W        W34148   3.146  16.755  11.080  0.1634 -0.0638 -0.0634
18015W        W34149  17.825  16.824   2.511 -0.2606 -0.0508  0.0531
18016W        W34150   9.736   3.072  13.051 -0.1319  0.0740 -0.1697
18017W        W34151  11.663  15.662   1.814  0.0503  0.0063 -0.0904
18018W        W34152   8.535   3.540   3.426 -0.0002 -0.2342 -0.0058
18019W        W34153   3.936  17.442  11.410 -0.1767  0.1204  0.0351
18020W        W34154   3.791   4.418  14.780  0.1368  0.2675 -0.2245
18021W        W34155  15.880   6.282  13.697 -0.0000 -0.1046 -0.2254
18022W        W34156   2.721   3.285   1.220 -0.2093  0.1407 -0.3019
18023W        W34157   9.878  14.285   2.647 -0.0506  0.1774  0.1868
18024W        W34158  16.623   1.688  12.653 -0.1381  0.2313 -0.0551
18025W        W34159   8.161  13.046   4.499  0.1224 -0.0135  0.1835
18026W        W34160  16.511   9.348   5.178  0.1108  0.4304 -0.2330
18027W        W34161   1.106   8.911  11.326  0.0526  0.0906 -0.2040
18028W        W34162  16.338  17.072  12.350  0.2260 -0.2575 -0.0116
18029W        W34163   4.605  11.328   0.539  0.1338  0.0666 -0.1262
18030W        W34164   6.106  18.007   2.122  0.2259 -0.0909 -0.1615
18031W        W34165   0.043   8.871  13.824 -0.3617 -0.1491 -0.0530
18032W        W34166   0.919   4.812  11.968 -0.2202 -0.2639  0.0653
18033W        W34167   7.754  18.243  13.285  0.2769  0.1429  0.2292
18034W        W34168   6.495   9.531   5.030  0.3134  0.0464  0.1254
18035W        W34169   9.759   8.876  12.099 -0.3234 -0.1775  0.1663
18036W        W34170  15.418  16.236   2.317 -0.0853 -0.0662  0.0663
18037W        W34171   3.948  10.292   1.002  0.1065 -0.1478 -0.1523
18038W        W34172  13.614   0.519   5.294  0.1134 -0.0034  0.1181
18039W        W34173   3.736  12.004  12.402 -0.1092 -0.1885 -0.0593
18040W        W34174   2.191   7.147   1.981 -0.0334 -0.2074  0.0565
18041W        W34175   1.904  16.295  12.821  0.0816  0.2085  0.5157
18042W        W34176   6.159  13.091  14.261 -0.0238  0.1578 -0.1768
18043W        W34177   4.244   5.708   4.197 -0.2215 -0.0818 -0.0296
18044W        W34178  10.350   7.859  15.060  0.0212 -0.0712  0.0229
18045W        W34179  14.664   2.799   4.224 -0.0748  0.0625 -0.0909
18046W        W34180   1.159   0.374  13.797  0.1415 -0.3092 -0.0116
18047W        W34181  13.524   1.263  14.819 -0.2412 -0.1106 -0.1684
18048W        W34182  12.235   4.403  15.554  0.1362 -0.0760  0.0333
18049W        W34183  16.293   3.634  13.361  0.0349 -0.2991 -0.2571
18050W        W34184   0.048  12.399  10.696  0.0056  0.1577  0.0153
18051W        W34185   3.555   1.986   4.216  0.0974  0.2419 -0.0857
18052W        W34186   6.699   9.943  13.989 -0.1375  0.0223  0.1058
18053W        W34187  16.198   4.260   4.219 -0.0585  0.1662 -0.0202
18054W        W34188   9.648   2.655  14.297  0.0165 -0.1279  0.0985
18055W        W34189   1.412  10.540  11.737  0.0095 -0.1086  0.1910
18056W        W34190  10.673  17.841  10.948 -0.1058  0.1029 -0.3171
18057W        W34191   9.479   1.216   2.645  0.0171 -0.0189 -0.1000
18058W        W34192  12.900  11.515   4.412  0.0626 -0.1323  0.1819
18059W        W34193  11.416  16.310  15.236 -0.2620  0.1431 -0.0546
18060W        W34194   4.753  18.378  11.614 -0.1233  0.2390  0.0693
18061W        W34195   2.830   2.237   9.919  0.1062 -0.2028 -0.1060
18062W        W34196   4.214  11.084  14.284 -0.1392 -0.3614  0.0877
18063W        W34197   6.179   9.499  11.853 -0.2917 -0.0207 -0.1713
18064W        W34198  18.224   4.242   3.160  0.0870 -0.3941  0.1690
18065W        W34199  15.580   7.671   3.001  0.0537 -0.4570  0.0728
18066W        W34200  12.091   8.603  11.118 -0.4090  0.1590  0.3126
18067W        W34201   0.401  14.602  15.448 -0.0896  0.0336 -0.1521
18068W        W34202   9.549  11.746  14.639  0.1321 -0.1278 -0.0926
18069W        W34203  12.484  15.046   1.235 -0.2293 -0.1768  0.1714
18070W        W34204   5.646   6.719  13.612  0.1925 -0.0643 -0.1116
18071W        W34205  18.307   3.131  15.222  0.0500 -0.0651 -0.0126
18072W        W34206   7.318   0.840  12.955  0.1117 -0.2985  0.0512
18073W        W34207  15.521   0.011   4.425  0.1926 -0.2795 -0.0489
18074W        W34208   9.379   4.061  12.964  0.1392  0.1417 -0.2274
18075W        W34209  14.127  13.527  14.204  0.0129 -0.2060 -0.0524
18076W        W34210   5.941  14.797   9.930  0.1929  0.1308 -0.2583
18077W        W34211  10.919   3.662  15.024 -0.2955 -0.1596 -0.0581
18078W        W34212  14.887  16.987   2.631  0.0748 -0.1568  0.3034
18079W        W34213   9.452   3.123   2.750 -0.0956 -0.0698  0.1832
18080W        W34214  13.339   1.117   1.622  0.0087  0.4155 -0.0599
18081W        W34215   0.461  11.564   5.974  0.0348  0.1308  0.1824
18082W        W34216   4.545   5.286   2.487 -0.1899 -0.1492 -0.2560
18083W        W34217  16.293  16.843  13.343  0.2087  0.0768  0.1492
18084W        W34218   7.577   4.050   5.524  0.1445 -0.3931  0.1060
18085W        W34219   2.997   3.651   3.197 -0.1630  0.0457 -0.2391
18086W        W34220  11.721  11.829  14.373  0.0150  0.1645 -0.1324
18087W        W34221   1.129   6.101  10.911 -0.3708  0.0545 -0.1005
18088W        W34222   1.768   6.499   0.098  0.3419  0.0969 -0.2463
18089W        W34223   7.478  17.028   4.968  0.0666  0.4168 -0.3674
18090W        W34224   6.705  16.672  15.541  0.0878 -0.1804  0.1292
18091W        W34225   6.859  14.517  14.357  0.2353  0.1134  0.1074
18092W        W34226   2.802  12.168   0.073 -0.1157  0.1715 -0.0870
18093W        W34227   4.894  13.703  15.120 -0.1134 -0.2141 -0.0948
18094W        W34228   0.449   3.768   4.720 -0.1935  0.1471  0.0074
18095W        W34229  13.085  16.097  12.223 -0.1343  0.0634  0.0685
18096W        W34230  16.152   8.320   4.655 -0.0919 -0.1446  0.0140
18097W        W34231   4.471  14.467  12.664 -0.1092 -0.0448 -0.0639
18098W        W34232   7.688  14.557  14.670 -0.1286 -0.0326 -0.2812
18099W        W34233   4.467   2.445   2.370  0.1019  0.0188 -0.2121
18100W        W34234  17.179   0.976   3.159  0.2179  0.1536 -0.4612
18101W        W34235   6.566   8.301   3.128 -0.0870 -0.0409 -0.0328
18102W        W34236   3.744  17.304   2.866 -0.0263 -0.0596  0.3364
18103W        W34237   9.671  17.932   5.231  0.0659  0.0061 -0.2318
18104W        W34238   0.417  13.481   5.233  0.4515 -0.0201 -0.3319
18105W        W34239  16.714  15.444  14.824 -0.3849  0.1194 -0.1710
18106W        W34240   9.268   7.163   4.430  0.0410  0.0097 -0.1024
18107W        W34241   8.284   2.553  13.988  0.0745 -0.1178 -0.0100
18108W        W34242  14.729   6.529  14.496  0.0983  0.1024 -0.0554
18109W        W34243   6.966   2.736   1.947  0.0584 -0.0117  0.0726
18110W        W34244  10.829   0.641  12.866 -0.2883  0.0353  0.1276
18111W        W34245  13.335  17.795  11.131 -0.2693 -0.0042 -0.1362
18112W        W34246   0.155  15.775   2.045 -0.0971 -0.1674  0.0885
18113W        W34247   2.638   7.044  15.142  0.0484  0.0715  0.0980
18114W        W34248   3.747  11.108   2.644 -0.0951 -0.1807 -0.0655
18115W        W34249   1.623   9.865  14.789 -0.1807 -0.0992  0.2081
18116W        W34250  14.407   1.659  11.094  0.0286 -0.0254  0.2651
18117W        W34251   4.454  15.010   5.168  0.1095 -0.3001  0.3779
18118W        W34252  15.814   4.818   3.568 -0.0092  0.2883 -0.3984
18119W        W34253  13.215   2.655  13.806  0.1505  0.2992 -0.0610
18120W        W34254  17.389  13.082  14.290  0.0434 -0.2741 -0.3324
18121W        W34255  16.449   6.654   2.303  0.0035  0.3528  0.0486
18122W        W34256  12.342  17.083   0.522  0.2480 -0.2537  0.3221
18123W        W34257   6.397  14.410   2.982  0.1214 -0.1925  0.0389
18124W        W34258  16.974   9.465  12.725  0.1114 -0.0353  0.3141
18125W        W34259   9.077   3.772  13.291  0.0670 -0.0952  0.3205
18126W        W34260  12.281  16.350  12.622  0.1836  0.1183 -0.0401
18127W        W34261   3.021   2.556  10.981  0.1160  0.0156 -0.2161
18128W        W34262   0.791  10.670   3.498  0.2702  0.3308 -0.2659
18129W        W34263   1.498   6.267  12.800  0.1326 -0.2396  0.5292
18130W        W34264   5.777   3.945  12.819  0.1260  0.2204 -0.0799
18131W        W34265  17.483  11.695  13.994 -0.0439  0.5621  0.1560
18132W        W34266   5.649   3.188  12.466 -0.0255  0.0343  0.2443
18133W        W34267   5.856   8.261  11.647  0.1404  0.0952 -0.0533
18134W        W34268  12.622   8.403  11.056  0.0314  0.0249  0.0202
18135W        W34269   1.685  18.505   2.574  0.1870 -0.3342  0.3815
18136W        W34270   9.958  12.524   5.654  0.0513 -0.0643 -0.2462
18137W        W34271  10.793  13.748  11.289 -0.1007  0.1174  0.2384
18138W        W34272   6.024   9.189  13.275 -0.0538  0.0939 -0.0685
18139W        W34273   9.933  17.518  11.448  0.1192  0.0794 -0.0160
18140W        W34274   2.728  13.580   3.494 -0.0094  0.0409  0.0235
18141W        W34275  16.618   6.369   1.445  0.0898 -0.1049 -0.0018
18142W        W34276   3.053   4.673   3.232 -0.1041  0.0534 -0.2916
18143W        W34277  13.097   7.437   4.839  0.0961  0.0820  0.1815
18144W        W34278  15.143   1.690  10.198 -0.0769  0.2111  0.0219
18145W        W34279  14.998  11.155   0.918 -0.1647 -0.0004  0.1119
18146W        W34280  11.747   4.537   5.291  0.0079 -0.2365 -0.1593
18147W        W34281   3.066   6.744  12.911  0.1078  0.1134  0.1509
18148W        W34282  13.754  11.227   4.228  0.0274  0.5177 -0.1680
18149W        W34283  11.166  13.101   0.829  0.1531 -0.0430 -0.0741
18150W        W34284   7.037   9.609   2.891  0.0005  0.0203 -0.0243
18151W        W34285  15.323   6.091  10.890 -0.3146 -0.0250 -0.0662
18152W        W34286   2.712   9.309  12.494 -0.0164 -0.1137 -0.0503
18153W        W34287   7.867   5.208   3.644 -0.0903 -0.2198 -0.0385
18154W        W34288  17.818   0.301   4.820 -0.0524  0.0665 -0.1571
18155W        W34289  11.372  15.877  15.550  0.2274 -0.2106  0.0586
18156W        W34290   7.403   2.390  14.599 -0.0973 -0.1881 -0.0840
18157W        W34291   4.292   4.826   3.683 -0.0312 -0.2222 -0.3040
18158W        W34292  10.071  11.255   1.362  0.1637  0.2712  0.0617
18159W        W34293   4.548  16.873  11.780  0.1646  0.3123  0.1950
18160W        W34294   6.958  12.588  14.767  0.1928  0.1996  0.0506
18161W        W34295   3.952  11.850  14.299 -0.1652  0.1108 -0.1866
18162W        W34296  10.533  10.813  11.278  0.0614 -0.1130 -0.2145
18163W        W34297   8.720  17.368   1.131 -0.3406 -0.2193  0.1602
18164W        W34298   6.187  13.562   0.206  0.0769 -0.2261 -0.0426
18165W        W34299   7.508  14.907  11.701 -0.1250 -0.0422 -0.1505
18166W        W34300  18.268   1.226  11.485 -0.2516 -0.0881  0.0554
18167W        W34301   6.758   8.288   4.645  0.0308  0.0769  0.1139
18168W        W34302  13.364  17.999   9.880  0.0897 -0.3240 -0.0202
18169W        W34303   1.613  13.879   0.587 -0.2183 -0.1789 -0.3583
18170W        W34304  16.192  10.258  15.056  0.3531 -0.0680 -0.0458
18171W        W34305  17.747  11.416   4.041  0.1477  0.4149 -0.0353
18172W        W34306   7.356  15.516  15.564 -0.2128 -0.2249 -0.2682
18173W        W34307   2.355  12.315  12.249 -0.1378  0.1138  0.1433
18174W        W34308  10.445  15.219  14.824  0.1275  0.1130 -0.0382
18175W        W34309   3.879  16.186  12.820 -0.0402 -0.0418  0.1866
18176W        W34310   3.562   4.328   2.345 -0.0267  0.0098 -0.4261
18177W        W34311  14.692  12.926  12.975 -0.0303  0.3195  0.1042
18178W        W34312  13.684   5.204  10.875 -0.3782 -0.1724 -0.0106
18179W        W34313   6.969   1.305  13.152  0.1152 -0.0396 -0.0261
18180W        W34314  17.836  14.160   0.192  0.0309 -0.0893  0.3468
18181W        W34315  11.934  10.299   4.305  0.0841  0.2906 -0.1224
18182W        W34316  16.111   5.075   3.196 -0.1798 -0.0761 -0.0316
18183W        W34317   7.682  13.957  15.460 -0.1956  0.0848 -0.2248
18184W        W34318   8.761  12.499   5.200 -0.3736 -0.2090 -0.1579
18185W        W34319   1.086   1.097   2.217 -0.3155 -0.1598 -0.1771
18186W        W34320   5.264  13.328  14.811  0.0962 -0.2415  0.4224
18187W        W34321  14.406  17.499   2.553  0.2207 -0.1291  0.0282
18188W        W34322   8.342  15.236  14.982  0.3328 -0.1092 -0.0743
18189W        W34323  17.804  14.380  10.281  0.0738  0.1261 -0.0274
18190W        W34324   5.775   1.474  14.035  0.1948 -0.0998  0.3745
18191W        W34325   8.452  18.651  14.280 -0.1518  0.2442  0.3088
18192W        W34326   6.769   6.291  14.714  0.0603 -0.1299 -0.0622
18193W        W34327  15.988  11.016  13.259 -0.0790 -0.0766 -0.4652
18194W        W34328   7.775  16.070   5.008  0.2490 -0.0291  0.1128
18195W        W34329   9.223   3.934   0.121  0.0134 -0.0221 -0.2104
18196W        W34330  13.282   2.026   4.318  0.1486 -0.0448  0.0081
18197W        W34331  13.061  16.068   1.236 -0.1562 -0.0087  0.1667
18198W        W34332  15.644   1.763  10.897  0.1765  0.0455 -0.2935
18199W        W34333  14.354  18.433  11.646 -0.1316 -0.1584  0.2316
18200W        W34334  17.232  14.752  15.373  0.2718  0.0112  0.1812
18201W        W34335   8.026   3.153  10.471  0.1235  0.3155  0.0135
18202W        W34336  10.238  13.776   0.457 -0.0027 -0.1362  0.0729
18203W        W34337   4.479   4.497   2.251 -0.1058  0.3184  0.0846
18204W        W34338  13.159   7.942   4.726 -0.0111 -0.2718  0.1365
18205W        W34339   4.041   3.832  12.409  0.1563 -0.0422  0.1355
18206W        W34340   6.592   3.451   5.376  0.2125  0.0295  0.0200
18207W        W34341  12.259   9.037  15.036 -0.0430  0.2837 -0.2210
18208W        W34342  12.732  12.777   1.176  0.1042  0.0081 -0.0586
18209W        W34343  12.124   5.767  12.121  0.0276  0.0324  0.3609
18210W        W34344  12.758   6.889  12.022 -0.1293  0.0396 -0.0765
18211W        W34345   4.863   9.959   4.752  0.0465  0.1774 -0.1956
18212W        W34346  13.065  12.000   4.555  0.1250  0.1832  0.1487
18213W        W34347  18.605   9.485   1.290 -0.0019  0.2770  0.0461
18214W        W34348   1.930  10.556  15.371  0.4909 -0.0296  0.1722
18215W        W34349   8.545  11.665  12.209 -0.2202  0.1299  0.0854
18216W        W34350  12.945  14.119  11.943 -0.1522  0.0530 -0.2373
18217W        W34351   0.785  11.400   4.078 -0.0483  0.0010  0.3621
18218W        W34352   1.790   2.148   3.560 -0.2108  0.0373  0.1618
18219W        W34353   8.648   1.537  12.202  0.0969  0.2156 -0.0858
18220W        W34354  14.792   9.630  14.784 -0.1390  0.0416 -0.0120
18221W        W34355   6.021   8.974   3.194 -0.0105 -0.0195  0.0911
18222W        W34356  15.815  13.893   1.545  0.3295  0.0599 -0.4882
18223W        W34357   5.102  10.611   5.048 -0.1489 -0.2901  0.2329
18224W        W34358  18.433   6.349  12.800 -0.3490  0.2190  0.3232
18225W        W34359  11.104   1.229  15.177  0.0909 -0.2546  0.0361
18226W        W34360  15.939   3.638   2.866  0.0056 -0.0524 -0.2988
18227W        W34361   6.116   5.531  11.000  0.1904  0.2026  0.5311
18228W        W34362  15.904  17.881   3.137 -0.1714 -0.2217 -0.0358
18229W        W34363  11.637  10.431   2.184 -0.1149 -0.1243  0.1002
18230W        W34364  15.199  16.708  12.414 -0.0234 -0.1266  0.1947
18231W        W34365   9.628   9.092   0.252 -0.1012  0.0313 -0.0289
18232W        W34366  16.725  16.891  11.150 -0.0271 -0.1965 -0.0457
18233W        W34367   0.037   8.575   2.658 -0.0302  0.0916 -0.1920
18234W        W34368  13.287   4.739  10.518 -0.0139  0.3733 -0.3262
18235W        W34369   6.375   8.140   3.958 -0.1896  0.0890 -0.0226
18236W        W34370  16.220   6.955  10.409 -0.0403 -0.2228 -0.1254
18237W        W34371   5.341   3.084  14.342  0.3412 -0.1385 -0.1147
18238W        W34372   9.124   7.654   2.017 -0.1787  0.2370  0.0708
18239W        W34373   9.743  17.283   0.920 -0.2513 -0.2993 -0.0742
18240W        W34374   0.966   2.476   1.213  0.0009  0.0185  0.1360
18241W        W34375   5.228  10.475   9.843  0.2933 -0.2743 -0.3062
18242W        W34376   0.844   0.228   5.912  0.2637  0.1972 -0.4419
18243W        W34377  12.565   5.326   4.925  0.0166  0.0403  0.1131
18244W        W34378  15.096  15.339  12.114  0.0479  0.1379  0.0196
18245W        W34379  16.528   5.003  13.886  0.3087  0.1721  0.0918
18246W        W34380   5.122   4.105  13.676  0.1278  0.2687  0.3650
18247W        W34381  17.827  10.053   1.519 -0.0576  0.3001  0.1052
18248W        W34382  17.119  17.532   0.796 -0.1066 -0.0987 -0.2151
18249W        W34383   9.519   5.680  12.333  0.1496  0.0766 -0.1595
18250W        W34384  15.618   3.118   4.793  0.0425  0.0854 -0.0734
18251W        W34385   6.878   7.916   3.632  0.3317  0.1209 -0.0406
18252W        W34386   2.977   7.606  15.048 -0.0770 -0.0260  0.4372
18253W        W34387   8.152   5.211   2.841 -0.2600 -0.0085  0.1876
18254W        W34388   5.205   8.127  13.525 -0.1351 -0.3869  0.4468
18255W        W34389  10.344  15.426   0.069  0.0201 -0.0732  0.0511
18256W        W34390  12.544   0.381   0.093  0.0527 -0.1294  0.2432
18257W        W34391  13.138   3.568  12.250 -0.1978 -0.1861  0.1198
18258W        W34392  16.986  18.599  14.440 -0.0015 -0.0827 -0.0365
18259W        W34393  12.996  15.986  10.502 -0.2555  0.2242  0.0363
18260W        W34394  14.114   8.133  14.012  0.2145 -0.3057 -0.0506
18261W        W34395  14.077   2.104  12.763 -0.0231  0.0335  0.1688
18262W        W34396   4.498   4.309   3.773  0.1025  0.4027  0.1235
18263W        W34397   7.180   1.200   1.238  0.4551 -0.1009 -0.0321
18264W        W34398  15.944  17.354   2.763  0.2467 -0.1321 -0.3082
18265W        W34399   8.876   1.915   3.281 -0.1051  0.2752 -0.1499
18266W        W34400  18.376  11.541  11.759 -0.4229 -0.2556 -0.2524
18267W        W34401   9.687  11.426   4.872  0.4920  0.2165  0.2529
18268W        W34402   2.381  15.140  13.210  0.1103  0.3817  0.2007
18269W        W34403   5.971   8.786  13.505 -0.1499  0.1676 -0.0644
18270W        W34404   9.266   7.280   1.736  0.3093 -0.3488 -0.0414
18271W        W34405   6.106  17.771  10.921 -0.1876 -0.0649  0.2589
18272W        W34406   6.792  15.290   3.037 -0.3495  0.3892  0.0179
18273W        W34407   1.748   5.423  13.895 -0.1199 -0.3530  0.4914
18274W        W34408   0.534   7.125   1.847  0.0768 -0.1334 -0.1919
18275W        W34409   6.098  15.601  12.733 -0.3994 -0.0956  0.0226
18276W        W34410   9.702  14.803   4.445 -0.0855  0.3666 -0.2639
18277W        W34411   6.500   1.233   0.639 -0.1439  0.0892 -0.1738
18278W        W34412  14.219   6.233  15.383  0.0235 -0.0125 -0.0839
18279W        W34413  13.151  16.073  15.495 -0.1032 -0.0984  0.3313
18280W        W34414   5.148  15.854   3.771  0.0275 -0.0920 -0.0969
18281W        W34415  10.571   2.148  12.609  0.0821 -0.1383  0.2009
18282W        W34416  15.760  11.603  12.274 -0.0693  0.3045 -0.4681
18283W        W34417  16.001  14.590   4.586  0.1706  0.0214 -0.1805
18284W        W34418   1.318   5.287   0.971  0.0401 -0.0473 -0.1667
18285W        W34419  17.660  16.838  11.420  0.1318 -0.2004  0.2270
18286W        W34420   6.812   9.723   2.409 -0.2382 -0.1914  0.1900
18287W        W34421   0.533  16.055  13.529 -0.1144 -0.3065 -0.0600
18288W        W34422   5.850   6.145   2.320 -0.1159  0.0684 -0.1140
18289W        W34423   0.077   4.284   1.734  0.1069 -0.1010 -0.0729
18290W        W34424  11.254  11.757   4.696 -0.0880  0.0938 -0.1302
18291W        W34425  12.675   1.089  12.067 -0.0260 -0.0356 -0.2222
18292W        W34426   2.329   8.338   2.230 -0.1735 -0.1685  0.1132
18293W        W34427   6.561   4.677   2.391  0.1195  0.1481 -0.2029
18294W        W34428   1.824   5.795   5.644 -0.0648  0.0956  0.2446
18295W        W34429  15.089  14.914  12.344 -0.2767 -0.4416  0.3462
18296W        W34430  11.851   7.535   1.609 -0.1412 -0.2008 -0.0052
18297W        W34431   3.491   1.346  11.887  0.2877  0.0805 -0.1375
18298W        W34432  11.383   9.356  10.542  0.0021 -0.1116  0.0205
18299W        W34433  14.796  11.352   1.724 -0.0554  0.1576  0.2757
18300W        W34434   4.939   9.541  15.388  0.1634  0.1087 -0.0357
18301W        W34435  18.144  16.421  14.715  0.0375 -0.0104  0.0375
18302W        W34436  12.084   7.667   0.774  0.0355  0.0743 -0.1223
18303W        W34437   1.869   1.791   0.294 -0.1903 -0.1259 -0.1062
18304W        W34438   6.870  14.867   3.608 -0.0462 -0.0886  0.0570
18305W        W34439  15.205  11.765  12.299  0.1680  0.0925 -0.0259
18306W        W34440   6.458   3.517  10.822  0.0329 -0.1264 -0.0061
18307W        W34441  11.613  13.342  15.271  0.0135  0.2938 -0.1724
18308W        W34442  10.475  10.734   5.069  0.0069  0.1537 -0.0390
18309W        W34443   5.566   8.200   4.572  0.0811 -0.0130  0.3594
18310W        W34444  15.616   3.742  12.616 -0.1388 -0.0192 -0.0330
18311W        W34445  11.301   2.164  12.942 -0.0254  0.2284  0.1481
18312W        W34446  12.798  14.815   0.910  0.0689 -0.1420 -0.4206
18313W        W34447   4.918  11.439   0.961  0.1903  0.1216  0.0135
18314W        W34448  12.128  13.366   3.630 -0.0592  0.0540  0.2560
18315W        W34449  13.726  13.495   3.001 -0.0374  0.0299  0.0995
18316W        W34450   2.906  17.750   3.592  0.2831  0.0626 -0.3670
18317W        W34451  14.804  18.731  15.562 -0.1169 -0.0389  0.1962
18318W        W34452   8.787  16.709  10.941 -0.1889 -0.1666 -0.1506
18319W        W34453  18.445  13.935  14.922 -0.2101  0.1214 -0.0025
18320W        W34454  11.912  15.773   1.367  0.0378 -0.2748  0.2016
18321W        W34455  13.732  11.409   1.596 -0.0398  0.6047  0.0644
18322W        W34456   1.134   6.716  11.617  0.0362 -0.1673 -0.3362
18323W        W34457   3.287   5.376   0.047  0.0013  0.0302 -0.2152
18324W        W34458   6.237   0.855  12.629 -0.3626 -0.2525  0.1488
18325W        W34459  17.007  10.442  11.185  0.0907  0.0614  0.1189
18326W        W34460  12.145   3.324   0.887 -0.0899  0.1189  0.0973
18327W        W34461   2.598   5.101  15.228 -0.0417  0.0636 -0.0569
18328W        W34462   1.838   2.703  11.148 -0.2463  0.0989  0.0891
18329W        W34463   8.935  18.567   5.340  0.1527 -0.1892  0.3793
18330W        W34464   1.722  18.113  11.440 -0.2655 -0.0165 -0.1341
18331W        W34465   7.442   4.650  10.473 -0.3840  0.2454 -0.1507
18332W        W34466  15.647   2.977  15.497  0.2483  0.1631  0.0958
18333W        W34467  12.884  17.758   0.346  0.0742 -0.0823 -0.1358
18334W        W34468  13.500  14.246   4.663 -0.0319 -0.0641 -0.0730
18335W        W34469   3.517  13.304  13.415  0.1065  0.3955  0.1240
18336W        W34470   0.286   6.541   9.954  0.0937  0.3590  0.5108
18337W        W34471   4.080   8.564   5.773 -0.3571 -0.2636  0.1202
18338W        W34472   1.980   0.624  15.416  0.0828  0.0187 -0.0472
18339W        W34473   9.951  15.537  13.408  0.1498 -0.0473 -0.1273
18340W        W34474  18.150   1.192   3.383  0.2143 -0.0561  0.2844
18341W        W34475  17.914   3.779   4.640 -0.1590  0.0446  0.0556
18342W        W34476   0.532   8.141  11.604  0.1556 -0.0026 -0.1267
18343W        W34477   7.718  18.113  12.186  0.1959 -0.1744  0.0430
18344W        W34478   5.492   7.802  13.735  0.0161 -0.4173  0.2222
18345W        W34479  11.417   6.014   3.244 -0.0344 -0.1675  0.1922
18346W        W34480   5.188  16.732  13.917 -0.0019  0.1129 -0.1105
18347W        W34481  13.814  10.131   3.547  0.0452 -0.2424 -0.0628
18348W        W34482  10.578  10.582   4.524 -0.0200  0.3474  0.1165
18349W        W34483   6.616  17.557  11.661  0.0420  0.1709  0.2463
18350W        W34484   6.582   2.555   1.178 -0.0672 -0.1907 -0.1113
18351W        W34485  18.078   8.102   3.979  0.0823  0.0897  0.0019
18352W        W34486   3.889  14.481  14.801 -0.2130  0.0297 -0.2526
18353W        W34487  17.287   9.661  12.270 -0.0802  0.1505 -0.0775
18354W        W34488   4.970   5.951  14.536  0.0126 -0.0224  0.0302
18355W        W34489  16.948   6.899  13.897  0.5421  0.0157  0.0014
18356W        W34490   3.421   1.593  12.402 -0.1082 -0.3730  0.0720
18357W        W34491   5.290   0.560  12.399 -0.1854 -0.0357  0.3685
18358W        W34492   3.635   8.137  11.245 -0.0400  0.2981  0.1184
18359W        W34493  15.685   1.135   5.072  0.2230 -0.0569 -0.2202
18360W        W34494  12.593  16.605  11.674  0.0320 -0.1929  0.2350
18361W        W34495   1.732   2.101  14.885  0.0497 -0.0054 -0.2179
18362W        W34496   8.071   3.037  11.760  0.0959 -0.1694 -0.2110
18363W        W34497   0.274  10.485  14.153  0.0553  0.1294  0.0887
18364W        W34498   4.820  15.936  11.511  0.0037  0.1869  0.0487
18365W        W34499  18.123  10.915   1.876  0.1197 -0.0126 -0.1439
18366W        W34500  14.360   1.809   4.860 -0.1481 -0.0513 -0.0090
18367W        W34501  14.209  15.208   9.719 -0.2216 -0.0873 -0.0073
18368W        W34502   1.629  14.797   1.759  0.0567  0.0561 -0.0713
18369W        W34503   3.358   7.115  13.345  0.0638  0.2557 -0.0520
18370W        W34504   1.136   2.833  12.646 -0.0022  0.2860 -0.1092
18371W        W34505   7.181   3.829   1.425  0.2411  0.1036 -0.2417
18372W        W34506  16.786  11.567   2.448 -0.0384  0.0915  0.0193
18373W        W34507  10.860   7.267   2.858 -0.4161  0.3024  0.1784
18374W        W34508  17.454  17.994   5.740 -0.4363 -0.1387 -0.0122
18375W        W34509   8.508  16.699  15.044 -0.2310  0.0433 -0.0314
18376W        W34510  10.157  13.423   2.383 -0.2449 -0.0058  0.0903
18377W        W34511  11.334   4.478   2.083  0.0936 -0.1014  0.0814
18378W        W34512  17.470  17.591  14.033 -0.0449 -0.0856 -0.2480
18379W        W34513  15.862  13.608   1.982  0.0178 -0.0338  0.0246
18380W        W34514  11.165  18.070   4.484  0.1672 -0.1268 -0.1175
18381W        W34515   1.014   7.958  12.280  0.2828  0.0789 -0.0393
18382W        W34516   4.031  10.033  14.598  0.1152 -0.2629 -0.1067
18383W        W34517   3.195   0.747   2.684  0.0743 -0.0438 -0.3001
18384W        W34518   4.183  14.242   2.168  0.0115  0.3445  0.0279
18385W        W34519  11.623  17.321   0.521  0.0047 -0.2462  0.1359
18386W        W34520   7.475  15.941   1.866  0.2545  0.3328 -0.0363
18387W        W34521   7.912   4.189  12.919  0.0567  0.1145  0.1294
18388W        W34522   0.397  15.391   2.486  0.1517 -0.0636 -0.0532
18389W        W34523   2.328   6.551  14.965 -0.1576 -0.0076 -0.0493
18390W        W34524   0.897   8.576   2.839  0.1667 -0.1190  0.2173
18391W        W34525   2.530   4.361  12.008  0.2474  0.3917 -0.1585
18392W        W34526   0.012   8.013  14.285  0.1333  0.1922 -0.0647
18393W        W34527  13.158  13.724  12.596  0.1192 -0.0737 -0.3774
18394W        W34528   1.129   6.719   4.867  0.2424 -0.0497  0.1482
18395W        W34529   7.982  14.407   4.587  0.2530 -0.1723  0.2857
18396W        W34530  16.441   7.653   0.979 -0.1964 -0.4466 -0.2345
18397W        W34531  17.163  14.324   2.222 -0.2849  0.0836 -0.1901
18398W        W34532   0.134   4.685  13.664 -0.0306  0.4382 -0.0042
18399W        W34533  16.963   1.757   4.278  0.0680 -0.2321 -0.0840
18400W        W34534  17.719  17.808  13.640  0.2298 -0.2480 -0.0242
18401W        W34535  15.920   7.626  15.074 -0.0738  0.1601 -0.1294
18402W        W34536   3.636   1.755  10.947 -0.2523  0.2034 -0.2188
18403W        W34537  13.597  18.110  15.135 -0.0353 -0.3340 -0.0666
18404W        W34538  12.435  10.238  14.371 -0.3616 -0.0537  0.1869
18405W        W34539  16.126  15.539  14.794 -0.2519  0.1887 -0.0333
18406W        W34540   6.461   8.815  13.760 -0.0042 -0.1974 -0.3460
18407W        W34541   1.715   7.248  12.960  0.0607  0.1308  0.0175
18408W        W34542   6.365   6.361  11.473 -0.0206  0.1380  0.0277
18409W        W34543  14.871  13.356  12.491 -0.1139 -0.2112 -0.0049
18410W        W34544  16.007   8.067  14.733  0.4868 -0.0046  0.0620
18411W        W34545   8.524   7.617   4.160 -0.0233  0.1803 -0.1974
18412W        W34546  11.676  12.901   3.078  0.4832 -0.0161  0.0519
18413W        W34547  10.670  17.433  14.562  0.0453  0.0021 -0.2242
18414W        W34548   5.925   8.317  10.162  0.0266 -0.1799 -0.0384
18415W        W34549   3.181  18.452   5.660  0.0148 -0.0122  0.2129
18416W        W34550   3.774   2.808   3.765  0.0706  0.0058 -0.1999
18417W        W34551  12.648   1.252   0.161 -0.2281 -0.0637  0.0406
18418W        W34552   0.983  10.911   4.109  0.3170  0.2053  0.0036
18419W        W34553   1.987  17.632  11.667 -0.0545 -0.1084 -0.1477
18420W        W34554   9.356  14.023  13.043  0.0099 -0.3189  0.1206
18421W        W34555  14.581  18.452   1.019  0.0835 -0.1318 -0.3262
18422W        W34556   5.855  11.436  10.920 -0.3316 -0.0439 -0.1883
18423W        W34557  15.914   6.235   2.151  0.0888 -0.2431  0.0679
18424W        W34558   4.907   8.852   0.333  0.1999 -0.0734  0.0232
18425W        W34559  16.589   9.191  10.926 -0.2656  0.1940 -0.1639
18426W        W34560   0.673   1.649  13.836  0.1381 -0.0821  0.0052
18427W        W34561   4.635   4.248   0.088  0.0387 -0.1358  0.1949
18428W        W34562   0.387  12.199   4.746 -0.1241 -0.0141 -0.1354
18429W        W34563   5.592   4.618   3.516  0.0460 -0.0931 -0.0379
18430W        W34564  13.946   5.329  13.002  0.1069 -0.1531  0.1763
18431W        W34565  11.012  18.188   4.976 -0.0836  0.3065 -0.0690
18432W        W34566  10.077   6.102  15.076  0.0022  0.1586  0.0131
18433W        W34567   4.373  10.685  12.975 -0.3003 -0.2695  0.1090
18434W        W34568  12.597  18.609  15.572 -0.3040  0.1487  0.1569
18435W        W34569  15.316  10.545   4.745 -0.1875  0.0992 -0.0355
18436W        W34570  12.557   1.453  11.051  0.2300 -0.1624  0.1003
18437W        W34571  14.688   0.930   3.268  0.2016  0.0455 -0.0116
18438W        W34572  12.175  16.842  12.302  0.1039  0.2738 -0.1841
18439W        W34573  13.479  17.803   1.915  0.1600  0.0600  0.0065
18440W        W34574   7.021   4.654  13.760  0.1234 -0.1975 -0.0257
18441W        W34575  15.756  14.869  12.320  0.1002 -0.2279  0.1780
18442W        W34576  15.580  17.797   2.142  0.0121  0.2404 -0.0544
18443W        W34577   2.983  11.546  14.467  0.0499 -0.0144  0.2484
18444W        W34578  11.832   9.667   2.473  0.0013 -0.1986 -0.0678
18445W        W34579  13.197   8.351  11.122 -0.0496  0.1476  0.1134
18446W        W34580   0.223   1.467   0.538  0.1473 -0.0767  0.1979
18447W        W34581   1.548  10.778  13.817 -0.0105 -0.0192  0.2122
18448W        W34582   9.181   2.209   3.683 -0.0204  0.2121 -0.4066
18449W        W34583   5.056  10.092  10.976  0.0709  0.0808  0.4607
18450W        W34584  14.567  15.980  14.486 -0.0310  0.0088  0.2388
18451W        W34585   3.525  10.677  13.061 -0.0071  0.0263 -0.2852
18452W        W34586   1.146  17.758  10.094  0.0619  0.3315  0.0727
18453W        W34587  16.095   8.958  11.103 -0.0442 -0.3504 -0.0954
18454W        W34588  10.018  17.310  14.073 -0.0385 -0.1021  0.0505
18455W        W34589  15.435   6.249   0.239 -0.1237  0.4978 -0.0428
18456W        W34590   8.347  10.215   5.163  0.3041 -0.0843  0.1406
18457W        W34591   0.747   8.295   6.103 -0.1238  0.0037 -0.2072
18458W        W34592  11.900  12.918  12.425 -0.0240  0.1627  0.1408
18459W        W34593   8.382   4.256  12.761  0.0062 -0.0942  0.2199
18460W        W34594  17.007   4.105   3.902 -0.3154  0.4260 -0.1253
18461W        W34595  11.800   0.909   5.209 -0.4548  0.1162  0.0240
18462W        W34596  14.410   0.939   0.200 -0.3028  0.2356 -0.0209
18463W        W34597  17.175  18.417  14.922  0.3234 -0.0028  0.1011
18464W        W34598   3.935   2.523  14.361  0.0461  0.0323  0.0613
18465W        W34599  12.035  12.156  14.583  0.1049  0.1592  0.2379
18466W        W34600  16.320   6.445  15.394  0.0724 -0.1434 -0.3010
18467W        W34601  12.669   5.019   0.188  0.3288  0.0980 -0.0642
18468W        W34602  18.436  12.257   2.380 -0.2814  0.5995 -0.1289
18469W        W34603  17.504   9.794   4.200 -0.1385 -0.1483 -0.0311
18470W        W34604   6.022   5.725  13.048 -0.2964  0.2734  0.2266
18471W        W34605   9.772  14.713  13.085 -0.0919  0.3145  0.2468
18472W        W34606   0.925  11.687  11.021  0.0955 -0.1919 -0.0021
18473W        W34607  10.963   7.608  14.673 -0.1997  0.2101 -0.2642
18474W        W34608  13.008   4.347  14.449  0.6783  0.1663  0.0080
18475W        W34609   9.115   1.860   4.839  0.2077  0.2241  0.0636
18476W        W34610  11.621   3.742  11.418  0.2100  0.1317  0.0855
18477W        W34611  17.267   7.116  13.581 -0.0774  0.0203 -0.0951
18478W        W34612   7.177  16.354  12.040  0.1486 -0.0435 -0.0610
18479W        W34613  13.251  11.683  12.878 -0.1257 -0.0753  0.0688
18480W        W34614   6.185   3.970  13.735  0.1606 -0.2958  0.2295
18481W        W34615   1.620   2.780   4.823 -0.0312 -0.0726  0.1013
18482W        W34616   2.034  12.014   5.701 -0.1159 -0.2364 -0.4580
18483W        W34617  11.263   4.779  12.906  0.0205 -0.1608  0.0704
18484W        W34618   7.392   3.724   5.169 -0.3598  0.0969 -0.1136
18485W        W34619  10.692  10.269   3.384 -0.1189  0.2253 -0.4609
18486W        W34620  12.200  17.614  12.094 -0.2378  0.0950  0.0575
18487W        W34621  18.651  14.774   1.266  0.2788  0.1976 -0.1005
18488W        W34622  18.248   0.289   0.359  0.0187  0.1522  0.0578
18489W        W34623  13.196  14.298   3.050  0.2299 -0.4261 -0.2451
18490W        W34624   5.785   9.306   4.077  0.3252 -0.0489 -0.1300
18491W        W34625  13.786  18.024  11.093  0.1816  0.1060  0.2131
18492W        W34626  18.483   3.735  13.133  0.2196 -0.0925  0.0864
18493W        W34627   8.170  10.984  11.761 -0.1238 -0.0325 -0.4292
18494W        W34628   3.657  11.167  12.844  0.2018  0.2018 -0.0135
18495W        W34629   0.059  13.179   2.662  0.0067 -0.0555  0.1112
18496W        W34630  10.000   2.788  15.466 -0.1954  0.1959 -0.2807
18497W        W34631   4.160   9.100  13.338 -0.2269 -0.1410  0.1816
18498W        W34632   2.257  14.300   2.686 -0.1639 -0.1571  0.2677
18499W        W34633   4.190  17.354   3.830  0.4984 -0.0888  0.1973
18500W        W34634   3.509  13.244   1.051 -0.1757  0.0457 -0.0538
18501W        W34635   0.661   9.395  13.343 -0.1052  0.0184 -0.3258
18502W        W34636   1.710  14.990  15.478  0.2617  0.2404  0.0148
18503W        W34637   5.347   4.603  12.029  0.0220  0.1724  0.1097
18504W        W34638  16.447  18.427   5.614 -0.0549  0.2124 -0.0032
18505W        W34639   9.798  11.023  13.277 -0.1690 -0.1279 -0.1404
18506W        W34640  17.518  18.700   0.362  0.0591 -0.0700  0.0636
18507W        W34641   9.306   8.161   1.172  0.0711  0.2946 -0.0351
18508W        W34642   1.363  17.355  14.575 -0.0825  0.0479 -0.4154
18509W        W34643   6.420  17.277   4.085  0.2688 -0.3523 -0.1383
18510W        W34644   3.010  11.542  11.293  0.0968 -0.1694 -0.1456
18511W        W34645  10.182   1.241  10.082 -0.0006  0.2452 -0.1480
18512W        W34646   3.783  17.426  12.925 -0.0530 -0.2448  0.1622
18513W        W34647   8.681  15.619  11.781  0.0465 -0.2328  0.0662
18514W        W34648   7.340  18.377   1.968  0.2717 -0.1132  0.1038
18515W        W34649  12.024  15.103   3.994  0.4472  0.1812  0.0444
18516W        W34650   2.233   7.980  14.113  0.2257 -0.0776  0.1193
18517W        W34651   2.803   5.304  13.819 -0.0326  0.2806  0.2334
18518W        W34652  18.395  11.375  11.282 -0.0420 -0.0662 -0.2068
18519W        W34653  16.385  16.427  14.397  0.3157  0.1314  0.0359
18520W        W34654   5.503  17.520  15.081  0.1052  0.0404  0.4577
18521W        W34655  16.438  17.702   2.789  0.0388  0.0256  0.0690
18522W        W34656   0.274  10.828   1.482  0.0661 -0.0452 -0.0547
18523W        W34657  15.591   3.795   3.602 -0.1648 -0.0941  0.1355
18524W        W34658   8.727   1.791  13.726 -0.0402 -0.1351  0.2424
18525W        W34659   2.627   0.015   2.302  0.0453  0.2596  0.3442
18526W        W34660  11.966  10.467  14.559  0.4129 -0.1216  0.1576
18527W        W34661   4.510  12.960   5.530 -0.1678  0.1121 -0.1428
18528W        W34662  13.974   0.412   3.699  0.2505  0.1691 -0.0899
18529W        W34663   2.072  10.390   2.337  0.1351 -0.1001  0.0099
18530W        W34664  15.043   4.543  11.633  0.0287 -0.1088 -0.1887
18531W        W34665  15.077   8.635  14.195 -0.1759  0.1523 -0.2023
18532W        W34666  11.019  10.707  12.006 -0.1072 -0.2747 -0.0776
18533W        W34667  17.698  12.830   5.336  0.3068  0.1742  0.0015
18534W        W34668   1.963  17.337  14.559 -0.1061  0.3443  0.1940
18535W        W34669   0.305   9.784  12.030 -0.0519  0.1571 -0.1232
18536W        W34670   9.977  11.592  11.322 -0.0896 -0.1008 -0.0516
18537W        W34671  14.275  17.882   0.326  0.1820  0.2183  0.1525
18538W        W34672   3.448  11.849  11.187  0.2757 -0.1583  0.0105
18539W        W34673   3.473   4.768   2.575  0.1573  0.0590  0.2425
18540W        W34674   5.180  15.632  15.043 -0.0791  0.2059 -0.3450
18541W        W34675   8.190   7.100  11.609 -0.1524  0.1468 -0.2063
18542W        W34676   9.142   8.722  13.001 -0.1195  0.2027  0.4644
18543W        W34677   7.009   7.172   0.145 -0.2543  0.0353 -0.0345
18544W        W34678  17.919   2.641  13.891 -0.1065  0.2543 -0.0362
18545W        W34679   6.603  14.114   2.077  0.0948  0.0185  0.2897
18546W        W34680   8.519   8.050   3.521 -0.2039 -0.1526  0.0212
18547W        W34681   7.115   3.266   4.889 -0.0584 -0.0975 -0.1774
18548W        W34682  10.776   9.235  13.717  0.1781 -0.0216  0.1980
18549W        W34683  10.320  11.719   3.891 -0.0423  0.1547  0.1574
18550W        W34684   0.237  17.753   4.728 -0.1377 -0.3112 -0.2708
18551W        W34685   5.412  16.385  15.448  0.0664  0.1422  0.2369
18552W        W34686   3.877   9.415   0.499 -0.1852  0.2394 -0.2100
18553W        W34687  17.895   3.725   3.167 -0.0230  0.2827  0.2049
18554W        W34688   5.436  13.628   4.163 -0.0780 -0.1686  0.4399
18555W        W34689   5.039  12.921   4.836 -0.0019 -0.0238 -0.1056
18556W        W34690   0.109   7.527   1.452 -0.1421  0.0083 -0.0371
18557W        W34691   6.306   6.068  14.513 -0.1313 -0.2687  0.0722
18558W        W34692  18.469  11.502   3.510 -0.1309  0.1598  0.0551
18559W        W34693  10.645  15.692  14.783 -0.1502 -0.2399 -0.4198
18560W        W34694  14.360   9.650   3.736  0.0089  0.0016 -0.2248
18561W        W34695   2.112   6.872   0.465  0.1423 -0.0027  0.2175
18562W        W34696   8.778  15.923  14.495  0.2602 -0.2639 -0.0259
18563W        W34697   5.298   2.502   3.808 -0.0309 -0.2174  0.0282
18564W        W34698   0.204  17.706   2.465  0.2304  0.2213  0.1043
18565W        W34699   5.586   2.436   2.313  0.0469  0.2995  0.1339
18566W        W34700   0.253  11.891  15.422 -0.0827  0.1999 -0.0488
18567W        W34701  17.148  13.039  11.193 -0.0798  0.0930 -0.0090
18568W        W34702  13.986   0.253   1.515 -0.1716 -0.2203  0.0250
18569W        W34703  17.800   8.965   1.049  0.0279  0.0442 -0.2551
18570W        W34704  16.028   2.129  11.132  0.0084 -0.0129 -0.2556
18571W        W34705   3.821  15.332  14.905 -0.1582 -0.0998  0.2667
18572W        W34706   1.548  15.073   3.295  0.2606 -0.0610  0.1142
18573W        W34707   2.559   1.970  12.182  0.0619  0.0638  0.1510
18574W        W34708  10.486   4.166   0.163  0.1465  0.0595  0.0961
18575W        W34709   3.191   4.815  11.882  0.1292 -0.0840  0.0704
18576W        W34710   4.058   5.261   4.389 -0.1057  0.1626  0.1565
18577W        W34711  12.500   0.522   0.569 -0.1474 -0.2679 -0.1788
18578W        W34712   8.266  10.354   4.224  0.1685 -0.2580 -0.1659
18579W        W34713   6.294  16.672   0.801  0.2690 -0.0757  0.0079
18580W        W34714   4.533  18.164  11.176 -0.1436  0.2531 -0.2326
18581W        W34715   3.766  14.877  15.128  0.1155 -0.1925 -0.0942
18582W        W34716   3.619  18.169  12.499  0.1223 -0.1441 -0.0324
18583W        W34717  14.689   0.235  12.352  0.2208 -0.0035  0.1482
18584W        W34718  18.473  12.456   0.955 -0.1042 -0.2005 -0.0117
18585W        W34719   6.365   4.578  10.699 -0.0619  0.0178  0.0418
18586W        W34720  11.766  10.735   4.137  0.1587  0.2164  0.2209
18587W        W34721   7.659  16.796  13.870 -0.1230 -0.0160 -0.1585
18588W        W34722  15.662   6.760   2.173 -0.3037  0.2826 -0.3650
18589W        W34723  13.313  14.581  14.394 -0.0586 -0.1030  0.3988
18590W        W34724  18.173  10.664  11.957  0.3656  0.0569 -0.2080
18591W        W34725  16.570   6.680  12.013  0.1000 -0.3062  0.0124
18592W        W34726   6.641  16.826  12.809 -0.1003  0.2447 -0.0842
18593W        W34727   1.929   8.261  11.290 -0.0549  0.3237 -0.0437
18594W        W34728   7.204   7.097   0.554  0.0715  0.0810 -0.2054
18595W        W34729   6.290   6.232   5.111 -0.0438 -0.0151  0.2109
18596W        W34730   5.243   4.704   5.298 -0.1618 -0.0279 -0.1579
18597W        W34731   8.152  10.629   3.015  0.3553 -0.0203  0.4019
18598W        W34732   6.719   0.378   0.259  0.0434  0.1679  0.1233
18599W        W34733  16.138  12.284  11.547 -0.0713 -0.0682  0.1609
18600W        W34734   6.603  17.757   1.941 -0.0664 -0.1056 -0.0696
18601W        W34735   6.265   4.362   1.017 -0.1151 -0.3266  0.0684
18602W        W34736  10.088  10.320  14.452 -0.0034 -0.1851  0.0984
18603W        W34737  15.882  13.345  13.347 -0.0153 -0.0707 -0.0077
18604W        W34738   4.960  16.102   1.241 -0.1532 -0.0626  0.1172
18605W        W34739  12.158  10.015  15.378  0.1334  0.1402 -0.1338
18606W        W34740   2.443  16.566  11.934  0.0594  0.1883 -0.2158
18607W        W34741  11.580   6.335  13.863 -0.2660  0.0754  0.0959
18608W        W34742   4.221   2.831   5.710 -0.1432  0.0638 -0.0633
18609W        W34743   2.712   9.125   2.628  0.0080 -0.0331 -0.1446
18610W        W34744   4.093   3.420  14.493  0.0782 -0.0677 -0.0785
18611W        W34745   9.707  10.064  14.755 -0.0890 -0.1376  0.0081
18612W        W34746   5.251  11.683   5.968 -0.1887  0.3425 -0.0966
18613W        W34747  11.306   6.078  12.478 -0.0213  0.1869 -0.0543
18614W        W34748   8.936  13.634  13.247 -0.2314  0.2887  0.0982
18615W        W34749   8.272   9.916  12.373  0.1296  0.1141 -0.1239
18616W        W34750  13.181   2.044  15.158  0.0332  0.2630 -0.2506
18617W        W34751  11.267  16.773  14.990 -0.1688  0.0068 -0.0366
18618W        W34752  12.773   6.171  10.891 -0.2113  0.0640 -0.2301
18619W        W34753   2.781  14.420  10.428 -0.0075  0.0456 -0.3556
18620W        W34754  13.237   1.212   2.227 -0.0994  0.0842 -0.0263
18621W        W34755  15.434  12.535   9.765  0.0571 -0.0723  0.0147
18622W        W34756  11.392   5.251  14.189  0.2060  0.1987 -0.0975
18623W        W34757  12.561   7.079   2.828 -0.2445 -0.2963 -0.1601
18624W        W34758   5.001   2.622   1.916  0.2023  0.0381 -0.1953
18625W        W34759  18.060  15.446   4.869 -0.0851  0.1284  0.3958
18626W        W34760  17.335   1.746   3.332 -0.0758  0.0213 -0.3099
18627W        W34761  10.652  17.534   0.789 -0.1313  0.2005 -0.2630
18628W        W34762  13.479  11.727  10.390  0.0421 -0.3751  0.1835
18629W        W34763   8.449  17.267  14.240 -0.0673  0.0198  0.2724
18630W        W34764  11.029   5.727  14.397  0.1028 -0.2005 -0.0505
18631W        W34765  12.581   9.280   2.918  0.2217 -0.1485  0.3409
18632W        W34766   9.725  13.632  14.167  0.1186  0.1560 -0.1397
18633W        W34767   4.177   8.100  15.556  0.1878 -0.0042  0.0138
18634W        W34768  16.808  12.614   4.458  0.0200  0.0725 -0.1911
18635W        W34769  12.560  12.733   4.295 -0.2436  0.1110  0.2872
18636W        W34770  15.142  13.397  15.108 -0.0614  0.2198 -0.1134
18637W        W34771  17.780  18.398   1.935  0.0471 -0.3716 -0.2090
18638W        W34772  11.492   3.517  11.891  0.2609  0.2591 -0.2302
18639W        W34773  13.840  18.444  11.311 -0.3478 -0.0711  0.0924
18640W        W34774   2.981  16.444  14.650  0.0515  0.0916  0.1839
18641W        W34775  12.480   9.407  15.423  0.0309  0.0282 -0.0576
18642W        W34776   1.262  10.688   3.707  0.3486  0.5670 -0.0976
18643W        W34777  11.318  11.994  13.044  0.2895 -0.4463  0.0399
18644W        W34778   6.457   3.254   3.769  0.0108 -0.0220  0.1710
18645W        W34779  16.647  12.008  13.753 -0.0251 -0.3554  0.2751
18646W        W34780   7.279  16.242   3.491 -0.1452  0.1537  0.0365
18647W        W34781  10.391  14.948  15.300 -0.2918 -0.1643 -0.0830
18648W        W34782   2.270  12.113  14.980  0.2154  0.2113  0.0055
18649W        W34783   6.897   7.962   1.110 -0.0865  0.1361 -0.0136
18650W        W34784   9.165  13.267  11.119  0.3243 -0.1802  0.3970
18651W        W34785   4.634  14.122  13.787 -0.1949  0.4967  0.2419
18652W        W34786  15.518  12.049  12.080  0.2140  0.1410  0.0429
18653W        W34787   2.911  13.548  13.042 -0.3655 -0.3041 -0.0938
18654W        W34788   4.836  14.034   9.955 -0.0649  0.1784 -0.0176
18655W        W34789   1.438   8.252   0.241  0.1097  0.0390  0.3541
18656W        W34790  11.410  17.232  15.171  0.3189 -0.0362  0.0413
18657W        W34791  10.135   8.375  12.874 -0.0159 -0.2793 -0.3531
18658W        W34792  18.003  14.112  13.530  0.2872 -0.3870 -0.2007
18659W        W34793  13.721  13.890  14.148  0.1409 -0.0087 -0.1311
18660W        W34794   8.046  16.429   4.654 -0.1432 -0.0643  0.3280
18661W        W34795   6.870   2.010  14.156 -0.1396 -0.0646 -0.3101
18662W        W34796   7.839  10.140  11.767 -0.1203 -0.0785 -0.0005
18663W        W34797  17.759  16.137  11.975 -0.1487 -0.2311  0.0880
18664W        W34798   4.227  14.144  14.122 -0.1698  0.2101 -0.0311
18665W        W34799  16.413  11.282   2.298  0.1009 -0.2478  0.3377
18666W        W34800   9.901   6.040   4.453 -0.2967 -0.2757 -0.2410
18667W        W34801   9.602   7.713   1.721 -0.0618 -0.2969 -0.1834
18668W        W34802  15.835   5.661  12.326 -0.0708  0.0827 -0.1482
18669W        W34803   8.186   9.233   4.193  0.3140 -0.1332  0.0922
18670W        W34804  10.525  14.585   4.579  0.2094 -0.3041  0.1666
18671W        W34805   2.376   7.398  12.940 -0.0319 -0.2138  0.3631
18672W        W34806  12.692   2.300   1.934  0.1770  0.0670 -0.1490
18673W        W34807  11.597   5.725  13.217  0.1595 -0.0740  0.0777
18674W        W34808   1.304  10.669   4.354 -0.1249 -0.3209 -0.5848
18675W        W34809   5.636   2.590  11.768  0.1829 -0.0304  0.1676
18676W        W34810  15.287   6.085  13.098 -0.0377  0.0051 -0.2294
18677W        W34811  17.910   1.804   0.790  0.2091  0.1566  0.1462
18678W        W34812   1.237  13.237  13.133  0.0786 -0.0738 -0.2887
18679W        W34813   1.064  12.380   0.154 -0.1347  0.1121 -0.2589
18680W        W34814  10.519   7.720  14.472  0.3050 -0.0553  0.0099
18681W        W34815   3.927   0.898  13.339  0.1537  0.1575 -0.0051
18682W        W34816   4.808   3.880   3.789  0.2768  0.2551  0.2381
18683W        W34817   8.308  16.514  10.729  0.0257  0.0160  0.1430
18684W        W34818  13.890  12.025   2.515  0.0172  0.1005 -0.0756
18685W        W34819   2.722  13.099  11.364  0.0739 -0.3346  0.1457
18686W        W34820  12.711  17.008   3.157 -0.3015 -0.3438 -0.1878
18687W        W34821  17.366   2.538  15.353  0.0459  0.0461  0.0560
18688W        W34822   4.877  12.314  11.518  0.1096  0.1663  0.3493
18689W        W34823   2.896   8.933   0.805 -0.1950 -0.0898 -0.0557
18690W        W34824   8.498   6.107   4.273 -0.0148  0.5277  0.2221
18691W        W34825   4.525  16.048   4.919  0.2172 -0.1179  0.1899
18692W        W34826   6.864  15.502   9.910 -0.1571  0.1541 -0.0221
18693W        W34827   4.395  17.453  13.721  0.2347  0.3527  0.0013
18694W        W34828   7.784  11.968  12.743  0.4022  0.3405 -0.0208
18695W        W34829   5.810   4.870  14.380 -0.1719 -0.6222 -0.1220
18696W        W34830  17.119   3.862  12.183 -0.0126  0.2165 -0.3318
18697W        W34831   2.420   9.993   1.464 -0.0260 -0.0490  0.1217
18698W        W34832   9.634   9.831   0.189 -0.1970  0.0009  0.2430
18699W        W34833  15.086  15.359   0.168  0.3915  0.0616  0.0687
18700W        W34834  14.226  11.543  13.853 -0.0719 -0.2785  0.0821
18701W        W34835  14.793  18.679   3.049  0.0479  0.3203 -0.0452
18702W        W34836  14.375  13.540  14.730 -0.1372  0.1321 -0.0527
18703W        W34837  11.971   7.469   0.219 -0.0603  0.0259 -0.1390
18704W        W34838  16.270   6.654   5.148  0.1054 -0.1975 -0.0218
18705W        W34839  11.145  17.578   4.483 -0.0141  0.2541 -0.2915
18706W        W34840  10.861  13.184   2.821  0.0747 -0.0677  0.1830
18707W        W34841   8.802  15.394   1.327  0.1198  0.2633  0.2121
18708W        W34842   1.939  11.264  14.518  0.1031 -0.2427  0.1273
18709W        W34843  12.286  11.386   1.254 -0.0966 -0.0566 -0.1831
18710W        W34844   9.626  14.868   3.520 -0.1311  0.0929 -0.0110
18711W        W34845   3.630   8.259   3.139 -0.0155  0.1564  0.1681
18712W        W34846   2.144  10.773   2.648  0.1489 -0.1526  0.2064
18713W        W34847   9.758   9.069  14.501 -0.0066  0.0249 -0.2148
18714W        W34848  15.463  13.926  12.288 -0.0376 -0.1870 -0.1129
18715W        W34849  12.094  14.827  14.759  0.1877  0.0252 -0.0712
18716W        W34850  16.592   9.183   0.475  0.2590 -0.0196  0.3755
18717W        W34851   4.311  16.357   5.288 -0.2220  0.0611  0.0804
18718W        W34852  17.417   9.989  14.448  0.1670 -0.1529  0.0259
18719W        W34853   4.759  11.274  11.891  0.4436  0.0578  0.1823
18720W        W34854  14.771  18.477  10.593  0.0208 -0.0882  0.3079
18721W        W34855  13.792  11.918   1.569  0.1087  0.1612  0.1706
18722W        W34856  11.559  13.778   1.743  0.2265  0.1025  0.0777
18723W        W34857  12.311  14.309   4.458  0.1121  0.1781  0.1821
18724W        W34858  14.334  17.658  12.844  0.1306 -0.1978  0.1290
18725W        W34859   0.455  14.446   0.444  0.1083 -0.0059 -0.0828
18726W        W34860  14.881  10.695   5.113  0.0954 -0.0143 -0.0067
18727W        W34861  10.442   9.932   3.848  0.0811 -0.2819  0.1562
18728W        W34862   7.116  11.711  14.185  0.2500 -0.2511 -0.0683
18729W        W34863  12.582  17.291  14.376  0.1337 -0.0013 -0.0758
18730W        W34864  14.705   3.954   2.342 -0.0116  0.4296 -0.1270
18731W        W34865   7.893   0.187  10.551  0.1738 -0.0127  0.4691
18732W        W34866   0.961   0.454  12.143 -0.2661 -0.2757 -0.2793
18733W        W34867  13.092   2.773  14.870  0.2107 -0.0537 -0.1684
18734W        W34868  12.920  15.106   0.500 -0.2762 -0.1349  0.4978
18735W        W34869   8.075  14.229   2.076 -0.0531  0.1035  0.2514
18736W        W34870  15.601   7.954   0.768 -0.0546  0.0712 -0.3332
18737W        W34871  13.542   6.805  13.916 -0.0375  0.2868 -0.2814
18738W        W34872   4.441   7.125   5.455 -0.1162 -0.1504 -0.0871
18739W        W34873   4.917   0.441   2.846  0.3497  0.1675 -0.2527
18740W        W34874   9.160   5.686  14.374  0.1621 -0.2086  0.2479
18741W        W34875   8.452   9.160  10.737  0.0316  0.3161 -0.2828
18742W        W34876   5.126  16.958   2.254 -0.0958 -0.1605  0.0176
18743W        W34877   2.388  17.206   2.858 -0.1297 -0.1026 -0.0968
18744W        W34878  18.660   8.795  12.138 -0.1602  0.0712 -0.1566
18745W        W34879   2.345  11.199  14.957 -0.5005  0.4630  0.2620
18746W        W34880   8.244   8.674  12.774  0.1449 -0.1729 -0.3485
18747W        W34881  18.192  17.286  12.826 -0.2131 -0.2334 -0.0734
18748W        W34882   8.453   7.009   0.533  0.1234  0.2288  0.0844
18749W        W34883   2.184   3.851  14.328  0.1873 -0.0874  0.3755
18750W        W34884   6.689  13.577   3.953 -0.0361  0.4288  0.0341
18751W        W34885  17.178  10.732   0.031 -0.0029  0.1685  0.1102
18752W        W34886  17.637  10.696   1.076 -0.3524  0.2029  0.0061
18753W        W34887  14.913   5.041   2.246  0.0591  0.1021 -0.2513
18754W        W34888  18.508   2.104  14.382 -0.1312  0.1046 -0.1683
18755W        W34889  13.746  14.020   2.046 -0.0164  0.0974  0.1308
18756W        W34890   6.336  10.775   4.271 -0.5457 -0.0315 -0.0552
18757W        W34891   8.041   0.274  12.967  0.1091  0.3007 -0.1330
18758W        W34892  18.374  16.500   1.970  0.0998 -0.1990 -0.2372
18759W        W34893   4.979   4.824  15.278  0.2178 -0.1843  0.2872
18760W        W34894   7.740   3.684   2.718  0.0223 -0.2280 -0.1189
18761W        W34895  11.072   2.296  13.333 -0.0758  0.1727 -0.2391
18762W        W34896   1.131   8.339   1.373  0.0970  0.3317  0.1336
18763W        W34897   4.639  17.481   1.507 -0.1260 -0.1249 -0.0353
18764W        W34898  10.472  17.153   0.440 -0.1415 -0.0497 -0.1581
18765W        W34899  14.973   9.512  13.508 -0.0652  0.4038  0.1285
18766W        W34900  16.831  17.702  10.943 -0.0032 -0.1975  0.1393
18767W        W34901  15.378  11.538   0.843 -0.0024  0.1133 -0.0160
18768W        W34902   6.070   7.066   3.007 -0.3111 -0.1679  0.2526
18769W        W34903   0.885  16.977   1.364 -0.0979  0.0169  0.2409
18770W        W34904   6.823   6.710  13.367 -0.2003 -0.0031 -0.2722
18771W        W34905  18.493   9.210   5.796  0.1516 -0.3199  0.2923
18772W        W34906   5.863   6.391   4.778 -0.0164 -0.0327  0.1125
18773W        W34907  13.840  10.225  12.466 -0.2140  0.0059  0.5033
18774W        W34908  18.669   2.769  12.476 -0.1477 -0.4974  0.2212
18775W        W34909  15.796   2.147   0.028 -0.0091  0.0216  0.3921
18776W        W34910   2.746   9.203   6.005 -0.1158 -0.1745 -0.3018
18777W        W34911  10.923   7.406  13.894  0.0503 -0.0716  0.0047
18778W        W34912  15.628  16.327   2.762  0.1739  0.2121 -0.0426
18779W        W34913   0.091  11.461   1.976  0.0425 -0.0739  0.0113
18780W        W34914  13.775   9.856   4.036 -0.0877  0.2165 -0.0751
18781W        W34915  15.184   7.112   0.644 -0.0741  0.4550  0.0222
18782W        W34916  14.618  13.564  10.934  0.3502  0.1427 -0.2301
18783W        W34917  12.829   5.548  11.674  0.0602  0.0244 -0.1839
18784W        W34918   1.825  12.030  11.763 -0.0860  0.2061 -0.1279
18785W        W34919  15.607  17.829  15.470 -0.0275 -0.1946 -0.0389
18786W        W34920  16.401  18.032   4.335 -0.2142  0.0377 -0.1976
18787W        W34921  17.760  13.772   2.091 -0.0414  0.0417  0.1484
18788W        W34922   3.833  10.008   5.109  0.0151  0.2495  0.0722
18789W        W34923   3.426  14.543  14.957 -0.0236 -0.4342 -0.0424
18790W        W34924   9.754  14.666  12.208  0.0851  0.0666  0.0954
18791W        W34925   1.911  17.156   5.697  0.1974  0.2580  0.3736
18792W        W34926  11.312   3.509  14.319  0.0470  0.2232 -0.0077
18793W        W34927  17.572   6.488   4.551 -0.3124  0.0167 -0.1241
18794W        W34928   9.182   3.468   5.103 -0.0779 -0.0601  0.0592
18795W        W34929   9.956  13.027   2.696  0.1265  0.1248  0.2082
18796W        W34930  12.464  10.262   1.178 -0.2803  0.3159  0.0605
18797W        W34931  14.355  13.310   4.349 -0.0708  0.3340  0.4824
18798W        W34932   9.423   4.915  14.257 -0.2920 -0.2953 -0.2956
18799W        W34933  18.486  17.902   1.825 -0.4112 -0.0012 -0.2537
18800W        W34934   6.386   2.941  13.053  0.0990 -0.0023 -0.2253
18801W        W34935  12.805  14.226   4.670  0.0706 -0.2090  0.3601
18802W        W34936   9.978   7.687  14.805 -0.0535  0.1279  0.0922
18803W        W34937  15.131  17.742   4.572 -0.0786 -0.0881  0.2834
18804W        W34938   9.767   3.582  11.838 -0.2105 -0.0062  0.2070
18805W        W34939  17.775  18.499  14.932  0.0553  0.2476  0.0918
18806W        W34940   1.183  12.360   4.915 -0.3150  0.0303 -0.0327
18807W        W34941   6.119   2.364  14.822  0.0678  0.1962  0.0357
18808W        W34942   8.167   7.811   2.389 -0.1696 -0.0126 -0.0851
18809W        W34943  13.745  10.774  14.029 -0.0560 -0.0814  0.0808
18810W        W34944  16.110  15.027  13.788 -0.3136 -0.2031  0.0202
18811W        W34945  12.179   0.777  12.781 -0.4008  0.1450  0.1050
18812W        W34946  11.117  14.598   3.244 -0.1212  0.0250 -0.1807
18813W        W34947   6.567   8.849  13.304  0.4524  0.3057 -0.1462
18814W        W34948  10.162   4.488   4.245  0.0100  0.0277  0.3822
18815W        W34949   5.420  11.858  14.220  0.1678 -0.0871  0.3422
18816W        W34950   4.499  17.535   3.466 -0.0883 -0.1372 -0.1103
18817W        W34951  13.772   7.886   2.200  0.3653 -0.1761  0.2123
18818W        W34952  18.027  16.866  11.746  0.0911 -0.0007  0.3565
18819W        W34953  12.452   4.189   0.654 -0.2058  0.1187  0.3969
18820W        W34954  13.953  18.030  12.024  0.2704 -0.2625  0.1396
18821W        W34955  15.735  14.559   5.036 -0.1490 -0.1323 -0.0346
18822W        W34956  13.849   7.352   0.917  0.2051 -0.1338  0.1916
18823W        W34957  17.016   9.757   4.129 -0.3241  0.0420 -0.4500
18824W        W34958  18.275   3.531  15.454  0.3023  0.0542 -0.1429
18825W        W34959   6.088   2.240  13.921  0.0728  0.0729 -0.1084
18826W        W34960  13.458  14.865  13.591 -0.0266  0.3313  0.3900
18827W        W34961  10.752  12.135  13.001  0.0872  0.1301  0.0130
18828W        W34962   0.595  10.158   4.521 -0.0366  0.0201 -0.0951
18829W        W34963   4.636  13.520   1.796  0.1077  0.1674 -0.4132
18830W        W34964   0.995   7.168  14.793 -0.0896 -0.0912  0.0887
18831W        W34965   5.045   2.909   3.679 -0.1158 -0.3003 -0.0002
18832W        W34966  16.448  15.063   3.057 -0.1702  0.1552 -0.2070
18833W        W34967  12.720   0.165   0.813  0.0213 -0.0213  0.0928
18834W        W34968   0.212  15.261  11.338  0.1850 -0.0612  0.1307
18835W        W34969  16.717  12.069   1.229  0.1086 -0.0896 -0.2763
18836W        W34970  15.725   5.447  14.852  0.1413  0.2683  0.0601
18837W        W34971  14.709   8.672   2.687 -0.1180  0.5137 -0.0922
18838W        W34972   8.329  13.768  14.657  0.3232  0.3170  0.0523
18839W        W34973   5.681   3.915  10.464  0.1348  0.4389 -0.0206
18840W        W34974  13.580   8.017   3.750 -0.0932 -0.0347  0.3613
18841W        W34975  16.389  12.751  11.628  0.0038  0.0824 -0.1204
18842W        W34976   1.267  16.499   1.097 -0.0536  0.2080 -0.1187
18843W        W34977   8.128   5.333  14.486 -0.0025  0.1326  0.1635
18844W        W34978  16.526   3.300   1.172 -0.1588 -0.0806 -0.0365
18845W        W34979  11.047   4.072  14.429 -0.0712 -0.0968  0.0756
18846W        W34980  15.749   8.144   0.074  0.0273  0.0904 -0.3537
18847W        W34981   6.226   5.888   0.762 -0.0230 -0.1647 -0.3484
18848W        W34982  17.782   7.536   0.757  0.1944  0.0316 -0.1060
18849W        W34983  14.495   7.611  14.976  0.0596 -0.0854  0.1220
18850W        W34984   9.419   0.155   1.902 -0.1047  0.0125  0.1521
18851W        W34985  14.176   8.121   1.992 -0.0569  0.0544  0.0374
18852W        W34986  12.836  13.116   1.591 -0.1327 -0.1490 -0.0610
18853W        W34987   5.666   1.868  11.091 -0.0050  0.1239 -0.0143
18854W        W34988  10.461  18.542  10.506  0.0486  0.0179  0.0602
18855W        W34989   5.657  16.376   1.370  0.1448 -0.0590 -0.1274
18856W        W34990  17.802   5.954  10.655  0.0664 -0.0572  0.0480
18857W        W34991   7.499   8.871  10.129  0.0904 -0.1344  0.0575
18858W        W34992  13.110   2.355   9.620  0.0759  0.3205 -0.0458
18859W        W34993   8.377   7.502   0.785  0.0510  0.0579  0.0712
18860W        W34994  16.403   9.036   1.508  0.0558 -0.3727  0.0411
18861W        W34995   5.180  15.469   0.587 -0.0833 -0.2697  0.0795
18862W        W34996   3.238   3.686  11.312 -0.0543 -0.1567 -0.0252
18863W        W34997   1.643   6.154  10.685 -0.1901  0.2132 -0.0333
18864W        W34998   9.069   8.304   0.307  0.3253  0.2248 -0.2271
18865W        W34999   6.744  11.745  12.522  0.3266  0.0859  0.0171
18866W        W35000   6.126  16.153   3.236  0.0258 -0.0308 -0.1075
18867W        W35001   6.884  12.650   3.469 -0.3010  0.1929  0.2127
18868W        W35002  11.259   3.308   3.846  0.2698 -0.1735 -0.1621
18869W        W35003   4.794  13.257   1.108  0.3829  0.0714 -0.3923
18870W        W35004   7.745  13.360   5.339 -0.2770  0.2558  0.1473
18871W        W35005  13.422   3.328  14.905 -0.2020  0.0268  0.0758
18872W        W35006   4.385  13.913   1.091 -0.0156  0.0393 -0.1269
18873W        W35007   9.766   0.797  13.426  0.1606  0.0041 -0.0751
18874W        W35008   7.896  16.624   1.113 -0.0940 -0.0406  0.1311
18875W        W35009  12.375   9.034  12.472  0.2822  0.1171 -0.3145
18876W        W35010   8.748  13.343  14.196 -0.0085 -0.0479  0.1194
18877W        W35011   4.318   4.368  13.857 -0.0350 -0.0834  0.1478
18878W        W35012  10.190   9.051   2.512 -0.2097 -0.1875  0.1334
18879W        W35013  14.633   9.840   4.721 -0.1027 -0.0380  0.0315
18880W        W35014  12.235   9.422  10.962 -0.3004 -0.0782  0.0593
18881W        W35015   4.918   8.782   2.307 -0.1757 -0.2437 -0.1507
18882W        W35016  15.748   9.423  15.443 -0.0175  0.0243 -0.1613
18883W        W35017   0.552  13.035   0.271  0.0325 -0.0659  0.3615
18884W        W35018  16.256  14.260   2.710  0.2341  0.0913  0.1096
18885W        W35019   9.119   0.176  14.160  0.0396  0.1449  0.3019
18886W        W35020   6.517  15.580  11.327 -0.0476 -0.2813  0.0096
18887W        W35021  11.781  16.878  13.212 -0.0629  0.0472  0.0111
18888W        W35022   2.058  14.185   0.454 -0.1119 -0.1604 -0.0775
18889W        W35023  14.388   3.987  11.047  0.1178  0.0216 -0.1691
18890W        W35024   5.137  10.118  13.767 -0.0326  0.0430  0.3040
18891W        W35025   2.978  16.336  13.668 -0.1637 -0.1125  0.0463
18892W        W35026   6.016  11.155   9.989 -0.0774  0.1524  0.2143
18893W        W35027  13.276   9.910   5.679 -0.2217 -0.0307 -0.0913
18894W        W35028  15.647   5.255   3.275 -0.3483  0.0215  0.2633
18895W        W35029   1.667   6.969   2.550 -0.3250  0.0300 -0.3107
18896W        W35030  11.866   5.109   0.332 -0.0777 -0.0421 -0.2126
18897W        W35031   2.121  13.904   3.000 -0.1144  0.0152  0.0186
18898W        W35032   6.469  15.540   3.952 -0.0329 -0.0332  0.1938
18899W        W35033   2.379  10.310   4.430 -0.1277 -0.1071  0.1689
18900W        W35034  15.536   1.189  11.169 -0.0568  0.0876 -0.2796
18901W        W35035   9.890   2.015   2.518 -0.2266  0.1445 -0.0554
18902W        W35036   7.834   0.668   1.464 -0.1182 -0.0667 -0.1398
18903W        W35037   9.974   9.104   3.921  0.1578  0.0053  0.0057
18904W        W35038  13.188   9.959   4.849  0.0119  0.2120  0.0432
18905W        W35039   4.504   6.942   3.614 -0.1643  0.2054  0.1463
18906W        W35040   4.534   3.666  12.319  0.2270 -0.4247 -0.1004
18907W        W35041   2.909   1.611   3.085 -0.0499  0.3430 -0.0731
18908W        W35042  13.731  16.259  14.560  0.2240  0.0067 -0.0594
18909W        W35043  13.364   7.322  12.380  0.3539 -0.4067 -0.2278
18910W        W35044   1.982   3.207  11.118 -0.0178  0.0277  0.1119
18911W        W35045   1.177  13.400  15.548  0.0236 -0.3665  0.2819
18912W        W35046  12.377  11.598   4.553 -0.1421  0.3161  0.2647
18913W        W35047   7.244   1.114  10.599 -0.1567 -0.2232  0.2021
18914W        W35048  17.106  17.935   4.593  0.0243 -0.1263  0.0507
18915W        W35049  14.493   9.031   1.240 -0.1867  0.1107 -0.0181
18916W        W35050   3.344   1.028   4.791 -0.3987  0.1119  0.0798
18917W        W35051   6.751   0.781  13.192 -0.2436 -0.1853  0.2563
18918W        W35052  17.647  13.514  15.374  0.1958  0.0714  0.0898
18919W        W35053   8.819  12.835   0.733 -0.0988 -0.0137 -0.2314
18920W        W35054  16.452  11.680   4.329 -0.1900  0.2625  0.0661
18921W        W35055  15.173   0.236   0.349  0.1495  0.0226  0.2401
18922W        W35056  10.443   1.025  12.270 -0.3042  0.0402  0.3776
18923W        W35057  13.677   2.344   4.375 -0.1534  0.0288 -0.1086
18924W        W35058  15.116  15.953  10.416  0.0676  0.0781  0.1051
18925W        W35059  12.347  12.580   3.859  0.0007  0.1910  0.0502
18926W        W35060  18.012  11.571  15.148  0.0778 -0.3072  0.0189
18927W        W35061  17.306   2.545   1.700  0.0321 -0.2894 -0.0371
18928W        W35062   5.799  11.213   3.055  0.2622 -0.1594 -0.2050
18929W        W35063  13.418  17.002  14.133  0.0054 -0.6121 -0.1499
18930W        W35064   2.203  16.462   1.050  0.0877  0.2450  0.0472
18931W        W35065   9.449   6.037   3.911 -0.1721 -0.3186 -0.0558
18932W        W35066  15.738   1.296   1.083 -0.2668  0.0428 -0.2868
18933W        W35067   2.045  10.274   1.273 -0.1764 -0.0703 -0.0038
18934W        W35068   8.043   1.331   2.344  0.0414  0.0825 -0.1706
18935W        W35069   7.553   3.514   3.137 -0.2592 -0.1216  0.4133
18936W        W35070   3.147   7.311   4.170  0.3456  0.2573  0.0512
18937W        W35071   3.071   1.920  12.276  0.2295 -0.1157 -0.2424
18938W        W35072  16.851  10.677   3.800 -0.2251 -0.1736 -0.1270
18939W        W35073   9.769   3.615   1.900 -0.1166  0.1602  0.1427
18940W        W35074  11.645  15.971   2.199  0.0434 -0.1534 -0.4895
18941W        W35075   8.233  18.377  11.662  0.0563 -0.3088 -0.1541
18942W        W35076   7.888   5.681   5.356  0.1112 -0.3005 -0.1941
18943W        W35077  14.287   2.582   1.197  0.2932 -0.1822  0.0916
18944W        W35078   4.759   7.969  11.586 -0.2812 -0.0523 -0.0901
18945W        W35079   7.770   5.010   5.889 -0.1692  0.0557 -0.5026
18946W        W35080  15.714  16.582   0.584 -0.0178  0.1527  0.0695
18947W        W35081   7.594   9.716  13.232 -0.0845  0.3454 -0.2956
18948W        W35082   1.301  11.814   4.980 -0.2586  0.1436  0.2920
18949W        W35083   3.891   7.950  12.073 -0.1392  0.0352 -0.4542
18950W        W35084  16.516  17.241  10.873  0.1087 -0.0955 -0.0030
18951W        W35085   1.288  12.443   4.156 -0.2772 -0.0507  0.3432
18952W        W35086   2.220   6.569  13.936 -0.2948 -0.0863  0.1586
18953W        W35087  14.900  13.816  15.097 -0.1289 -0.0373  0.0476
18954W        W35088  17.518   2.183   1.993  0.1821 -0.2141 -0.1237
18955W        W35089  14.965   9.236  12.233 -0.0636  0.3300 -0.4691
18956W        W35090   5.831   5.185  12.533 -0.1294 -0.1813 -0.0158
18957W        W35091   4.411   4.897   5.932  0.0433  0.0966 -0.0674
18958W        W35092  15.658  11.299   4.952  0.0100  0.0371  0.0107
18959W        W35093   9.523   7.059   4.858 -0.2975  0.0321  0.0867
18960W        W35094   1.604  15.400  13.178  0.0453 -0.2505  0.1452
18961W        W35095  10.284   9.251  13.616  0.1195  0.0334  0.1405
18962W        W35096   7.038   2.059   0.536 -0.0581 -0.1255 -0.2915
18963W        W35097  12.863  17.625  13.307 -0.3704 -0.3517  0.0675
18964W        W35098  14.879  12.792   0.840  0.0263  0.2756  0.1183
18965W        W35099   9.026   9.760  15.469  0.1059 -0.1563 -0.1642
18966W        W35100  18.158   7.036  11.869 -0.0476  0.0667 -0.2558
18967W        W35101   3.027  11.914  14.830 -0.0335 -0.1908  0.2830
18968W        W35102   4.248  15.870  15.237  0.0005 -0.1395  0.2491
18969W        W35103  17.886  11.173  13.950 -0.0699 -0.1321  0.0483
18970W        W35104   7.217  11.258  11.490 -0.2928 -0.0483  0.2921
18971W        W35105   1.960   9.671  11.979  0.1378  0.0090 -0.3459
18972W        W35106   0.019   1.035   3.535 -0.1708 -0.0088  0.4191
18973W        W35107  10.367   5.416   0.271  0.2286 -0.0163 -0.1145
18974W        W35108  16.574  10.110  11.182 -0.2948  0.1925 -0.0610
18975W        W35109  14.199   1.925   2.027  0.0745 -0.0355  0.0272
18976W        W35110   3.721  13.794   3.776 -0.0954  0.0902  0.0221
18977W        W35111   4.437   8.938   2.159 -0.0266  0.1664 -0.0339
18978W        W35112   3.349  16.716  14.377  0.2462  0.0526  0.0388
18979W        W35113   6.251   3.878  12.446  0.3172 -0.0887  0.0274
18980W        W35114  12.905   0.132  11.979 -0.0769 -0.0066  0.2939
18981W        W35115   6.073  10.615  15.018  0.1877  0.3157  0.1212
18982W        W35116   1.138   0.858  13.268 -0.2794 -0.1174 -0.0989
18983W        W35117   7.994   4.351  11.487 -0.3762 -0.1951  0.2358
18984W        W35118  16.212  15.640  13.320 -0.0655 -0.4811 -0.0078
18985W        W35119   7.475   2.554  11.515  0.0159  0.0383  0.2138
18986W        W35120   8.476   3.146   5.271 -0.2634  0.3840 -0.0829
18987W        W35121  14.917   6.012  12.628  0.1413 -0.2171 -0.2263
18988W        W35122   9.663   8.974   1.303 -0.0848 -0.3694 -0.1919
18989W        W35123   2.657  13.424  13.638  0.2412  0.1880  0.1110
18990W        W35124   7.277   5.284  11.743 -0.0980 -0.1515 -0.1974
18991W        W35125   8.911   6.677   1.755  0.0495  0.2485 -0.3052
18992W        W35126   4.409   8.232  10.750  0.0289 -0.0052  0.2473
18993W        W35127   2.132  11.568  12.700 -0.2530  0.2834 -0.0540
18994W        W35128  13.574   5.916  12.031  0.2216 -0.0579  0.3598
18995W        W35129  11.807   3.579   0.517  0.1260  0.0819 -0.0464
18996W        W35130  16.830  12.910   3.447 -0.0251 -0.0437 -0.0131
18997W        W35131  16.284  10.301  12.506  0.3437  0.1051 -0.3778
18998W        W35132  17.454  11.786  11.484  0.1355 -0.3066  0.1068
18999W        W35133  11.388   5.588  14.696 -0.0620  0.0332 -0.1490
19000W        W35134  16.117  10.117   4.316  0.2116  0.0660 -0.0467
19001W        W35135  12.947   4.044   0.651 -0.1824  0.2169  0.2536
19002W        W35136  12.735   6.183   0.668  0.2486  0.1340  0.0061
19003W        W35137  17.108   8.227  14.044 -0.1285  0.0596 -0.1145
19004W        W35138   8.454  13.864   3.525 -0.1703  0.1278  0.0780
19005W        W35139  14.559   6.613  12.170  0.0846 -0.1000 -0.1839
19006W        W35140   0.865  12.071  11.366  0.0738 -0.3148  0.2002
19007W        W35141  18.643  16.183   5.099 -0.0768  0.0853  0.1464
19008W        W35142   8.294  10.315   0.154  0.1975 -0.2231  0.0724
19009W        W35143   1.746  11.060  15.512 -0.1642  0.0939 -0.0266
19010W        W35144   2.283   7.473   5.567 -0.0983  0.0983  0.0691
19011W        W35145   1.350   3.254  12.583 -0.3219 -0.0124  0.0125
19012W        W35146   1.381  15.952  11.010 -0.0222  0.3084 -0.1649
19013W        W35147  16.455   6.876   1.097 -0.0572  0.0445 -0.0018
19014W        W35148   6.753   4.907  10.884 -0.0197  0.1530 -0.1531
19015W        W35149  11.033  18.246   1.259  0.1012 -0.1707  0.1976
19016W        W35150  14.243   6.038   1.651 -0.2468 -0.1160  0.0401
19017W        W35151   0.655   0.417  12.698 -0.5661  0.0028 -0.1573
19018W        W35152  14.534  11.596  12.802 -0.0573  0.2063 -0.2227
19019W        W35153   0.555   1.250   1.433 -0.2998 -0.0403 -0.1407
19020W        W35154   8.106   6.614  13.251 -0.1262  0.0227  0.1368
19021W        W35155  18.024  12.980   4.876  0.1309  0.3616  0.1474
19022W        W35156  13.779  17.771  13.442  0.3425  0.3118 -0.1241
19023W        W35157  15.702   7.231   5.989 -0.2509  0.1974  0.0893
19024W        W35158  12.218  15.461  11.483  0.1450  0.0604 -0.4138
19025W        W35159  10.854   1.004   5.272 -0.1004 -0.1128  0.1909
19026W        W35160  15.284  12.611   3.816 -0.0061 -0.1071  0.0847
19027W        W35161   2.030  11.224  10.438 -0.2584 -0.0148 -0.0901
19028W        W35162   7.276  17.182   1.580 -0.0608  0.0080  0.2926
19029W        W35163   8.857  17.719   1.842  0.0766 -0.0172 -0.5057
19030W        W35164   3.718  15.374   1.419 -0.1306  0.0070  0.1171
19031W        W35165  12.845   3.934  12.573 -0.3940  0.2875 -0.2036
19032W        W35166   6.393   9.802  10.583 -0.1065  0.0690  0.2599
19033W        W35167   2.900  11.368   0.245  0.2317  0.1366 -0.0983
19034W        W35168  16.938  12.362   1.666 -0.3570  0.0550  0.0439
19035W        W35169   1.527   2.620   1.182 -0.1294 -0.5395 -0.0819
19036W        W35170  10.589   4.280  15.229 -0.3044  0.1052  0.0770
19037W        W35171   5.065   6.152   3.795  0.1576 -0.0886 -0.1227
19038W        W35172   5.006   7.143   2.142  0.0989 -0.0434 -0.3224
19039W        W35173   1.093   1.492   2.531  0.1477 -0.0830 -0.0850
19040W        W35174   8.819  18.182  12.780  0.0506  0.0050  0.4697
19041W        W35175   0.041  11.750  11.453  0.0256  0.0256  0.2118
19042W        W35176   3.476   7.575   4.836 -0.1507 -0.1202  0.2310
19043W        W35177  13.680   5.236  13.496 -0.0515 -0.1370 -0.3098
19044W        W35178   1.741   2.967  13.713  0.1019  0.1512 -0.0854
19045W        W35179   4.481  15.996   1.452 -0.1435 -0.0540 -0.1348
19046W        W35180  13.317   6.755   2.322  0.3999 -0.1385 -0.1989
19047W        W35181   8.509   4.595   3.726  0.0212  0.2281 -0.0200
19048W        W35182  14.199   0.248   4.649 -0.2628 -0.4149  0.0384
19049W        W35183  17.642   9.688   2.576 -0.2229  0.0985 -0.4395
19050W        W35184  14.368   7.066  14.838  0.0723  0.1607  0.2997
19051W        W35185  12.897   7.780   1.136 -0.0238  0.0429  0.1344
19052W        W35186   1.176   9.629   5.045  0.1308 -0.0770 -0.0240
19053W        W35187  17.547  15.085  15.104  0.0348  0.1464 -0.1603
19054W        W35188  16.110   6.974  12.882  0.1760 -0.0619 -0.2256
19055W        W35189   5.804  14.708  11.127 -0.2983 -0.1402  0.0614
19056W        W35190   9.497   0.815   4.112 -0.1009 -0.0591  0.0780
19057W        W35191  10.753   0.843   0.185  0.0655  0.1145 -0.1538
19058W        W35192   9.799  13.498   4.006  0.4271  0.3362 -0.2485
19059W        W35193  18.413  14.810   2.831  0.2374  0.1033 -0.1943
19060W        W35194   7.178   8.087  12.288 -0.2484 -0.3710 -0.1206
19061W        W35195   3.153   9.827   1.953 -0.3672  0.2094 -0.0189
19062W        W35196   6.094  18.433   4.870  0.3588  0.1845 -0.2171
19063W        W35197   6.923   9.048  13.624  0.0692  0.2348  0.3121
19064W        W35198  10.034  14.670  10.716  0.0826 -0.1291 -0.1530
19065W        W35199  16.383  12.093  12.283  0.2295 -0.0540 -0.0366
19066W        W35200   8.000  11.194  12.247  0.2000 -0.3152 -0.3500
19067W        W35201   3.146  16.276   2.137 -0.3055  0.1780 -0.0858
19068W        W35202   8.527   5.228  12.805  0.0632  0.0595 -0.1706
19069W        W35203  10.023   0.313  14.565  0.4350 -0.1605  0.0055
19070W        W35204  10.541   8.349  10.432 -0.1223  0.0917 -0.0311
19071W        W35205  10.069   4.143   3.502 -0.3318  0.0994  0.2454
19072W        W35206   2.811   0.727  15.169 -0.1129 -0.2102 -0.2264
19073W        W35207  14.335  13.854  13.219 -0.0576 -0.0341 -0.0971
19074W        W35208   4.950   9.731   3.192 -0.2480  0.2968  0.3188
19075W        W35209   6.279   1.301   9.494  0.0902  0.1089 -0.2441
19076W        W35210  16.621   3.314  10.666  0.1088  0.1799 -0.1435
19077W        W35211  18.714   2.786   2.759  0.1369 -0.0413 -0.0766
19078W        W35212   7.456  12.078   1.150  0.3411 -0.1721  0.0019
19079W        W35213   3.077  16.650  11.891 -0.0300 -0.3329 -0.1701
19080W        W35214   0.281   7.665  12.944 -0.0511 -0.2372  0.0784
19081W        W35215   7.833  15.997   2.484 -0.0625 -0.0863 -0.0737
19082W        W35216  12.218   1.654  11.958 -0.1553 -0.2017  0.1210
19083W        W35217  16.305   1.725   4.887  0.0186 -0.1220 -0.2881
19084W        W35218   2.336   1.568   1.108 -0.0910  0.0894  0.1885
19085W        W35219  10.853   1.938  13.018 -0.5705  0.0528  0.0739
19086W        W35220  16.108  12.385  10.365 -0.0602  0.1578 -0.2296
19087W        W35221   1.932  17.135  14.059  0.0766  0.0838 -0.1978
19088W        W35222  15.025   4.660  12.136  0.1408 -0.0420 -0.1788
19089W        W35223   8.394  18.244   3.869  0.0409  0.1351  0.3267
19090W        W35224   6.560   7.138  11.979 -0.0708  0.1816 -0.1429
19091W        W35225   3.730  13.547   2.438 -0.1603 -0.2356  0.0279
19092W        W35226   5.457   9.180   5.029 -0.0908  0.0321  0.0498
19093W        W35227   5.439   0.462   2.546 -0.2393 -0.0907 -0.1471
19094W        W35228  11.530   5.795   2.154 -0.0138 -0.1579  0.2683
19095W        W35229   2.681   1.894  14.978  0.1488 -0.1181  0.1935
19096W        W35230  18.715  11.411  10.835 -0.3109 -0.0975 -0.1271
19097W        W35231   4.801  10.873  12.150 -0.1077  0.1292  0.2674
19098W        W35232  14.495  17.172   4.824  0.0530  0.0303 -0.0193
19099W        W35233   1.226   6.203  11.477  0.1279 -0.0894  0.1401
19100W        W35234   0.408  17.809   3.386 -0.3762  0.0598 -0.1056
19101W        W35235   5.224  14.344  13.574 -0.1355 -0.1520  0.0458
19102W        W35236   2.391  10.267  13.391 -0.4058 -0.3012  0.0302
19103W        W35237  14.274  14.710   9.566  0.2796  0.1848  0.1576
19104W        W35238   0.216   2.152   1.182  0.0319 -0.0134  0.2172
19105W        W35239   1.748  17.026  11.247 -0.1229 -0.3542  0.0913
19106W        W35240   4.598   4.784  14.824  0.0330 -0.2904  0.0308
19107W        W35241  12.683  16.982  14.721  0.1259 -0.0404 -0.0293
19108W        W35242  13.632  15.146   3.876 -0.0065  0.0298  0.1066
19109W        W35243  12.938  15.539   9.466  0.3335  0.0304  0.3097
19110W        W35244   4.092   7.278  14.860  0.0246 -0.0247  0.0465
19111W        W35245   7.165   7.769   4.109 -0.0318  0.0563  0.1780
19112W        W35246   7.817   7.286   3.529  0.0835 -0.3002 -0.0377
19113W        W35247  10.374  13.820  11.107  0.2201  0.0651 -0.2661
19114W        W35248  15.595   7.554  11.811  0.0675 -0.0292  0.2584
19115W        W35249  18.074  18.537   3.165  0.1674  0.2001 -0.0428
19116W        W35250   4.359   2.148  11.415  0.1181  0.0214  0.1396
19117W        W35251   4.198   5.627   4.771 -0.3401 -0.0266 -0.0025
19118W        W35252   7.459  18.645   4.798  0.0088 -0.1518  0.1384
19119W        W35253   5.704   2.776  11.080 -0.0203 -0.2418  0.0622
19120W        W35254   2.473   1.673   2.093  0.0780  0.0744  0.3709
19121W        W35255  16.805  12.597  15.382  0.1954 -0.0077 -0.3174
19122W        W35256   8.528  12.914  12.181  0.0345 -0.2344 -0.1560
19123W        W35257   3.904   0.461  11.660 -0.2123 -0.2586 -0.0487
19124W        W35258  17.512  13.701  12.901 -0.2955  0.0597  0.1236
19125W        W35259  18.660  13.262   1.351 -0.0214 -0.0988  0.3131
19126W        W35260  18.691   2.810  13.946 -0.0037  0.3927  0.2848
19127W        W35261  14.613  15.254   1.608  0.3910 -0.1355 -0.1856
19128W        W35262   2.624  14.345  12.475  0.0922  0.2731  0.3212
19129W        W35263  10.672  17.215  12.183 -0.3288  0.1049 -0.0272
19130W        W35264   4.209  10.580   4.912 -0.0334  0.1080 -0.0152
19131W        W35265   4.928   6.359  12.672 -0.0531  0.0777  0.1597
19132W        W35266  10.962   8.365  12.740  0.3874 -0.1156 -0.4588
19133W        W35267   5.244   8.495  13.059  0.1830 -0.0257  0.0079
19134W        W35268   6.382  15.782  15.012 -0.0836 -0.0092  0.1566
19135W        W35269   4.020   8.939   1.830 -0.0239 -0.1418 -0.1567
19136W        W35270  11.011   5.715   1.021 -0.4515  0.1753  0.1108
19137W        W35271  12.960  12.987   9.608 -0.0957  0.3319  0.3483
19138W        W35272   9.185  10.233   5.384  0.0284 -0.1222 -0.2863
19139W        W35273  16.549  18.096  10.870 -0.3201 -0.1028 -0.4066
19140W        W35274  10.692  13.268  15.283 -0.5385 -0.1229  0.1168
19141W        W35275   9.504   8.070   0.572 -0.0671  0.0587  0.0785
19142W        W35276   0.340   5.661  11.290  0.0165 -0.1483  0.4088
19143W        W35277   5.991  14.484  11.958  0.0506 -0.1610  0.3326
19144W        W35278  17.968  12.845  12.057  0.1963  0.1050  0.1030
19145W        W35279  14.747   4.139  14.887 -0.0407 -0.1812  0.1504
19146W        W35280   9.354   9.251  14.710  0.1823 -0.0193  0.1085
19147W        W35281  11.601   5.534  11.380 -0.1781 -0.0086 -0.1620
19148W        W35282   4.788   6.871   0.034 -0.0643  0.2450  0.3501
19149W        W35283   5.037   9.171   3.337 -0.2426  0.0085  0.0764
19150W        W35284  18.088   4.696   5.220  0.0230  0.3092 -0.0901
19151W        W35285   9.153  13.087  13.040  0.3535 -0.2240 -0.0992
19152W        W35286   9.903  13.755  14.713 -0.1710 -0.1692  0.2565
19153W        W35287   7.194   3.977  11.275 -0.2541 -0.1014  0.0474
19154W        W35288   8.593   1.444  10.950 -0.0938  0.3001 -0.0975
19155W        W35289   1.932   6.907   4.373 -0.0506 -0.1142  0.2452
19156W        W35290   0.949   4.726   3.202  0.0186  0.0678 -0.2998
19157W        W35291  18.213   2.039  12.649  0.1441  0.0756 -0.0206
19158W        W35292  12.477   0.200  11.673 -0.0391  0.2324 -0.0301
19159W        W35293   9.602   2.683   4.694 -0.3348  0.1148 -0.3564
19160W        W35294  13.610  11.364  13.178 -0.1194 -0.1012  0.0828
19161W        W35295   8.458   1.973   1.066  0.3744  0.1005  0.1002
19162W        W35296   5.179  16.284   1.654 -0.0879  0.1384 -0.1726
19163W        W35297   7.666  12.482   4.105 -0.1283  0.1588 -0.0307
19164W        W35298   3.965   4.352   4.618 -0.2351 -0.0490 -0.2946
19165W        W35299   6.524   3.556   0.818  0.0705  0.1013  0.1257
19166W        W35300   2.889   1.754   1.135 -0.0487  0.0782  0.2994
19167W        W35301   8.119   3.492   4.551  0.1948 -0.0520 -0.4909
19168W        W35302   0.423  16.761   4.413 -0.0040  0.1208 -0.1942
19169W        W35303  16.754   0.396  10.913 -0.0081 -0.0009  0.0313
19170W        W35304   0.590   0.458  14.891  0.2499 -0.3192 -0.0198
19171W        W35305   3.956   7.005   2.096  0.3421  0.2008 -0.1222
19172W        W35306   9.664   2.639  11.633  0.0589 -0.0522  0.0933
19173W        W35307   9.008  11.142  13.871  0.3217  0.0767 -0.0616
19174W        W35308  11.462   5.562   0.573  0.0652  0.0130  0.1811
19175W        W35309  15.382   0.418   0.875  0.1320 -0.0773  0.0514
19176W        W35310  11.435   7.178   2.811  0.0564  0.1430 -0.1583
19177W        W35311   7.518   0.861  11.047 -0.1143  0.0722 -0.0054
19178W        W35312  15.293  15.251  13.577 -0.0662  0.0542 -0.0315
19179W        W35313  10.994  10.546   4.801 -0.2741  0.2711 -0.1647
19180W        W35314   7.798   0.195  12.448  0.3081 -0.1048  0.0727
19181W        W35315  15.786  10.410  14.033  0.1136 -0.1472 -0.1513
19182W        W35316  12.868  17.212  11.589 -0.4106 -0.2926 -0.1764
19183W        W35317  11.124   5.645   1.467 -0.1187  0.0317  0.0790
19184W        W35318   5.030   8.610  11.413 -0.0682 -0.0347  0.1281
19185W        W35319  16.598   5.228   3.283  0.2426  0.1626  0.1354
19186W        W35320   6.793  17.675   0.997  0.3055  0.2263 -0.1626
19187W        W35321   3.125  14.177   2.237 -0.1940 -0.1531 -0.2744
19188W        W35322  13.010  12.733  11.762 -0.1346 -0.0318  0.2269
19189W        W35323   6.171   6.448   1.588 -0.1678 -0.0496 -0.1436
19190W        W35324  14.418  17.748   3.047  0.2617  0.3113  0.1998
19191W        W35325  17.393  12.597   1.972 -0.0518  0.3030  0.0267
19192W        W35326  11.504   4.086  13.304 -0.1613 -0.0166  0.1041
19193W        W35327   7.449  12.673  12.434  0.1532 -0.1067 -0.0939
19194W        W35328  13.655  15.315  13.830 -0.0015  0.0354 -0.0365
19195W        W35329   8.751  10.462  13.331 -0.0520  0.0191 -0.0594
19196W        W35330  14.970  11.712   2.418  0.1580 -0.0299  0.3045
19197W        W35331   2.432   4.024   2.429 -0.2607  0.0617 -0.1029
19198W        W35332   6.150  18.074   3.691 -0.0245 -0.0226  0.0730
19199W        W35333  18.034   7.489  12.033 -0.0085 -0.0744 -0.1367
19200W        W35334  17.175  12.635  14.341  0.1897 -0.0124  0.2811
19201W        W35335   9.732   3.199   0.003  0.1790 -0.0734 -0.0759
19202W        W35336   2.647   6.289  13.771 -0.2680  0.2370 -0.2260
19203W        W35337   8.074  11.798   0.444  0.2575  0.1452  0.0471
19204W        W35338   2.610   3.588  15.349  0.0577 -0.0804  0.2080
19205W        W35339   0.951  10.823   0.988  0.1188  0.2093 -0.0469
19206W        W35340   6.381   6.281   4.500 -0.0212 -0.2149 -0.1536
19207W        W35341  10.148   3.862   3.109 -0.0502 -0.1528 -0.1874
19208W        W35342   6.402   5.624   4.676 -0.0680  0.3828  0.0201
19209W        W35343  12.053   3.139   0.389 -0.0049 -0.0944 -0.2402
19210W        W35344  17.018  13.405   1.755 -0.0954 -0.1728 -0.1628
19211W        W35345   4.549   3.798   5.344  0.1275  0.0176 -0.2093
19212W        W35346  18.443  18.307   2.897 -0.0417 -0.0941 -0.4364
19213W        W35347   3.208  15.124   2.598  0.2961  0.1750 -0.2047
19214W        W35348   1.444   5.137   3.846 -0.2313  0.1932  0.0353
19215W        W35349   4.963   8.379   0.197  0.1480 -0.1350  0.1332
19216W        W35350  14.982  13.930   3.910 -0.2080  0.2474 -0.0589
19217W        W35351   2.819  10.822  12.533  0.2888  0.0143 -0.1568
19218W        W35352  14.120  14.842  12.059 -0.0116  0.0681 -0.3814
19219W        W35353  12.830   8.151  13.736 -0.0177 -0.0943  0.0402
19220W        W35354  11.537  11.798  14.864 -0.0419 -0.1767 -0.3527
19221W        W35355   9.399   6.655  14.543 -0.6673 -0.1470  0.1040
19222W        W35356  11.153  12.147  13.534 -0.2143  0.0542 -0.2827
19223W        W35357   5.155  13.595   2.427  0.1353 -0.2201  0.3197
19224W        W35358   9.612  18.359   2.624  0.0463  0.1015  0.1443
19225W        W35359   8.790  10.252   1.900 -0.1379 -0.2841  0.0072
19226W        W35360  12.272   7.656   4.336  0.4201 -0.0315  0.1727
19227W        W35361   6.531  14.648  13.607 -0.2508 -0.0467  0.1640
19228W        W35362   0.886  12.659   0.579 -0.0726 -0.0713  0.2168
19229W        W35363  14.189   0.298  13.292  0.1285  0.0050  0.0114
19230W        W35364  13.150  16.333   1.959 -0.0453  0.1113  0.1577
19231W        W35365   4.012  17.114  14.969  0.0583 -0.3347 -0.0884
19232W        W35366   6.378  14.047   3.840 -0.4668  0.0270 -0.0468
19233W        W35367  18.000   3.278   2.953  0.0044  0.1094  0.0481
19234W        W35368  13.668   2.858   5.238  0.1155  0.3598 -0.2545
19235W        W35369   2.177   8.981   3.471  0.0724  0.2169 -0.0787
19236W        W35370   8.736   6.842   5.582  0.3667 -0.2027 -0.0022
19237W        W35371  18.687   4.714  13.151 -0.0328  0.1441  0.0124
19238W        W35372  10.051   0.903  10.445 -0.0058 -0.0919  0.0146
19239W        W35373  17.371   6.855   0.313  0.0414  0.3914 -0.0585
19240W        W35374  14.648   2.756   2.443  0.1346  0.0963  0.0291
19241W        W35375  13.085  14.059   1.563  0.1082  0.4364  0.1275
19242W        W35376  17.470   9.313   0.891 -0.2700  0.0254 -0.1430
19243W        W35377  14.352   9.699  13.941 -0.0094 -0.0026  0.4191
19244W        W35378   6.691  16.513   1.826  0.1044 -0.0822 -0.2522
19245W        W35379  18.291  18.576   1.905  0.1365 -0.0033  0.2425
19246W        W35380  11.626   9.717  10.975 -0.2871 -0.1121 -0.3545
19247W        W35381  12.508   0.171  15.139  0.0776 -0.0489 -0.2654
19248W        W35382  11.286   2.521  12.625  0.0427  0.4411  0.2355
19249W        W35383   8.818   1.941  10.822  0.0051 -0.1161  0.1907
19250W        W35384   1.054   2.818  11.277 -0.0027 -0.0523 -0.0878
19251W        W35385  15.656  17.229   5.524 -0.2699  0.2852 -0.0515
19252W        W35386   2.406   6.178  11.281  0.1438  0.2697 -0.0660
19253W        W35387  11.455   2.457  15.259  0.1394  0.1699 -0.2114
19254W        W35388   1.882  17.189  12.983 -0.3133  0.0486  0.0789
19255W        W35389   5.705   6.898  14.096  0.3605  0.1675 -0.1701
19256W        W35390   8.244  11.211   9.714  0.2201  0.2453  0.1969
19257W        W35391   7.542   0.377   0.017  0.0466 -0.0476  0.0150
19258W        W35392   9.937   4.434  11.899 -0.0652 -0.0590  0.0456
19259W        W35393  12.248   8.521  14.128  0.5585 -0.2582  0.0194
19260W        W35394   8.076   4.994  15.524 -0.4252  0.0727  0.0367
19261W        W35395  11.231  18.611   9.790  0.4000  0.0441 -0.0984
19262W        W35396  15.055   3.147   2.078  0.3432 -0.0658 -0.3157
19263W        W35397  17.045  18.704   2.291  0.0447  0.1292 -0.1854
19264W        W35398   9.345   6.760   0.403 -0.2320  0.0209 -0.1378
19265W        W35399  14.128  15.162  13.737  0.1212  0.1774 -0.1142
19266W        W35400  16.738  13.762   5.096 -0.0154 -0.0483  0.2281
19267W        W35401  13.304  14.225  15.163 -0.0304 -0.0703 -0.0226
19268W        W35402   4.379   0.611   0.574 -0.3146  0.1460  0.3592
19269W        W35403  12.115   6.883  10.751 -0.0960  0.1694 -0.2113
19270W        W35404   8.398  11.195   3.597 -0.0806 -0.0928 -0.0205
19271W        W35405   2.637  11.889  11.363 -0.0769 -0.0619 -0.2575
19272W        W35406   9.484  10.504  14.637  0.1018  0.0886 -0.0643
19273W        W35407   0.283  17.525   1.649 -0.2294  0.2253 -0.3174
19274W        W35408  14.164  11.226   1.320  0.2160 -0.0284  0.2367
19275W        W35409  13.930   1.808  12.371  0.1582  0.0321 -0.1781
19276W        W35410   3.973   1.720  15.429 -0.0294 -0.1527  0.3494
19277W        W35411  17.972   7.863  11.108  0.0294 -0.0469 -0.0386
19278W        W35412   4.484  18.590  15.364 -0.0885 -0.0614 -0.4583
19279W        W35413  15.389   3.708   0.337 -0.0656 -0.0038  0.2639
19280W        W35414  15.700  18.266   5.468 -0.0349 -0.2329 -0.0178
19281W        W35415  16.649  15.557   4.839  0.0884  0.3494 -0.4129
19282W        W35416  13.719  12.890   5.071  0.1061 -0.1288  0.1379
19283W        W35417  10.330  16.349   1.777 -0.1484 -0.1296 -0.1630
19284W        W35418  10.689   4.896   2.633  0.0105 -0.1533  0.0318
19285W        W35419  17.427   4.842   3.466 -0.1874 -0.2442  0.0338
19286W        W35420  16.586   8.529  12.727 -0.3796 -0.0496  0.1187
19287W        W35421   0.579   8.828   2.538 -0.1831 -0.4022 -0.0659
19288W        W35422  16.958   7.386   5.769  0.0717 -0.4709  0.0719
19289W        W35423  14.823  16.335  11.667  0.0687 -0.1111  0.0900
19290W        W35424   3.698  16.722  15.006 -0.0178 -0.2476  0.1765
19291W        W35425   0.477  13.071  10.757 -0.1299 -0.3228  0.0029
19292W        W35426  13.845  12.369  14.246 -0.0264  0.4125 -0.3670
19293W        W35427   6.909   2.155   2.865  0.0433 -0.2858  0.3027
19294W        W35428  15.768   9.882  13.915 -0.2053 -0.2361 -0.0469
19295W        W35429  10.565  16.558  10.780  0.1559  0.0826 -0.0072
19296W        W35430  13.010   5.208  13.208  0.0741 -0.2792  0.2093
19297W        W35431   1.666  13.154   3.081 -0.0507 -0.2122  0.0658
19298W        W35432   7.807   9.507  12.344  0.0091  0.1019 -0.0749
19299W        W35433  13.096   4.807  14.499  0.2129 -0.3143  0.0809
19300W        W35434   1.617   3.668   1.849  0.1892  0.1395 -0.0109
19301W        W35435  14.256   4.183  15.006 -0.0900 -0.1031 -0.0987
19302W        W35436   5.339   1.302   3.872 -0.0854  0.3173  0.0958
19303W        W35437  13.761   8.385  11.033  0.5632 -0.0828  0.1088
19304W        W35438   0.799  11.656   3.379  0.0469  0.0286  0.3526
19305W        W35439   0.657   5.650  11.748 -0.0611 -0.1998 -0.2006
19306W        W35440  15.196  16.316  15.397  0.1507 -0.0840 -0.1623
19307W        W35441   0.135   5.555   0.262 -0.0596 -0.0417  0.0722
19308W        W35442   3.914   3.216   2.614  0.1231 -0.2770  0.0198
19309W        W35443   8.040   4.804  14.506  0.0498  0.1080 -0.0416
19310W        W35444   8.460   9.259  14.891  0.1512  0.0682 -0.1820
19311W        W35445   9.689   8.905   0.766  0.1036 -0.0709 -0.0921
19312W        W35446  14.989   5.087  15.104  0.2489 -0.1158 -0.1886
19313W        W35447   9.472   7.557  12.783  0.0254 -0.1293 -0.1898
19314W        W35448  15.074   4.448   4.138 -0.0313 -0.0164  0.2531
19315W        W35449  16.968  11.237  13.081  0.0361  0.0148 -0.0701
19316W        W35450  13.341   3.258  11.180  0.1060  0.2884 -0.2544
19317W        W35451   7.552  15.038  11.025  0.1334  0.0072 -0.0636
19318W        W35452  15.251  11.063   4.103 -0.1697 -0.0650 -0.0268
19319W        W35453  10.496  14.805   1.075 -0.2119  0.2066 -0.3036
19320W        W35454  13.408  16.712   1.931  0.3135 -0.0391 -0.0204
19321W        W35455  17.246   3.781   1.481 -0.1997  0.2607  0.0471
19322W        W35456   1.307   8.821  14.208 -0.0754  0.4765 -0.0317
19323W        W35457   1.776  12.632   0.750 -0.0317  0.1211  0.0397
19324W        W35458   3.069   5.249   0.854 -0.0149 -0.1027  0.0542
19325W        W35459   2.206  16.157  11.573  0.0227 -0.0488  0.1791
19326W        W35460   7.215  11.349  12.563  0.0670 -0.0617 -0.0270
19327W        W35461   5.436  15.784   5.705  0.0420 -0.2886 -0.0810
19328W        W35462   0.615   8.133  13.601  0.3074 -0.2153  0.0085
19329W        W35463  16.441  18.563  15.028  0.0224  0.1979 -0.0578
19330W        W35464   5.008  18.454  13.954  0.1260  0.0221 -0.2879
19331W        W35465   4.408  18.470   0.915 -0.1213  0.2416 -0.3138
19332W        W35466   2.592   6.669  11.370  0.3605  0.2014 -0.0699
19333W        W35467  14.577   5.347  12.151 -0.0805 -0.1074  0.0055
19334W        W35468   8.721  18.661  12.865 -0.0410 -0.1589  0.0468
19335W        W35469  11.771  16.107  13.108  0.0545 -0.0428  0.1215
19336W        W35470  17.943  16.640   5.556 -0.3251 -0.0770 -0.1398
19337W        W35471   0.402  16.505  14.953 -0.0619  0.0748  0.1511
19338W        W35472   1.091   1.949  14.085 -0.0955 -0.2009 -0.0224
19339W        W35473  15.520  15.241  11.522 -0.2220  0.1520 -0.3601
19340W        W35474   2.579  17.587  13.350 -0.3163 -0.1923  0.0631
19341W        W35475   0.816   1.981  11.075  0.0962  0.2005  0.2443
19342W        W35476   5.418   8.638  13.506 -0.1022 -0.0126 -0.0424
19343W        W35477  16.414   3.020  12.468  0.2718 -0.1473 -0.1496
19344W        W35478   2.518  11.167   2.444  0.1829  0.2854 -0.0694
19345W        W35479  14.301   3.456   3.853  0.0784  0.1552  0.2654
19346W        W35480  15.566   9.818  10.537  0.1982 -0.2269  0.1427
19347W        W35481   7.695   6.871  13.886 -0.0200  0.1996  0.0820
19348W        W35482   0.300  12.614   5.112 -0.0130  0.2799 -0.1266
19349W        W35483  14.248  15.327  12.318 -0.2809 -0.1611 -0.1504
19350W        W35484   8.170  16.704   3.172 -0.0980 -0.0132  0.1334
19351W        W35485   2.080   2.237  13.291  0.0474  0.1851 -0.0521
19352W        W35486   1.251   3.360  10.968 -0.0123  0.2612  0.0263
19353W        W35487   3.546   1.190  14.227  0.1095  0.1286  0.1116
19354W        W35488   4.573  12.634   2.405 -0.1782  0.0340  0.1448
19355W        W35489  12.834  13.799  11.194  0.1181 -0.0375  0.0454
19356W        W35490  11.205  14.434  12.506 -0.0597  0.0964 -0.3021
19357W        W35491  15.254   8.568   1.784 -0.0505 -0.1028 -0.0054
19358W        W35492  12.729   5.515  14.796  0.0529  0.1992 -0.1994
19359W        W35493   0.427   2.699  11.314 -0.4651 -0.2507  0.2364
19360W        W35494  13.513  15.088  12.782 -0.0439 -0.1199 -0.2954
19361W        W35495   7.808  10.513   3.571 -0.1904 -0.0616  0.3571
19362W        W35496   6.849   1.498  12.427  0.2038  0.0532  0.1498
19363W        W35497  13.042   6.749  13.649 -0.0300 -0.0937  0.1065
19364W        W35498   7.270   7.643  12.984 -0.0003 -0.0357 -0.0223
19365W        W35499   2.542  16.097   1.935 -0.0491  0.0948  0.0530
19366W        W35500  14.479  14.586  10.998 -0.0212  0.1459 -0.3649
19367W        W35501   1.005  10.212   3.665  0.0904 -0.0302 -0.1122
19368W        W35502  14.713  16.506   5.279 -0.0654  0.1040  0.0203
19369W        W35503  14.952   7.408   1.018  0.0336  0.0202  0.1044
19370W        W35504   3.022   0.957   0.169  0.2606  0.1588 -0.2662
19371W        W35505   6.161  18.058   4.193  0.0658 -0.3433  0.3056
19372W        W35506   1.432  12.205  14.389 -0.1427 -0.0644 -0.0511
19373W        W35507   0.054   4.523  10.881 -0.1871 -0.1581 -0.3238
19374W        W35508  13.328  12.689  11.293 -0.0010 -0.0457 -0.1258
19375W        W35509   2.372  17.443   0.865 -0.2562  0.1122 -0.2212
19376W        W35510  15.669   5.000   1.971 -0.1015  0.0081 -0.0141
19377W        W35511   4.994   2.956   4.248 -0.1631  0.0211 -0.0329
19378W        W35512  14.265  10.828  13.141  0.0865 -0.0760  0.0441
19379W        W35513  11.547   4.715  14.285  0.0338  0.5676 -0.0199
19380W        W35514  12.781   5.450   3.533 -0.2134  0.1533 -0.2282
19381W        W35515   3.196  13.828   3.654  0.0945  0.3137 -0.1567
19382W        W35516   3.203   7.542  14.600 -0.0388 -0.0516 -0.1442
19383W        W35517   7.761  15.881  14.920  0.1394 -0.0762 -0.1009
19384W        W35518  17.768  15.128   1.955 -0.0345  0.0668  0.1536
19385W        W35519   3.708   7.723  12.582  0.1100 -0.1192 -0.1105
19386W        W35520   9.539  16.961  10.463 -0.0775 -0.2405 -0.3394
19387W        W35521   1.979   2.023  11.686  0.2983  0.0905  0.0532
19388W        W35522  10.940   4.048   2.405  0.0692 -0.1232  0.0136
19389W        W35523   5.113  16.535  11.082  0.2958  0.0229 -0.2291
19390W        W35524   4.309  12.288  10.701 -0.0392 -0.3413  0.0139
19391W        W35525   6.408  10.731   1.690  0.0727  0.2347 -0.2211
19392W        W35526  11.466  17.826   1.939 -0.0119  0.3505 -0.1958
19393W        W35527  18.279  17.393  15.042  0.3364 -0.3269 -0.1368
19394W        W35528   3.245   7.979  13.194  0.0205 -0.1980  0.2876
19395W        W35529  16.624   7.963   3.411  0.1663 -0.1470 -0.0735
19396W        W35530  12.341  10.973   2.991  0.1397  0.1382 -0.1456
19397W        W35531   8.135  12.588  12.233  0.0258  0.3796 -0.5057
19398W        W35532   2.968  11.117   2.147  0.4110 -0.3315  0.2158
19399W        W35533   6.832  13.046  14.220  0.0770 -0.2711  0.1139
19400W        W35534  16.989  17.003  11.619  0.1100 -0.0652 -0.2884
19401W        W35535  14.665   3.811   3.935  0.1057  0.3475 -0.2067
19402W        W35536   1.849   2.721   3.417 -0.4863 -0.0395  0.0614
19403W        W35537  13.487  14.116  12.381 -0.1090  0.1045  0.1392
19404W        W35538   2.934  11.115  13.530 -0.0524  0.1264 -0.0934
19405W        W35539   7.788   2.087   1.336 -0.1199 -0.0179 -0.2177
19406W        W35540   9.279   5.739   5.012  0.1599  0.0562 -0.1458
19407W        W35541   0.317   5.347   0.673 -0.0426  0.0094  0.1604
19408W        W35542   3.489   0.192   2.474  0.2152  0.1214  0.1983
19409W        W35543  10.071  17.554  13.348 -0.2226 -0.4029 -0.2547
19410W        W35544  11.799   2.066   2.316 -0.1254 -0.0955 -0.1683
19411W        W35545  10.129   5.486  15.439 -0.0317 -0.0032  0.0728
19412W        W35546   5.388   6.617  11.498  0.4446 -0.2254 -0.1958
19413W        W35547   8.925  13.230  15.231  0.1700  0.0391 -0.3826
19414W        W35548   4.498  18.122  15.180 -0.0331  0.4941 -0.3778
19415W        W35549  14.517   3.474   4.434  0.1314 -0.0700  0.1179
19416W        W35550  10.921   3.957  15.499  0.0647 -0.2885 -0.2408
19417W        W35551  10.985   5.247   3.797  0.2252 -0.0506 -0.0284
19418W        W35552  11.908   6.405  10.784 -0.2523  0.1498  0.0429
19419W        W35553   3.781  18.248  13.409 -0.1799  0.3071  0.4784
19420W        W35554   8.950   1.822  11.792  0.1661 -0.0411  0.0226
19421W        W35555   1.055  14.093   1.696 -0.0994 -0.3008  0.0040
19422W        W35556   5.881   1.877   4.402  0.3443 -0.0670  0.1720
19423W        W35557   5.765   9.593  13.737 -0.1185 -0.2485 -0.1058
19424W        W35558   1.228  12.840   4.867  0.0173  0.0499  0.1360
19425W        W35559  18.359  14.085   2.431 -0.0352  0.0736  0.2857
19426W        W35560  16.302   8.046   3.087  0.2550  0.0426 -0.0774
19427W        W35561  10.320   5.936  11.260  0.0724 -0.0747  0.0268
19428W        W35562  16.923   6.407   2.397 -0.1553 -0.0198  0.1192
19429W        W35563   3.452   7.043  12.840  0.3130 -0.1229  0.3320
19430W        W35564   3.623   6.365  14.496 -0.1292 -0.2102 -0.5229
19431W        W35565   5.128  14.748   5.183 -0.0946  0.3399 -0.0075
19432W        W35566   1.934  14.841   5.339 -0.0886 -0.0134 -0.0861
19433W        W35567   0.131  17.396  13.182 -0.0929 -0.0857  0.4019
19434W        W35568  12.965   6.314  13.484  0.1860 -0.0713 -0.0257
19435W        W35569   9.560   7.841  15.106  0.0193 -0.5882 -0.1116
19436W        W35570  13.718   6.347  15.422 -0.0471 -0.0075 -0.1564
19437W        W35571   9.185   1.315  12.996 -0.0742  0.0807  0.2313
19438W        W35572  12.436  14.300  12.939 -0.1042  0.0080  0.0938
19439W        W35573   7.809   7.456   2.372 -0.1000  0.0474 -0.2465
19440W        W35574  16.683  13.112   2.158 -0.0033  0.1861  0.1149
19441W        W35575   3.710  15.103  12.800  0.3050 -0.0305 -0.0180
19442W        W35576   1.035  17.617   4.235  0.2956 -0.2565 -0.1172
19443W        W35577  18.451   9.556  13.307 -0.2387  0.1682 -0.0289
19444W        W35578   9.717   6.263  14.630 -0.0289  0.1322 -0.3679
19445W        W35579  10.384   4.816   2.215 -0.0452 -0.0630 -0.1377
19446W        W35580  15.558   1.629   0.710 -0.2195 -0.0825  0.1002
19447W        W35581  13.410   5.061   1.064  0.2238  0.0659 -0.2627
19448W        W35582  18.143   1.648   4.146 -0.0441 -0.0821 -0.1825
19449W        W35583   1.080   9.387  11.583 -0.2659 -0.3257  0.0390
19450W        W35584  11.144   6.519  11.868  0.1550  0.4010  0.0226
19451W        W35585  10.033  14.854   4.088  0.1819  0.3028 -0.0094
19452W        W35586   0.822   3.630  10.980 -0.0879  0.1969  0.1801
19453W        W35587   3.490  17.200  15.100  0.0830  0.3461  0.0963
19454W        W35588   3.474  16.483   0.108 -0.0358 -0.3390  0.0954
19455W        W35589   5.817   5.541   0.628 -0.0491 -0.0023 -0.1310
19456W        W35590  14.257   1.252   0.955 -0.2994 -0.2370 -0.0814
19457W        W35591  15.253   0.639   2.428  0.1331  0.1587  0.3812
19458W        W35592   7.456   9.419  14.729 -0.0107 -0.0703  0.1099
19459W        W35593   3.456   6.118   3.855  0.2652  0.1083  0.1545
19460W        W35594   3.679   2.966  14.651  0.1170 -0.0178 -0.1659
19461W        W35595  15.575  11.509  15.463  0.0470 -0.0499  0.1497
19462W        W35596  14.951   0.363   1.706  0.0241  0.2482  0.0147
19463W        W35597   2.176   7.536   5.025 -0.1932  0.2216  0.0017
19464W        W35598  18.031  17.636  10.090 -0.1240 -0.0276 -0.0097
19465W        W35599   3.823  12.239   0.231 -0.1195 -0.1587  0.0109
19466W        W35600   5.252  17.876  13.365 -0.0890 -0.1400 -0.3786
19467W        W35601  12.157  10.002   1.568  0.0803  0.1172 -0.1372
19468W        W35602  14.691   7.430   0.431 -0.0227  0.0108 -0.2977
19469W        W35603  14.452   0.929   5.768 -0.0543  0.2447  0.4312
19470W        W35604  18.271  11.628  12.220 -0.1051 -0.0516  0.3362
19471W        W35605   4.847   0.818   3.411  0.1420  0.1806  0.2385
19472W        W35606  16.877   5.920   1.629 -0.2976 -0.0691 -0.0636
19473W        W35607  11.040   0.487   0.427  0.1466  0.0068  0.1711
19474W        W35608  15.095  18.435   9.446  0.0829  0.0834 -0.0632
19475W        W35609  12.323   6.140  11.444 -0.2998 -0.0443  0.3059
19476W        W35610   6.737   3.849  11.171  0.0460 -0.1052  0.3013
19477W        W35611   5.646   7.527   3.506  0.1151 -0.3316 -0.0160
19478W        W35612  17.591   7.469  13.756  0.1769 -0.1095  0.0615
19479W        W35613  16.709   6.829   2.663 -0.1239  0.0545 -0.0547
19480W        W35614   8.669  16.568  13.864 -0.2013  0.0552 -0.1355
19481W        W35615   7.928  13.838  14.212  0.1082 -0.1381  0.2135
19482W        W35616   0.511   1.927  14.541 -0.0858 -0.0753  0.0598
19483W        W35617   2.631   2.516   3.373 -0.1554  0.0791  0.0228
19484W        W35618   7.480  14.212   3.575 -0.0171 -0.0472  0.0263
19485W        W35619   9.902  12.905  11.676 -0.0338 -0.1637  0.0065
19486W        W35620  14.925   8.794  12.432 -0.1632 -0.0765 -0.1757
19487W        W35621  14.581  13.303  14.273 -0.0054  0.0716 -0.2513
19488W        W35622   3.111  14.702  10.697 -0.1345 -0.2957 -0.1080
19489W        W35623  10.601   1.523  11.064  0.1377  0.0368  0.2213
19490W        W35624  14.470  10.579  12.389 -0.0602  0.0515 -0.2200
19491W        W35625  17.893   7.149  13.284 -0.2626  0.0117  0.2723
19492W        W35626   6.055  15.111   4.055  0.0995  0.2810 -0.1440
19493W        W35627  17.337   6.075   2.317  0.0460 -0.4289 -0.0487
19494W        W35628  15.125   0.672   3.136  0.0225 -0.1203 -0.1103
19495W        W35629  14.018   2.398   0.836 -0.0812  0.1850  0.0638
19496W        W35630   0.982   0.272   4.462 -0.1730  0.1477  0.1586
19497W        W35631   1.487  14.555   3.993  0.1548  0.3834  0.4267
19498W        W35632  18.347   2.566   1.962  0.0989  0.1912 -0.0279
19499W        W35633   7.684   9.713   3.812 -0.0466 -0.0886 -0.3344
19500W        W35634  16.551   8.100   1.192 -0.1810 -0.0392  0.2749
19501W        W35635  12.001  17.988   6.049  0.1827 -0.2764  0.2274
19502W        W35636   8.220  15.292   4.634  0.2570  0.0664 -0.3245
19503W        W35637   7.248   4.717  14.976  0.1501  0.2207  0.0306
19504W        W35638  18.417  16.535   5.368 -0.0689  0.0633  0.0319
19505W        W35639   4.458  13.479   0.769 -0.0125  0.0317 -0.4028
19506W        W35640   3.462   5.544  12.183  0.4817 -0.1535 -0.0627
19507W        W35641  11.335   1.877   1.119 -0.0971 -0.0157 -0.4054
19508W        W35642   5.547  13.046   0.187 -0.1190  0.3072  0.0840
19509W        W35643   3.356  18.454  14.006  0.1940 -0.2624  0.0208
19510W        W35644   1.771  15.815  12.953  0.1884 -0.0809  0.0654
19511W        W35645  14.948  16.608   5.700 -0.0525 -0.1427  0.0291
19512W        W35646   9.680  11.961  12.673 -0.0084  0.2029 -0.0241
19513W        W35647   9.632  10.257   2.394  0.0556  0.0130 -0.3483
19514W        W35648   8.376  18.572   3.486  0.1380 -0.1075  0.0678
19515W        W35649  12.106   1.202   6.082 -0.3241  0.2208 -0.0538
19516W        W35650   4.801   3.193   2.196  0.1125 -0.0694  0.3810
19517W        W35651   9.087   7.092  15.313 -0.0842 -0.0351 -0.1379
19518W        W35652   2.061   4.417  11.864 -0.0692  0.1983  0.1833
19519W        W35653  11.346   8.708  12.989 -0.0385 -0.0021  0.3799
19520W        W35654  17.311  11.764   4.362  0.1434 -0.1418 -0.0511
19521W        W35655  12.990  16.136   3.541  0.3788  0.0345 -0.2792
19522W        W35656  14.173  15.372  15.286 -0.1380 -0.2136  0.1802
19523W        W35657  18.098  15.714   2.491  0.2004  0.0502 -0.0999
19524W        W35658   2.443   3.298  11.020  0.0411 -0.3066  0.3308
19525W        W35659  15.299   7.231  10.895 -0.3494  0.1910 -0.0803
19526W        W35660  18.055  11.761   1.178 -0.4102  0.2620  0.1831
19527W        W35661  11.441  14.155  15.239 -0.0768  0.1995  0.0183
19528W        W35662   8.582   8.163   5.851 -0.0870 -0.0521  0.0068
19529W        W35663  10.480  17.048   3.133 -0.2162 -0.0333 -0.1527
19530W        W35664   1.720   4.380   3.421 -0.1065 -0.0766 -0.0589
19531W        W35665  14.195   4.435  10.949  0.0629  0.0302  0.4131
19532W        W35666   4.537  16.306  11.805 -0.1262 -0.0147  0.1992
19533W        W35667  14.410   1.252   1.443  0.0351  0.1293 -0.0513
19534W        W35668   7.544  16.604  14.337  0.0220 -0.4170  0.0932
19535W        W35669  16.039   2.870  12.758 -0.1118  0.1700 -0.0743
19536W        W35670   5.949  13.225  10.681  0.1089 -0.0513  0.2463
19537W        W35671  11.270   4.405   0.741  0.1390 -0.0926  0.0418
19538W        W35672  10.871  18.509  13.419  0.1001 -0.1457  0.1533
19539W        W35673   9.443   9.396  13.727 -0.1565  0.1162 -0.0596
19540W        W35674   2.073   9.529   4.380  0.3394 -0.1377  0.2895
19541W        W35675   0.363  18.590   4.478 -0.1647  0.1758 -0.2461
19542W        W35676   5.591   1.831  15.494 -0.1057  0.1289 -0.0480
19543W        W35677   5.623   3.437  11.571 -0.1025  0.0279 -0.1863
19544W        W35678   3.606  14.755   1.787  0.1105  0.0836 -0.0470
19545W        W35679   8.495  11.546   0.015  0.2143  0.1210 -0.3194
19546W        W35680  17.311  12.303  11.227  0.0577  0.0047  0.2163
19547W        W35681   5.317   0.181   3.813  0.1841 -0.1408 -0.2212
19548W        W35682  10.521  12.497  14.945  0.2058 -0.2393 -0.1438
19549W        W35683   2.866   0.458   0.623  0.0138  0.2013 -0.0426
19550W        W35684  14.231  13.227   2.883  0.0320  0.2561 -0.0607
19551W        W35685   2.616  12.866  13.724 -0.1107 -0.1850  0.0689
19552W        W35686  12.663   0.664  15.267 -0.1020  0.1880  0.0545
19553W        W35687   0.641   5.562   1.018 -0.0587  0.1246  0.1316
19554W        W35688   5.918   3.145   9.453  0.2218 -0.2198 -0.0086
19555W        W35689  17.536   9.830  11.403  0.1725 -0.1116 -0.0417
19556W        W35690   0.489   5.105   2.095  0.0199 -0.1454  0.1118
19557W        W35691  15.313  17.363  11.888  0.1545  0.2691 -0.1888
19558W        W35692   9.913   7.827   3.544  0.0467  0.0078 -0.2019
19559W        W35693   9.958   9.945  12.038 -0.2448  0.1491 -0.1665
19560W        W35694   5.344  18.354  14.920  0.1111  0.1504 -0.1168
19561W        W35695  10.329  12.957  15.034  0.1927  0.0677  0.3998
19562W        W35696  11.838   7.787  11.018  0.1461  0.1726  0.1309
19563W        W35697  14.833   9.173   0.242 -0.1793  0.0789  0.0827
19564W        W35698  13.350   7.696   2.482  0.2335 -0.2171 -0.3874
19565W        W35699  14.422   4.079  10.549 -0.2976 -0.2412  0.2335
19566W        W35700   5.224   3.750  12.963 -0.2438 -0.2167  0.0667
19567W        W35701   7.145   1.663   0.945  0.0021  0.0416  0.0905
19568W        W35702   3.987   4.077   1.134 -0.4975  0.3384  0.2027
19569W        W35703  12.849  15.161   4.762 -0.0864  0.0250 -0.4029
19570W        W35704  15.165  13.847   5.228  0.1743  0.1302  0.2004
19571W        W35705  13.829   3.776  10.396  0.1719  0.2275 -0.4575
19572W        W35706   5.351  12.284   3.683  0.1017 -0.1635  0.0510
19573W        W35707   7.940   2.674  11.369  0.1139 -0.1706  0.2293
19574W        W35708   1.767   5.518   0.141 -0.1140 -0.0928 -0.1857
19575W        W35709  11.889   2.884  10.506  0.0350  0.0820  0.2927
19576W        W35710  10.654   5.480  14.712  0.1350 -0.2444  0.0254
19577W        W35711   0.247   4.665   1.396 -0.3454 -0.3279 -0.0411
19578W        W35712  12.990   6.487   9.884  0.2394  0.0676 -0.4500
19579W        W35713   9.680  17.536   3.295 -0.1087  0.2219  0.0042
19580W        W35714  17.392   0.223   2.017  0.0085 -0.1335  0.4803
19581W        W35715   8.303  15.453   1.568 -0.0556 -0.0612 -0.2287
19582W        W35716  13.973  11.573  10.553  0.0372 -0.2236  0.1067
19583W        W35717  12.299   4.184  11.186  0.1175 -0.0758 -0.3947
19584W        W35718  13.546  16.518   4.785  0.2205 -0.0074 -0.1132
19585W        W35719  11.407   8.061   4.344  0.4196  0.2026 -0.0911
19586W        W35720   7.007   7.031  11.860  0.0546  0.1687  0.0536
19587W        W35721   7.349   0.696  13.912  0.1977  0.1023 -0.0636
19588W        W35722   3.294   4.211  12.627  0.0218 -0.1452  0.0482
19589W        W35723   9.767  15.866   3.855  0.0091 -0.1473  0.2612
19590W        W35724  14.809   1.447   0.193  0.0679 -0.0517 -0.0056
19591W        W35725  12.713  15.118  11.016 -0.1231  0.1029 -0.3822
19592W        W35726  16.438  16.492   3.317  0.0316 -0.1900  0.1541
19593W        W35727  15.302  13.946  14.354  0.0957  0.0632  0.0872
19594W        W35728   2.720   7.978  12.278 -0.2876  0.2981 -0.0151
19595W        W35729   2.415  13.144   2.721  0.3218 -0.0178  0.1570
19596W        W35730  14.606  16.103   1.746  0.1172  0.1824  0.1062
19597W        W35731  13.644   9.517   1.004 -0.0977 -0.2233 -0.4805
19598W        W35732   5.380   0.808  12.970 -0.1591 -0.2800 -0.0297
19599W        W35733   0.749   5.628   3.436  0.0889  0.2175  0.4278
19600W        W35734  18.190   5.650  12.746 -0.0121 -0.0186  0.2870
19601W        W35735  17.364  15.964   4.292 -0.1300  0.0205  0.4140
19602W        W35736   3.445  13.453  15.311 -0.0198 -0.0637  0.2053
19603W        W35737  10.918   1.100  12.074  0.4027  0.0768  0.0811
19604W        W35738  18.069   2.183  13.661 -0.0083  0.0362  0.1194
19605W        W35739   5.854  18.666   2.958 -0.1731  0.1668  0.1449
19606W        W35740   9.596   5.054  13.189  0.1525  0.0773  0.1994
19607W        W35741  18.607   6.803  11.962  0.2046 -0.0146  0.0402
19608W        W35742   5.574   6.223   1.349  0.0422  0.0222 -0.1675
19609W        W35743  13.622   3.338  10.116  0.0571  0.0817 -0.2222
19610W        W35744   7.500  11.987  13.229  0.0543 -0.4764  0.1631
19611W        W35745  11.922   6.485  11.372 -0.2716  0.3139  0.1389
19612W        W35746   1.346  15.833  11.527  0.1195  0.0448 -0.1875
19613W        W35747   4.589   6.047  11.772 -0.0386 -0.0657  0.1727
19614W        W35748   6.635   5.380   0.288 -0.0902 -0.4861  0.1113
19615W        W35749   3.994  17.367  10.908  0.0121 -0.0504  0.0905
19616W        W35750   2.831   9.091   1.394 -0.0394  0.1728  0.1499
19617W        W35751  18.543   0.876  12.567  0.1611  0.1029 -0.2873
19618W        W35752   4.459  11.716  11.483 -0.0110 -0.0492 -0.2380
19619W        W35753  18.171  15.606   1.635  0.1784 -0.1132  0.1372
19620W        W35754  13.506   0.327  13.639  0.0930  0.0212  0.0698
19621W        W35755   5.808   9.716  12.563  0.5112 -0.2481 -0.1910
19622W        W35756   6.227   9.680  13.892 -0.0395 -0.0297  0.1339
19623W        W35757  13.871  12.950  11.151 -0.2813  0.1542  0.1171
19624W        W35758   4.843   9.483  13.984  0.0933  0.0292 -0.2291
19625W        W35759   4.927   3.601  14.979  0.2258 -0.0651 -0.1570
19626W        W35760   9.620   3.867   4.245 -0.0134 -0.0408  0.1672
19627W        W35761   0.707   0.384  10.470 -0.2031  0.0406 -0.1856
19628W        W35762   8.157  15.824  12.994 -0.0158  0.2083  0.0040
19629W        W35763   1.211  13.590   1.726  0.0749 -0.1957 -0.0746
19630W        W35764  16.640   5.891   1.234  0.1192  0.1041  0.0005
19631W        W35765  12.822   9.526  13.922  0.0528 -0.0277  0.2464
19632W        W35766   6.255   2.815   3.449  0.2843  0.1279  0.0854
19633W        W35767  13.106  11.992   3.932 -0.4897 -0.2271  0.0988
19634W        W35768  15.584   3.152   2.215  0.1248  0.0504 -0.0261
19635W        W35769   3.516   8.995   5.424  0.4891  0.0017  0.3088
19636W        W35770   6.190   1.510   3.822 -0.2058  0.2412  0.1432
19637W        W35771  11.589   0.755   3.743 -0.0309 -0.0043 -0.1585
19638W        W35772  16.271   1.864   1.392 -0.1656  0.3695 -0.0300
19639W        W35773  16.448   9.074   2.681  0.1331 -0.0986  0.1138
19640W        W35774   0.577   8.435   3.310 -0.1278  0.1353 -0.1944
19641W        W35775   2.678   8.198  12.884  0.0223 -0.4035  0.1154
19642W        W35776   1.466  15.820   4.461 -0.1276 -0.3182 -0.1458
19643W        W35777   9.028   2.073  12.272  0.0550  0.1645 -0.1409
19644W        W35778  10.032  14.770  14.593  0.2142 -0.3595 -0.0673
19645W        W35779   0.083  13.602  11.095 -0.3457  0.0584 -0.0625
19646W        W35780  12.943  10.011  11.550 -0.1210  0.0615  0.2412
19647W        W35781  15.042  13.368  10.754 -0.3772  0.4124  0.0918
19648W        W35782   5.616   1.629  13.253 -0.3582 -0.0244  0.3050
19649W        W35783   6.999  10.275  11.160  0.2218  0.1742  0.4862
19650W        W35784   0.454   0.905  11.887 -0.2513 -0.2035  0.1217
19651W        W35785   2.789   6.770  15.531 -0.0905 -0.0796 -0.0630
19652W        W35786   9.064  18.362  13.597 -0.0872  0.2670  0.2413
19653W        W35787   8.702  13.437  11.292  0.3283  0.2871  0.0166
19654W        W35788   0.472   9.748  13.004  0.1397  0.0890 -0.2048
19655W        W35789   7.594   2.114  13.616  0.1779 -0.1086  0.0084
19656W        W35790   9.660   7.015   5.856  0.1418  0.2868 -0.2132
19657W        W35791  12.248   2.050   4.454  0.1320 -0.1234 -0.1530
19658W        W35792  12.100   2.897  11.346 -0.3185  0.1871  0.2896
19659W        W35793   2.088   4.092   3.080 -0.0824 -0.3037  0.1141
19660W        W35794   5.099  14.991  14.839  0.0586  0.0643  0.0843
19661W        W35795   4.497   4.245  11.112  0.1214  0.0401 -0.2074
19662W        W35796   4.053  16.084   1.193  0.1204  0.3749 -0.1042
19663W        W35797   2.373   8.604  15.110  0.0750 -0.1087 -0.1422
19664W        W35798   0.503   8.840   4.978  0.1290 -0.1647 -0.0295
19665W        W35799   1.991   6.905   3.434 -0.0643  0.0752 -0.0775
19666W        W35800  11.814  12.380   2.195  0.0316  0.1838  0.0400
19667W        W35801  12.411  16.362  13.587 -0.0061  0.0126  0.0088
19668W        W35802   0.621  13.897  11.453  0.0348 -0.0602 -0.0778
19669W        W35803   1.248   6.408   3.307  0.0828 -0.6747 -0.1566
19670W        W35804   8.962   9.834   4.599 -0.3478  0.0007 -0.0246
19671W        W35805  17.404   2.170  15.049 -0.1084  0.1187  0.1128
19672W        W35806  16.786  13.361  12.319  0.0773 -0.0367 -0.2173
19673W        W35807   3.551   3.602   0.663 -0.1762 -0.2716 -0.1027
19674W        W35808   0.501   2.394   4.297  0.2295 -0.2400  0.1076
19675W        W35809   9.294   7.329   0.539  0.0103 -0.0216 -0.2004
19676W        W35810  14.336   2.349  14.661  0.0654 -0.1543 -0.2477
19677W        W35811  12.822  14.724  14.051 -0.1662 -0.2337 -0.0506
19678W        W35812  17.537   1.773  13.014  0.3326 -0.1173  0.1658
19679W        W35813  18.528   5.076   5.358  0.0993 -0.2150  0.0679
19680W        W35814  16.057  14.120  14.697  0.1649 -0.0460 -0.0296
19681W        W35815  16.874  14.014  11.745 -0.2337  0.3978  0.0751
19682W        W35816  16.053   1.969  14.776  0.2257  0.0167  0.1661
19683W        W35817  13.019  10.107  10.999 -0.0998  0.0320  0.0412
19684W        W35818   2.083  10.449   1.787  0.4886  0.0016  0.0908
19685W        W35819  16.789  13.923  15.420  0.0095  0.0726  0.0294
19686W        W35820   5.371   2.817  12.732 -0.2083 -0.0484 -0.0783
19687W        W35821  17.678   9.083   2.125  0.1612  0.2688 -0.3204
19688W        W35822  13.444   6.328  11.744 -0.0518  0.3121 -0.0985
19689W        W35823   5.463   6.523   0.815  0.1556 -0.0116 -0.2267
19690W        W35824   3.876  12.783  14.288 -0.1150 -0.0906 -0.4060
19691W        W35825   4.222  15.733  10.869 -0.3016 -0.1292 -0.0686
19692W        W35826  11.262   8.376   1.169 -0.1742 -0.1823  0.1598
19693W        W35827  11.876  13.041   1.387  0.2095  0.2488  0.3498
19694W        W35828   2.945  11.307   5.997  0.0228  0.0877  0.0754
19695W        W35829   1.953  13.133   0.423  0.1245  0.3216 -0.4574
19696W        W35830   0.008  15.020   2.488 -0.0738  0.0232  0.1007
19697W        W35831   4.081  17.040  11.836  0.0230 -0.0009  0.0010
19698W        W35832  16.081   2.566  10.386 -0.1426  0.1802  0.1941
19699W        W35833   9.712  12.183  14.785  0.4391  0.2929  0.2375
19700W        W35834   2.052   6.694   5.487  0.0777 -0.1286 -0.2301
19701W        W35835   5.921   3.280   0.157 -0.1297 -0.0022 -0.0908
19702W        W35836   8.722  12.976   2.230  0.1851 -0.1771 -0.1848
19703W        W35837   6.128   8.893   4.220 -0.1806 -0.1956 -0.1921
19704W        W35838  18.347   8.083   3.371  0.2354 -0.2635  0.3267
19705W        W35839   7.247  14.434  11.784  0.0422  0.0342 -0.0014
19706W        W35840  11.211   3.610   3.397 -0.0947  0.2366 -0.2241
19707W        W35841  14.191   2.251   4.750 -0.0423  0.1147  0.1156
19708W        W35842  16.835  17.319   1.784 -0.1073  0.0923 -0.3552
19709W        W35843   6.529   0.369   3.488 -0.0249  0.2524  0.1381
19710W        W35844  11.535   0.521  13.499 -0.1444 -0.4934 -0.1921
19711W        W35845   9.467  11.209  12.154 -0.0829 -0.1255 -0.1229
19712W        W35846  13.395  10.449  13.183 -0.0107  0.2158 -0.0595
19713W        W35847  12.366   3.790   4.536  0.0011 -0.1353 -0.2477
19714W        W35848   4.453   8.203   5.590 -0.0013  0.3820  0.0251
19715W        W35849   8.136   7.228   1.581 -0.0864 -0.0219 -0.3663
19716W        W35850  10.325   2.812   5.044  0.0117  0.2608 -0.2418
19717W        W35851   4.107  11.080  15.471 -0.0269  0.1100  0.0720
19718W        W35852   3.745   2.456   2.165 -0.0931  0.0935 -0.0675
19719W        W35853   5.961  11.459  12.967  0.1712  0.0090  0.3297
19720W        W35854  16.833   6.327  13.822  0.1826  0.0738 -0.2551
19721W        W35855  12.856   0.883  13.896  0.3488 -0.1529 -0.0300
19722W        W35856  15.105   3.877   2.864  0.1690 -0.1926  0.0344
19723W        W35857   1.347  16.990   3.048 -0.0646 -0.3333 -0.1745
19724W        W35858   3.891   6.859  12.998 -0.3315 -0.2869  0.0684
19725W        W35859   0.467   2.585   1.384  0.0838 -0.3102  0.0298
19726W        W35860  16.824   5.375   4.767 -0.1954 -0.2982 -0.1681
19727W        W35861  18.483  16.744  11.608  0.0367  0.1161  0.0388
19728W        W35862   0.522   3.494   3.609  0.0327  0.1340  0.1306
19729W        W35863   2.198   0.412   1.616  0.3393 -0.0501  0.1584
19730W        W35864   0.154  15.615  12.374 -0.1491 -0.1485 -0.2124
19731W        W35865  13.719   0.901   1.972 -0.2385 -0.2682 -0.1818
19732W        W35866   8.122   3.248  12.671  0.0441  0.2017 -0.0046
19733W        W35867  10.603  10.819   2.251  0.0652 -0.0534  0.2201
19734W        W35868   1.607   8.228  11.752  0.1229  0.0386  0.2492
19735W        W35869  15.199   3.823   1.316 -0.0678  0.0081  0.4724
19736W        W35870   9.244   7.145   6.151  0.1655  0.0311  0.1204
19737W        W35871   7.436  12.958   2.767  0.1510  0.1318 -0.0929
19738W        W35872   9.999   9.467   3.588 -0.1502  0.1710  0.2861
19739W        W35873   3.006   1.673   4.109 -0.0231  0.1303  0.1047
19740W        W35874   9.030   7.724  10.362  0.0054 -0.0066 -0.0158
19741W        W35875  11.547   0.037  13.304  0.2310 -0.1395  0.1870
19742W        W35876   3.157   7.499   3.351 -0.0316  0.0019 -0.1673
19743W        W35877  18.629   0.571  13.852 -0.5395 -0.0595 -0.0273
19744W        W35878  15.360   2.374  14.777  0.4187  0.0339  0.1017
19745W        W35879   6.936   9.901  13.478  0.0272  0.1512  0.0700
19746W        W35880   5.319   7.303  12.458  0.1785 -0.1224  0.3990
19747W        W35881  11.620  13.767  10.431  0.1223  0.2003  0.4765
19748W        W35882  11.185   1.705   5.377  0.0956 -0.1144  0.0318
19749W        W35883   6.144   6.013  11.947  0.0131 -0.3979  0.0883
19750W        W35884   9.969   0.441  11.461 -0.0694  0.0638  0.1496
19751W        W35885  16.696   8.713  11.736  0.2562  0.0598  0.0828
19752W        W35886   9.051  15.463  15.173 -0.4478 -0.2699 -0.0955
19753W        W35887  11.867  17.025   5.996 -0.0522 -0.0110 -0.0354
19754W        W35888  15.124   6.657  11.537 -0.0531 -0.0159  0.1813
19755W        W35889  11.665   7.328  10.940 -0.1345 -0.0298  0.2505
19756W        W35890  12.658  10.181   1.692 -0.3429 -0.2387  0.0391
19757W        W35891   5.350   3.048   1.008 -0.3921  0.0351 -0.0117
19758W        W35892  10.432   2.981  13.681  0.2261  0.3160 -0.2207
19759W        W35893   8.733  11.190   3.203  0.1139 -0.0394 -0.2200
19760W        W35894  12.726   2.040   4.159 -0.0045 -0.2311  0.0919
19761W        W35895  10.216  13.723  13.692  0.0547 -0.1543 -0.1844
19762W        W35896  12.047   7.955  14.284 -0.1888 -0.0204  0.0770
19763W        W35897  14.374   3.050   0.975 -0.3342 -0.1336 -0.0782
19764W        W35898  18.151   6.788   2.750 -0.2434 -0.1173 -0.1455
19765W        W35899  14.620  13.760   1.518 -0.0639 -0.0784 -0.0225
19766W        W35900   5.392  11.442   2.705 -0.0702 -0.0760  0.0139
19767W        W35901   4.293  15.738   0.240  0.2386 -0.2286 -0.0004
19768W        W35902   5.883  10.320   4.188  0.0520 -0.0381 -0.2234
19769W        W35903   6.799   0.156  12.505  0.2086 -0.1772  0.2510
19770W        W35904  16.355   5.450  13.643  0.1493 -0.4225 -0.0770
19771W        W35905   2.601   0.774   0.292 -0.4267  0.1539 -0.2902
19772W        W35906   6.809   6.902  14.846  0.1487 -0.0490  0.0404
19773W        W35907   8.813   5.348  14.996 -0.0517  0.1119 -0.1827
19774W        W35908   3.113  18.111  15.341  0.4286 -0.1083  0.1878
19775W        W35909  12.366   6.583   0.681  0.0089  0.0820 -0.2214
19776W        W35910   4.821  18.519  12.119  0.2450 -0.1159  0.1127
19777W        W35911   8.467   6.935  11.998 -0.5953  0.2503  0.1671
19778W        W35912   7.152  14.487  12.630  0.2762 -0.0530 -0.2304
19779W        W35913  13.814   5.585  11.728 -0.0934 -0.1317  0.0550
19780W        W35914   0.964   9.780  12.491 -0.0227  0.0614 -0.0126
19781W        W35915   4.589   5.423   4.478  0.2483 -0.0254 -0.0859
19782W        W35916   8.909   4.820   2.559  0.2794  0.1544  0.3637
19783W        W35917  16.428   7.122  14.022 -0.1828 -0.1382  0.0687
19784W        W35918   9.997   3.452   0.793 -0.0873 -0.0824  0.1228
19785W        W35919  13.189  16.973  12.098 -0.0462  0.0097  0.1580
19786W        W35920   7.414   0.863   3.403  0.2915  0.1403 -0.2653
19787W        W35921   9.799  17.741   0.193  0.0898 -0.3279 -0.2038
19788W        W35922   7.262   4.991   0.819  0.2656  0.2523 -0.1285
19789W        W35923   1.534  12.631   5.616 -0.1275 -0.3125 -0.1874
19790W        W35924   5.613  11.191   5.009 -0.0518  0.0133 -0.1003
19791W        W35925   5.267  17.957  11.477  0.3657 -0.0554 -0.3500
19792W        W35926  15.019   1.519   4.831  0.2361  0.2439 -0.0317
19793W        W35927  15.133   0.465  10.585 -0.0034  0.0843  0.0547
19794W        W35928   7.655   9.450  14.197 -0.0527 -0.1491 -0.3646
19795W        W35929   1.468   4.223  15.398  0.3614  0.0222  0.2048
19796W        W35930   3.157  15.388  13.454 -0.2578 -0.2955  0.0591
19797W        W35931  16.731  11.978   1.918 -0.1066 -0.1536 -0.0017
19798W        W35932   8.536   0.529   0.285 -0.0444  0.1499 -0.1688
19799W        W35933  18.185   3.148   3.617 -0.2643 -0.2901 -0.0927
19800W        W35934  16.765  11.837  12.666  0.2446  0.0202 -0.3139
19801W        W35935  15.393  17.974   2.712 -0.0861  0.3398 -0.2348
19802W        W35936  13.322  18.352   1.825  0.3128  0.1726 -0.0370
19803W        W35937   8.261   3.949  10.911  0.1221  0.1605  0.2953
19804W        W35938   7.440   5.985  11.296  0.2100  0.0683  0.1148
19805W        W35939  11.764  13.720  11.442 -0.0604  0.0043 -0.2195
19806W        W35940   7.998   8.538   0.212  0.1537  0.0077 -0.2684
19807W        W35941  10.905  18.264   2.056 -0.0232  0.1536  0.0042
19808W        W35942   1.710   9.198  12.408  0.3680 -0.0727  0.0126
19809W        W35943  13.585  17.640   2.376  0.0389 -0.0210  0.2661
19810W        W35944   0.925   9.440   0.720  0.0730  0.1230  0.0095
19811W        W35945   3.059   6.613  11.896  0.0457  0.3769  0.0983
19812W        W35946  16.215  16.923  11.532 -0.2373  0.2765  0.1497
19813W        W35947  18.260   2.082  15.409 -0.1877  0.2274  0.2319
19814W        W35948   7.167   6.840  11.061 -0.2308  0.0795  0.0592
19815W        W35949   7.317   6.517  14.024 -0.1557  0.0616 -0.3310
19816W        W35950   5.951  12.694   5.707  0.0459 -0.0658 -0.2512
19817W        W35951   9.426   9.005   6.153 -0.3406  0.2414 -0.2229
19818W        W35952  12.809  12.711   2.492 -0.2939  0.2237 -0.0136
19819W        W35953   8.382   3.015  11.421  0.0856  0.1717 -0.1556
19820W        W35954  11.720  16.756  12.681  0.1949  0.0452 -0.2446
19821W        W35955  15.787   6.117  13.225 -0.0329  0.0324  0.3666
19822W        W35956  16.444   0.467  14.695  0.0389  0.1154 -0.0039
19823W        W35957  16.780   6.512  15.205  0.1940  0.2084  0.1011
19824W        W35958  13.777   6.094  14.028 -0.2407 -0.0085  0.0190
19825W        W35959  18.678  11.780  14.316 -0.0602 -0.0023 -0.1323
19826W        W35960   4.263  11.927  13.204 -0.1322 -0.1211 -0.1099
19827W        W35961   8.061  11.708  14.578 -0.0992 -0.4725 -0.2191
19828W        W35962   5.934   9.896   3.259  0.1842 -0.0705  0.0619
19829W        W35963   1.971   8.997   1.190  0.1937 -0.0530 -0.4831
19830W        W35964   4.031   8.036   2.883 -0.0743  0.1939  0.1416
19831W        W35965   9.555  13.805   1.093 -0.2526 -0.1899  0.3021
19832W        W35966   7.297   9.024   4.719  0.3705  0.0110  0.1187
19833W        W35967   2.891  15.827   4.234 -0.1703  0.1221 -0.0156
19834W        W35968  11.196   4.827  13.804 -0.1328 -0.0488  0.0904
19835W        W35969  18.506   2.513   0.022 -0.1103  0.2736  0.1403
19836W        W35970   5.461  18.545   2.051  0.1124  0.3008 -0.1817
19837W        W35971  17.645   1.663   4.916  0.2755 -0.0959  0.1098
19838W        W35972   0.430   9.327  13.882 -0.0399  0.2867 -0.1184
19839W        W35973  12.999  12.141   2.581  0.1479  0.0681 -0.0211
19840W        W35974  13.064  10.337   3.984  0.1447 -0.2138 -0.2450
19841W        W35975  18.087   7.184   2.340  0.1628  0.1174 -0.1612
19842W        W35976   1.685  11.753   3.875 -0.0512 -0.2676  0.2658
19843W        W35977   0.955   3.002  15.539  0.0996  0.3323  0.1284
19844W        W35978   5.561  15.629   0.843  0.1536 -0.1567  0.1591
19845W        W35979  12.817  13.233   0.484 -0.0904 -0.2462  0.0936
19846W        W35980  12.769   2.085  12.456  0.1799  0.5461 -0.1019
19847W        W35981   9.063  12.888  14.446 -0.3096  0.0015 -0.0950
19848W        W35982  18.440   6.096  11.447 -0.1800  0.0959 -0.1626
19849W        W35983   6.991  15.627   4.271  0.2106 -0.0093 -0.2333
19850W        W35984   0.436   0.863   2.393 -0.0155  0.2229  0.2160
19851W        W35985  14.960  16.184   2.961  0.1714 -0.0557  0.0360
19852W        W35986   6.092   1.380   4.308  0.0686 -0.0654  0.3700
19853W        W35987   6.414   0.101   3.983  0.2607  0.1574  0.2159
19854W        W35988  13.704   0.806   0.169  0.0724  0.0744  0.0839
19855W        W35989   8.537  15.476  12.628  0.1142 -0.0839 -0.0060
19856W        W35990   9.099   6.188  13.086  0.2890  0.1416 -0.0012
19857W        W35991   4.238   3.044  14.154  0.1504 -0.2316 -0.1464
19858W        W35992   3.974  15.432  12.574  0.1159 -0.1118 -0.1151
19859W        W35993   9.375   0.003  13.767  0.0494  0.0042 -0.1412
19860W        W35994  13.255  17.860  14.210  0.1347 -0.0073  0.0653
19861W        W35995  12.489  12.648  15.403 -0.2598  0.1601  0.0208
19862W        W35996   2.480   7.979   5.033 -0.3887 -0.0804  0.1369
19863W        W35997   8.054  11.527   3.514 -0.0348 -0.0366  0.2711
19864W        W35998   9.391   4.382   1.496  0.0872  0.2247 -0.4612
19865W        W35999   5.866   4.787  13.393 -0.3829  0.1072 -0.0417
19866W        W36000  16.649  12.244   2.773 -0.2572 -0.0876 -0.0344
19867W        W36001   5.775  16.426  10.102 -0.2394  0.2819  0.0865
19868W        W36002  17.659   3.845   1.022  0.4708 -0.0537 -0.2612
19869W        W36003  16.848   8.713   2.979  0.0080  0.0693 -0.0609
19870W        W36004  14.488   3.284   9.689 -0.2884 -0.3540 -0.0340
19871W        W36005   7.752   8.463   4.897 -0.0544  0.1023 -0.0094
19872W        W36006  13.233  18.529   2.442 -0.1406 -0.2980  0.2259
19873W        W36007   0.095   7.289   3.928  0.0837 -0.0878  0.0399
19874W        W36008   8.051   1.192  11.114 -0.0524 -0.0683  0.2880
19875W        W36009   0.750   9.341  11.173  0.3978  0.1081  0.0785
19876W        W36010  11.780   6.986   1.511 -0.1961  0.0654 -0.1233
19877W        W36011   2.403  18.180   2.921  0.1448  0.0269  0.0226
19878W        W36012   5.153   9.476   2.802  0.0665  0.0435 -0.1198
19879W        W36013  10.268   4.247  11.534 -0.2041 -0.0109 -0.1028
19880W        W36014   1.750   7.957  14.071  0.1886 -0.0039 -0.0190
19881W        W36015   4.044   9.627  15.278 -0.1463  0.0602  0.2292
19882W        W36016  17.579  12.200  14.199  0.1954 -0.1403  0.2267
19883W        W36017   0.198   4.582  15.212  0.1548 -0.0495  0.2482
19884W        W36018   4.499   4.048   0.949 -0.2026 -0.0550  0.4565
19885W        W36019  18.612  18.319   0.939 -0.1641  0.0069 -0.2098
19886W        W36020  14.439   6.357   4.084 -0.0776 -0.1750  0.3809
19887W        W36021   0.477  11.190   1.789  0.0063  0.0313 -0.0798
19888W        W36022  17.764  12.732  14.510 -0.2257 -0.0220 -0.1772
19889W        W36023  13.443  17.962   5.599  0.0513 -0.2729 -0.2830
19890W        W36024  16.091  13.205   1.502  0.0744 -0.1829  0.2738
19891W        W36025   8.471  14.996   1.987  0.0973  0.3314  0.0122
19892W        W36026   0.678  13.861   3.049 -0.2118 -0.0018 -0.3377
19893W        W36027   3.122   0.659  12.646  0.0933  0.1645  0.0952
19894W        W36028  17.737   7.533   0.175  0.3376  0.0535  0.3066
19895W        W36029   7.443  10.361   2.206 -0.1222  0.2607 -0.3904
19896W        W36030   9.064  15.079  15.524 -0.0710 -0.1695  0.1506
19897W        W36031   2.473  15.486   5.107  0.2132  0.2076 -0.1052
19898W        W36032   9.694   6.068   1.503  0.0786  0.0264 -0.0812
19899W        W36033  12.281   2.991   1.266 -0.0380  0.1169  0.0841
19900W        W36034  16.733   9.566   0.078  0.2507 -0.0752 -0.3392
19901W        W36035   5.942  15.610  11.097 -0.1598 -0.3080 -0.1120
19902W        W36036   8.639  10.031  11.505 -0.0506  0.0840  0.2540
19903W        W36037  18.512  18.481  12.769 -0.1401  0.2762 -0.2123
19904W        W36038   6.789  12.353   4.324 -0.0284  0.2241  0.3199
19905W        W36039  11.839   3.093  15.376  0.0710 -0.0175 -0.0452
19906W        W36040  13.368   4.501   1.376 -0.2798 -0.0792  0.0282
19907W        W36041  15.251  14.091  12.728 -0.0815 -0.1130  0.1714
19908W        W36042  14.810  13.831  13.311  0.0149  0.0687 -0.3820
19909W        W36043  14.774  14.626  12.045  0.2677  0.1541 -0.1490
19910W        W36044   0.380   3.094   2.619  0.0089  0.0357  0.0044
19911W        W36045   1.379   6.579  14.863 -0.2995  0.1069  0.1524
19912W        W36046  10.023   5.003   2.458  0.2726  0.0124 -0.2170
19913W        W36047   6.764   4.550   0.735  0.4455  0.1292 -0.0904
19914W        W36048  17.310   3.103   0.646  0.1846 -0.0498 -0.4107
19915W        W36049   7.689   8.588  11.557 -0.0316 -0.1338 -0.1942
19916W        W36050  16.773  14.712   4.565 -0.1633  0.0165 -0.3602
19917W        W36051   1.826   0.098   1.896  0.0744 -0.1316 -0.0434
19918W        W36052   3.933  10.199  12.508  0.0139 -0.0933 -0.3289
19919W        W36053   8.939  16.087   5.479 -0.0111  0.0402  0.0731
19920W        W36054   1.275   6.082  13.197 -0.0255 -0.0401 -0.3486
19921W        W36055   7.035   3.780   2.490 -0.3851  0.3235 -0.1490
19922W        W36056  16.788   3.490  11.338 -0.0384  0.4112  0.0311
19923W        W36057  13.346   3.883  14.603 -0.2296  0.1027  0.1900
19924W        W36058  12.230  10.269   2.660 -0.2092  0.0577 -0.1609
19925W        W36059  15.234   2.647   2.018 -0.1966  0.0756  0.0896
19926W        W36060  14.676   4.601  13.475 -0.2348  0.3774  0.0202
19927W        W36061   0.475   5.291  10.048  0.0403 -0.0393  0.0248
19928W        W36062   6.911  16.959   2.355  0.3960  0.0951  0.1175
19929W        W36063   4.880  18.533   0.674  0.1626 -0.0942  0.0233
19930W        W36064  13.433   1.365  10.636  0.0069 -0.1877 -0.0344
19931W        W36065   7.707   2.175  14.912  0.3752  0.0994 -0.0654
19932W        W36066  16.740  11.170   3.783 -0.1511 -0.1594 -0.1503
19933W        W36067   2.216   2.594   3.031  0.0552 -0.0136 -0.0763
19934W        W36068  11.263  14.522   4.068  0.1805  0.4783  0.1273
19935W        W36069  16.369  11.857  14.307 -0.1201 -0.0147  0.2873
19936W        W36070   8.504   4.986  14.400 -0.0791  0.1150  0.0726
19937W        W36071   7.819   9.215   1.231 -0.1163  0.4009 -0.1132
19938W        W36072   3.370  14.985  11.760 -0.0524  0.0555 -0.1076
19939W        W36073  16.107   3.202   2.098  0.1278 -0.0793  0.2563
19940W        W36074   6.560  18.238  14.702  0.4619  0.1611 -0.0749
19941W        W36075  15.285  10.656  14.309  0.0437 -0.2385  0.0921
19942W        W36076   7.817  12.796   3.183 -0.2611  0.2443  0.0444
19943W        W36077   6.973   4.487  14.665 -0.0706  0.3346 -0.2118
19944W        W36078   7.801  10.012   3.345 -0.0294  0.1037 -0.1269
19945W        W36079   6.418  11.572  13.142 -0.1858 -0.0934 -0.0139
19946W        W36080  13.377   0.452   0.273  0.1051  0.0179 -0.3212
19947W        W36081  17.514   1.818  11.634 -0.2000 -0.2574 -0.0061
19948W        W36082   7.235   9.019   0.212 -0.1400  0.0323  0.0588
19949W        W36083  16.027  14.593   1.657 -0.3897 -0.1338  0.3659
19950W        W36084   2.738   7.836  15.516 -0.0863 -0.1206 -0.0632
19951W        W36085  17.225   0.831  11.615  0.0658  0.1478 -0.0631
19952W        W36086   0.742  16.194   3.888 -0.0209 -0.1394 -0.1389
19953W        W36087   2.836  15.860  13.734 -0.0929 -0.2000  0.1150
19954W        W36088  12.188  14.007  14.246  0.0785  0.0136 -0.0872
19955W        W36089  13.912   8.677   4.710 -0.0261 -0.2315  0.1925
19956W        W36090  13.964   2.011  10.242  0.3582  0.1338 -0.1247
19957W        W36091   2.913  12.848  10.963 -0.1112 -0.1031  0.2109
19958W        W36092   4.717  14.188  14.918 -0.0548 -0.2794 -0.1132
19959W        W36093   7.412  11.082   1.590  0.1388  0.0325 -0.3957
19960W        W36094  11.676   7.310  15.197 -0.0693  0.2364  0.2475
19961W        W36095   5.087   8.711  14.984 -0.0822  0.2690 -0.1717
19962W        W36096  12.825   3.948  12.079 -0.0878  0.0170  0.3135
19963W        W36097   7.925   7.086  13.480  0.3103  0.1674  0.1079
19964W        W36098  10.141  18.098   1.377 -0.2791 -0.0888 -0.0699
19965W        W36099  13.348   3.351  11.725 -0.1884  0.2863 -0.1443
19966W        W36100   2.874   1.408  10.969 -0.0787  0.1906 -0.3036
19967W        W36101  11.121   9.360   3.684 -0.2904 -0.3853 -0.0921
19968W        W36102   6.139  17.609   3.163  0.0863  0.0819  0.0233
19969W        W36103  11.281   5.259  12.550 -0.3336  0.4009  0.2263
19970W        W36104  14.033  16.749   5.038  0.0602 -0.3189  0.1632
19971W        W36105   6.574  12.554   0.335 -0.0468  0.2877 -0.0242
19972W        W36106  15.107   5.715  13.426  0.0344 -0.1441  0.2441
19973W        W36107  10.429   3.705   5.022  0.1013 -0.0264 -0.0824
19974W        W36108  12.442  11.199  12.251  0.2242 -0.1239 -0.3169
19975W        W36109   9.320  12.834   0.543 -0.0443 -0.2868  0.0138
19976W        W36110   6.702   1.643   9.479  0.0587  0.1284  0.0664
19977W        W36111   8.080  17.144  15.249  0.3772  0.0488 -0.1139
19978W        W36112  10.303   8.806  11.917 -0.1959  0.1684  0.2080
19979W        W36113  10.684  12.176   5.143  0.0193  0.2674  0.0091
19980W        W36114   9.046   7.634  11.320 -0.1529 -0.3377 -0.1652
19981W        W36115  11.257  10.805  12.406 -0.1003 -0.1857  0.0223
19982W        W36116  15.375  16.997   1.540 -0.2988  0.1754  0.4100
19983W        W36117  10.482  15.741   0.942  0.0366 -0.1426 -0.1139
19984W        W36118   7.812  10.804   4.896  0.4630 -0.0514 -0.0356
19985W        W36119   6.953  18.678  11.657  0.2754 -0.2078  0.2007
19986W        W36120   4.438   5.109  11.074 -0.0725 -0.0640  0.3848
19987W        W36121   2.383   9.250   3.033  0.0859  0.2445  0.2414
19988W        W36122  12.158  13.142   0.432 -0.4782  0.0033 -0.2645
19989W        W36123   8.352   5.765   4.704  0.2092  0.2180  0.2393
19990W        W36124   1.822   0.499   4.210  0.0516 -0.0290  0.0246
19991W        W36125   7.797  18.240   2.201 -0.1235  0.0770 -0.2675
19992W        W36126  12.231  16.012   5.102  0.1248  0.1503 -0.2088
19993W        W36127  11.036   3.122   0.116  0.1651  0.4716  0.1667
19994W        W36128  18.506   8.055  11.589 -0.2776 -0.1457  0.0077
19995W        W36129   1.615  10.777   4.771 -0.0924 -0.0568  0.1139
19996W        W36130  16.594   1.783  14.591  0.1166  0.2632  0.1866
19997W        W36131   0.127   0.265  11.157  0.1961 -0.1956  0.2509
19998W        W36132   0.681  11.439  13.146 -0.2430 -0.0984 -0.2491
19999W        W36133   3.148  18.120   1.462 -0.0932  0.1443  0.1762
20000W        W36134  18.348  15.586   3.458  0.0655 -0.0705 -0.2034
20001W        W36135  13.544   3.809  11.951 -0.0142 -0.0799  0.0133
20002W        W36136   8.360   3.413  14.801 -0.2845  0.1280  0.1749
20003W        W36137  17.467  12.004   0.779 -0.2039 -0.1015  0.1269
20004W        W36138   3.117   3.216   0.474 -0.1156 -0.1788 -0.0552
20005W        W36139  17.173  14.373   4.427  0.0943 -0.3304  0.1245
20006W        W36140  13.529   3.496   2.757  0.0069 -0.0830  0.2042
20007W        W36141  12.910   8.860   4.424  0.2932 -0.0467  0.0031
20008W        W36142   8.928  12.201  11.842  0.2029 -0.1556 -0.1086
20009W        W36143   5.829  12.218  11.646 -0.2165  0.0944 -0.2929
20010W        W36144  17.393  13.204  13.747  0.1323 -0.0473  0.0099
20011W        W36145   8.407  14.584   5.665  0.3384 -0.1143  0.0295
20012W        W36146  16.372  15.527   5.796 -0.0284  0.2172 -0.1427
20013W        W36147   1.600   1.867   4.940 -0.1721  0.2135 -0.0677
20014W        W36148  10.812   4.647   2.097  0.0295 -0.2686 -0.3123
20015W        W36149   5.451   2.825   4.510  0.2831 -0.0302  0.4474
20016W        W36150  17.580  13.233  10.937  0.3843  0.0651  0.3831
20017W        W36151  14.998  14.946   1.623 -0.0720  0.0337  0.1913
20018W        W36152  10.134   9.673  10.549  0.0775 -0.2482 -0.0961
20019W        W36153   5.751  15.553  13.070  0.6495 -0.1840  0.2105
20020W        W36154  14.984  12.512  14.622 -0.0338  0.1341  0.0864
20021W        W36155   5.862  17.089  13.309 -0.0224 -0.2315  0.0673
20022W        W36156   1.659  14.977   0.405 -0.0177  0.1519 -0.0320
20023W        W36157   6.469  12.173  15.396  0.0406 -0.3457  0.2565
20024W        W36158  12.109  14.682  14.090  0.0621 -0.2121 -0.2849
20025W        W36159   5.323   9.684  12.221 -0.0743  0.4973 -0.2319
20026W        W36160   7.918   2.855  15.514 -0.1334 -0.1243 -0.0644
20027W        W36161   1.337  18.561   4.441  0.2767 -0.2678  0.0267
20028W        W36162  10.242   1.439   4.839 -0.4196 -0.2264  0.0773
20029W        W36163   8.383   6.265  15.053 -0.3997  0.0976 -0.2553
20030W        W36164   2.392   6.707   2.150  0.3110 -0.1165  0.2930
20031W        W36165  18.492   1.557  13.192  0.0717 -0.0548  0.2480
20032W        W36166   4.274   3.431   2.338  0.1311  0.0946 -0.0879
20033W        W36167   7.445  11.189   2.566 -0.0489  0.0530 -0.0736
20034W        W36168   5.364   2.703  10.559 -0.1716 -0.4550 -0.0889
20035W        W36169  10.383   6.458  14.015 -0.4547  0.0817  0.1094
20036W        W36170   4.240   7.815   2.469  0.3639  0.0193  0.1339
20037W        W36171   9.806   4.634  14.008  0.0102 -0.1087 -0.3230
20038W        W36172  18.589  12.220  11.166 -0.2204 -0.3367  0.0832
20039W        W36173  14.557   4.616  11.400 -0.1264 -0.1083  0.1049
20040W        W36174   6.469   6.628   2.848 -0.0885  0.1364 -0.3297
20041W        W36175  18.314  13.074  12.705  0.1322  0.0316  0.1237
20042W        W36176  16.949   2.129   5.204  0.0589 -0.0618 -0.1689
20043W        W36177   1.124  18.151  12.702 -0.0083 -0.1746 -0.0386
20044W        W36178  18.275   3.000  13.761  0.1622 -0.1225 -0.1465
20045W        W36179  13.798  15.201  13.358  0.0566  0.0721  0.1465
20046W        W36180   7.289   5.761  13.324 -0.1468  0.2269 -0.2189
20047W        W36181  15.007   5.418   3.196 -0.3849 -0.1008  0.1793
20048W        W36182   1.890   2.514  11.623  0.4904  0.1496 -0.2859
20049W        W36183  13.784   5.630  12.677  0.4615  0.0363 -0.1270
20050W        W36184  12.559   1.601  11.596  0.2348 -0.2211  0.3575
20051W        W36185   7.183   4.627  14.261  0.0781 -0.2948 -0.0272
20052W        W36186  10.516   0.220  12.630 -0.2993  0.0342 -0.1797
20053W        W36187  13.034  15.796  11.465  0.3216 -0.0663  0.1861
20054W        W36188  18.570  16.944  15.131 -0.0096 -0.0680  0.0209
20055W        W36189   0.575  10.126  14.366 -0.1162 -0.1044 -0.0159
20056W        W36190  17.839   8.697   5.244 -0.0610 -0.0364 -0.1245
20057W        W36191   5.407  16.145   2.181  0.1983  0.2377 -0.2578
20058W        W36192  16.748  18.688   1.521  0.3002  0.3648 -0.0816
20059W        W36193   1.274   9.564   2.991  0.1459  0.1721 -0.0417
20060W        W36194  10.573   8.875  10.539  0.0974 -0.1433  0.0498
20061W        W36195   8.240  10.678  14.958  0.0396 -0.0926 -0.4172
20062W        W36196  16.049  14.037   0.344 -0.1196  0.0190 -0.0245
20063W        W36197   7.114   4.478   1.611 -0.0635  0.5391 -0.0251
20064W        W36198   1.104   9.691  10.895  0.1616 -0.1212 -0.1725
20065W        W36199  17.024  12.492   5.784  0.1966 -0.0812 -0.0352
20066W        W36200  15.106  18.530   3.526 -0.0579  0.1741  0.1732
20067W        W36201   0.357  18.508  14.403 -0.1725  0.0207  0.0813
20068W        W36202   9.959   9.234  10.987 -0.4115 -0.0615  0.0641
20069W        W36203  12.819  15.301   2.982 -0.1077 -0.3165 -0.1345
20070W        W36204   2.876  12.527  13.387 -0.1136 -0.2234 -0.2183
20071W        W36205  15.474  10.559  13.556 -0.3709  0.0338 -0.0090
20072W        W36206  14.720   6.332   3.628  0.4565 -0.2635  0.1028
20073W        W36207  11.807  14.666   1.566  0.1862  0.1375  0.1158
20074W        W36208  18.701  17.018   3.601 -0.2877  0.2084  0.1981
20075W        W36209  13.201   7.533  11.437  0.0346  0.0272 -0.0586
20076W        W36210   5.959  11.411   2.016 -0.0802  0.0162 -0.1695
20077W        W36211   6.857  17.128  12.404 -0.0785 -0.0804 -0.1423
20078W        W36212   7.293  15.873   3.908  0.0099 -0.0065  0.0464
20079W        W36213   7.971   4.698   3.841 -0.0166 -0.3896  0.2963
20080W        W36214   9.919  18.057  12.456  0.3507  0.2224  0.0001
20081W        W36215  14.768  10.991  12.303 -0.1818  0.0704  0.1178
20082W        W36216  16.426   8.087   2.597 -0.1389  0.1774  0.2555
20083W        W36217  18.017   3.506  14.986 -0.2092 -0.0932  0.0170
20084W        W36218   6.107   2.348   4.484 -0.1065  0.0447  0.0917
20085W        W36219   6.387  15.358  12.303 -0.1239  0.2402  0.0154
20086W        W36220   5.767   2.598   0.960  0.1816 -0.2017  0.3695
20087W        W36221  12.599   1.968   5.143 -0.2055  0.0189  0.0173
20088W        W36222  11.502  15.454  15.261  0.2437 -0.0436 -0.1809
20089W        W36223  10.581   9.641   5.142 -0.1513 -0.1585 -0.1378
20090W        W36224   0.457   0.497  12.107  0.1345 -0.5841  0.0601
20091W        W36225  11.896  17.284   3.360  0.0315  0.0431  0.1147
20092W        W36226   0.051  11.591  12.099  0.2189  0.2088 -0.1821
20093W        W36227   5.081   5.270   2.658  0.1562 -0.2424 -0.2458
20094W        W36228  11.609  18.126  12.662  0.1993  0.1816  0.2460
20095W        W36229  17.685   0.642   1.999 -0.2011 -0.0617 -0.0364
20096W        W36230   5.160   2.597  11.841  0.1864 -0.1359  0.2997
20097W        W36231  12.325  10.731   1.088  0.0552  0.0723  0.2784
20098W        W36232  14.937   9.211  11.210  0.0857  0.0207 -0.2060
20099W        W36233  12.135   3.319  14.569  0.2860  0.1283  0.1439
20100W        W36234   8.646   8.750   2.218  0.2338 -0.0825 -0.1435
20101W        W36235   3.080   1.003  11.796  0.1453  0.0663  0.0729
20102W        W36236   5.325  10.107  11.998  0.2981 -0.0540 -0.0301
20103W        W36237  11.164   3.332   0.530 -0.2171  0.2201  0.0201
20104W        W36238   9.255  12.324  11.408 -0.0340 -0.0134  0.0933
20105W        W36239  10.848   3.482   4.788  0.0232  0.3013  0.1076
20106W        W36240   5.868  17.881   1.417  0.0039  0.1118  0.1704
20107W        W36241  12.631   8.700  14.902  0.1169  0.0560  0.1349
20108W        W36242  12.859  17.250  15.428  0.0469  0.2035 -0.0137
20109W        W36243  18.470  16.554  10.764  0.0044  0.1699 -0.0014
20110W        W36244  13.160   1.110  12.773 -0.0490  0.1430  0.2500
20111W        W36245   3.692   0.103  14.064  0.0538  0.0282 -0.1726
20112W        W36246  11.746  12.356   0.852  0.0575  0.0816  0.3073
20113W        W36247   5.855  10.900   1.854 -0.0178 -0.0316 -0.2597
20114W        W36248  14.276   3.702  12.627 -0.3445 -0.1305  0.2181
20115W        W36249   6.128   1.431   1.880  0.0460  0.0407 -0.0602
20116W        W36250   5.008  16.684  15.287 -0.0674  0.0415  0.1063
20117W        W36251   0.474   1.637  10.663 -0.1325  0.2440 -0.3187
20118W        W36252   2.548   4.151   1.416 -0.1481 -0.2384  0.1971
20119W        W36253   0.314   4.038  13.984 -0.1834 -0.0645  0.0474
20120W        W36254   0.978   0.382   3.978  0.2050 -0.5308 -0.1222
20121W        W36255   8.546  16.606   1.690  0.0313 -0.0098  0.1394
20122W        W36256  16.239   8.693   2.401 -0.2064 -0.1121 -0.4151
20123W        W36257  13.234   0.612   1.536  0.0752 -0.1459 -0.0756
20124W        W36258   4.808   6.682   2.405  0.1829 -0.3337 -0.1755
20125W        W36259  11.204   0.986   3.446 -0.2387  0.4806  0.1222
20126W        W36260  10.514  11.729  12.507  0.0013  0.0591 -0.2037
20127W        W36261   4.622   8.499  11.767  0.1614  0.0605  0.2106
20128W        W36262   7.272   3.804   0.199 -0.3556  0.0579 -0.1081
20129W        W36263  17.587  14.367  11.766  0.0859  0.4728 -0.2318
20130W        W36264   0.745  12.375  13.671 -0.2260  0.0337 -0.2863
20131W        W36265  17.201   0.814  11.037 -0.5008 -0.2880  0.2575
20132W        W36266  16.615   5.569   3.697  0.1751  0.0731  0.1642
20133W        W36267   5.247  17.438  11.548  0.1860 -0.0778  0.0783
20134W        W36268  16.341  14.226   5.365 -0.0663  0.1334 -0.2443
20135W        W36269  18.478  11.388   1.025  0.0274 -0.1664 -0.0620
20136W        W36270   4.673  15.487  10.414  0.1159  0.0532  0.2405
20137W        W36271  17.243   7.456   0.316  0.2379  0.1404 -0.0844
20138W        W36272  13.039   5.246   5.133 -0.0815  0.0628  0.0625
20139W        W36273  18.163  18.135   2.137  0.2987 -0.2548  0.2652
20140W        W36274   1.571   9.277   2.693  0.0381 -0.0686  0.3862
20141W        W36275  18.621  14.855  10.624  0.3159 -0.0890 -0.2313
20142W        W36276  17.788  16.877   3.264 -0.0814 -0.0572  0.0476
20143W        W36277   2.946  12.008   4.125  0.2168 -0.2426  0.0739
20144W        W36278  10.290   7.520  13.820 -0.2744  0.1058 -0.1040
20145W        W36279  12.994   0.323  15.489  0.0735  0.2331 -0.0676
20146W        W36280  16.029   8.730   3.534  0.1563  0.1795  0.0819
20147W        W36281   7.541  11.551  15.045 -0.0357 -0.2128  0.1965
20148W        W36282   9.760   6.107  12.656  0.3922  0.2643  0.2372
20149W        W36283  15.285   0.687   9.529 -0.3449 -0.1135  0.0371
20150W        W36284  12.125  14.214  13.743 -0.1280  0.1343 -0.0561
20151W        W36285   2.307  11.630   1.190  0.0230  0.2414  0.3527
20152W        W36286  13.344  15.071  10.836 -0.2054  0.0085 -0.1091
20153W        W36287  17.075   8.315  11.275 -0.0433  0.0698 -0.1084
20154W        W36288   8.712  17.350   3.319  0.1215  0.0238 -0.3746
20155W        W36289   4.325   4.506   0.803  0.0838 -0.0694 -0.1511
20156W        W36290   1.419   2.806  14.738  0.0418 -0.1636  0.0365
20157W        W36291  17.208  12.529   0.090  0.0522  0.1645  0.2388
20158W        W36292   1.822  16.128   4.733 -0.0607  0.0756 -0.2511
20159W        W36293   7.199   9.065   4.231  0.3443 -0.3731 -0.0425
20160W        W36294   6.632   8.712   0.836  0.2065  0.0183 -0.0770
20161W        W36295  13.276  17.557  12.405  0.0588  0.1391 -0.3143
20162W        W36296   6.007  11.926   9.668  0.0242  0.1052 -0.0033
20163W        W36297   1.555   7.674   1.863 -0.0260 -0.2638  0.0036
20164W        W36298  15.170  15.410   4.884 -0.1011 -0.1000 -0.1881
20165W        W36299   6.139  11.927   4.217 -0.0380 -0.1200 -0.1824
20166W        W36300  17.291   6.924   1.759 -0.0795 -0.0294 -0.1098
20167W        W36301  18.110   9.300   2.079 -0.1168 -0.0208  0.1693
20168W        W36302   8.351   9.293   5.921 -0.0936  0.2277  0.2273
20169W        W36303  15.516   9.441  13.410  0.0813  0.1995  0.2011
20170W        W36304   6.319   5.101   4.462 -0.0694  0.1996  0.1240
20171W        W36305   5.614  14.414   2.211  0.0465  0.0860 -0.3069
20172W        W36306   6.321   8.692  10.983  0.0973  0.1698  0.2266
20173W        W36307   1.990  12.967  10.531 -0.1220  0.3126 -0.3144
20174W        W36308   6.369   6.884  13.094 -0.0405  0.0119  0.2303
20175W        W36309   4.149  15.687   4.737  0.0180  0.0974 -0.1356
20176W        W36310   5.087  16.107   9.903  0.4672 -0.0845 -0.0025
20177W        W36311   7.343   4.132  14.032 -0.1898  0.0545 -0.0995
20178W        W36312  17.611  12.431  12.286  0.3745 -0.1939 -0.2013
20179W        W36313  13.387   5.263  14.469  0.1201  0.0195  0.5043
20180W        W36314   4.604   9.165  12.961  0.0209 -0.1842 -0.1514
20181W        W36315   4.925  16.268  13.892  0.0100  0.0728 -0.0748
20182W        W36316  12.180   7.608  11.320 -0.1938 -0.0487 -0.1427
20183W        W36317  14.016  13.523   0.467  0.0307  0.1754  0.1148
20184W        W36318   3.380   9.437   3.942 -0.0260 -0.0996  0.0178
20185W        W36319   8.313  18.729  12.048 -0.0244 -0.2239 -0.1988
20186W        W36320  12.630   3.199   0.312  0.3246 -0.3512 -0.1443
20187W        W36321  13.735  14.163   0.805  0.0617  0.2378 -0.0653
20188W        W36322  17.335   1.625  13.807 -0.0956 -0.2292 -0.0438
20189W        W36323  10.260   5.220   1.347  0.2372 -0.0192  0.3930
20190W        W36324   8.668   3.778   2.950  0.1814 -0.0693 -0.0778
20191W        W36325   8.157   0.034  13.782  0.3009 -0.1681 -0.0865
20192W        W36326  17.483   7.684   1.232 -0.1084  0.1326 -0.4749
20193W        W36327   9.862   1.241   9.617 -0.1145 -0.2082  0.1800
20194W        W36328   8.878   8.426   2.650 -0.0552  0.0719 -0.1123
20195W        W36329   9.735   3.867  12.713 -0.0892 -0.2107 -0.1411
20196W        W36330  17.445   3.626  14.962 -0.4350  0.0695  0.0521
20197W        W36331   3.231   3.791  11.813  0.0027 -0.1411 -0.1169
20198W        W36332   2.127  12.018   3.162 -0.1189  0.1547  0.1999
20199W        W36333   3.490  16.781   2.879  0.2801 -0.2278  0.0608
20200W        W36334  14.858   7.026  13.351  0.3442 -0.2393  0.1698
20201W        W36335   5.242   5.095   0.152 -0.2301 -0.2112 -0.0684
20202W        W36336  13.367  14.296  13.364 -0.0235  0.0169  0.0655
20203W        W36337  16.100  14.523   4.038  0.3371 -0.1065 -0.2607
20204W        W36338  18.238   7.118  12.961  0.0506  0.3322 -0.0263
20205W        W36339  13.135  16.084  15.005 -0.0150 -0.3906 -0.1878
20206W        W36340  16.439  16.378  12.811 -0.1806  0.0051  0.4236
20207W        W36341   2.135   1.886   9.953 -0.1133 -0.1887 -0.1731
20208W        W36342  18.518   7.755   0.044 -0.1852  0.1283  0.1757
20209W        W36343  18.141   6.521   1.746 -0.0062 -0.1749  0.0220
20210W        W36344   7.413   3.033  11.212 -0.2428 -0.0811 -0.0102
20211W        W36345  16.606   0.096   4.773  0.1412 -0.1500 -0.3281
20212W        W36346  17.163  13.942  14.231 -0.1794 -0.0397 -0.0455
20213W        W36347  11.677  14.029  14.558 -0.2409  0.2430 -0.0380
20214W        W36348  12.465  15.038   0.299  0.0673  0.0325  0.3796
20215W        W36349  16.572   9.469  14.822  0.4622 -0.2094 -0.0416
20216W        W36350  10.601  12.968  13.531 -0.0185  0.4484  0.0093
20217W        W36351  15.720   6.250  14.755 -0.1448  0.3112  0.1735
20218W        W36352   2.283  15.016   9.592  0.1824 -0.4238 -0.1874
20219W        W36353   0.028   8.531   3.209  0.2484  0.1862  0.2887
20220W        W36354   4.675   1.737   0.522 -0.1085  0.1553  0.1703
20221W        W36355  12.017   4.984   3.993  0.1153 -0.0815 -0.0995
20222W        W36356   3.530   4.818  14.943 -0.0508 -0.3092 -0.0700
20223W        W36357   9.608  10.791  12.320 -0.0310  0.2872  0.2158
20224W        W36358  18.165   7.205   5.297  0.2319  0.0068  0.2525
20225W        W36359   2.608  12.638   0.346  0.0466 -0.1223  0.0612
20226W        W36360   9.900  16.084   1.784 -0.0685 -0.0864  0.0805
20227W        W36361   3.936   4.564   2.689 -0.3888 -0.2294 -0.3428
20228W        W36362  11.642   0.110  13.789  0.1050  0.4122  0.0735
20229W        W36363   6.948   5.472   5.098  0.1316  0.2581 -0.0582
20230W        W36364   1.171   8.650  11.820 -0.0044  0.0656 -0.0853
20231W        W36365   8.791  13.097   4.417 -0.0804  0.1002  0.2606
20232W        W36366   6.211  10.783   0.555 -0.0344 -0.0146  0.0242
20233W        W36367   3.751   1.603  13.413 -0.2679  0.1316 -0.1311
20234W        W36368  16.514   0.919  13.173 -0.0884  0.4817 -0.0458
20235W        W36369  14.144   4.762   5.398 -0.1244 -0.2310  0.0974
20236W        W36370   2.957   8.447  15.036 -0.0442 -0.0787 -0.0904
20237W        W36371   5.127   3.940   2.516 -0.3631 -0.1485 -0.1179
20238W        W36372  13.379   2.662   1.623 -0.0234  0.1043  0.0634
20239W        W36373   2.758   2.366  13.166  0.1614 -0.0365  0.3793
20240W        W36374  12.588   9.457   2.283  0.2958  0.1275 -0.0294
20241W        W36375  10.882   0.769  11.723  0.0063 -0.0325 -0.0300
20242W        W36376   7.170   8.247   3.912  0.0650  0.2361  0.2099
20243W        W36377  10.338  10.868  11.797 -0.0589  0.0169 -0.0563
20244W        W36378  10.642   1.952  14.568  0.2889 -0.0843 -0.1541
20245W        W36379   0.464  16.549  13.409 -0.2249  0.2389  0.2422
20246W        W36380  10.702   1.277   3.412  0.1278  0.1323  0.1091
20247W        W36381   3.960  16.068  13.284  0.1193  0.1715  0.0491
20248W        W36382  11.148   5.533   1.955 -0.2249  0.3586  0.1335
20249W        W36383   6.370  15.553   5.109 -0.4117 -0.0446 -0.0866
20250W        W36384  17.001   4.164   2.438  0.2169  0.3312 -0.0930
20251W        W36385   4.203  15.790   0.730 -0.0426  0.0547  0.0002
20252W        W36386   2.080   6.287   2.168 -0.0195 -0.3572 -0.2529
20253W        W36387  15.928   2.407   4.219 -0.0666  0.0556  0.3105
20254W        W36388  16.383   2.355  10.767  0.1071 -0.3144  0.1427
20255W        W36389   8.914  18.470  14.158  0.1581  0.2235  0.3117
20256W        W36390   1.569  12.801  11.647 -0.1540  0.0333 -0.0881
20257W        W36391  13.380  17.466   4.390  0.2473 -0.1061 -0.0893
20258W        W36392  16.135   6.449  13.095 -0.4128  0.1083 -0.1189
20259W        W36393  13.998  10.160   0.684 -0.5017 -0.0382 -0.0791
20260W        W36394   9.772   5.538  13.144 -0.0896  0.2070  0.2472
20261W        W36395   9.678   3.122  13.947  0.0393 -0.2254 -0.2821
20262W        W36396   7.201  11.291   4.253  0.2279 -0.0234 -0.0291
20263W        W36397   4.388   5.169  12.696  0.3336 -0.1413  0.1370
20264W        W36398   1.138  17.312   3.408  0.3079  0.1716  0.1747
20265W        W36399   3.465  12.046  15.539 -0.1176  0.0874  0.0980
20266W        W36400   0.226   5.490  12.861 -0.2317  0.1133  0.0218
20267W        W36401  13.330   8.299   2.496 -0.2086  0.3201 -0.1960
20268W        W36402   7.362  18.109   2.766  0.1314  0.0448 -0.3683
20269W        W36403  13.022   5.290  11.311 -0.2643  0.5559 -0.0095
20270W        W36404   2.017  18.448   2.145  0.1524  0.2728  0.1483
20271W        W36405   7.027   3.589   3.034 -0.2750 -0.1763  0.0451
20272W        W36406  11.684   4.245   1.758 -0.0483 -0.0619  0.0181
20273W        W36407   6.289   5.198  13.331 -0.2350  0.1884  0.1650
20274W        W36408   0.369   3.968   3.619  0.0093 -0.1455  0.4546
20275W        W36409  14.008  13.996   4.740  0.3453  0.0467  0.2140
20276W        W36410  10.900  15.218  15.304 -0.0223 -0.6124  0.1906
20277W        W36411  17.626   9.565   2.042  0.0718 -0.0156 -0.1413
20278W        W36412   7.551   8.816  11.978 -0.1696 -0.1695  0.0954
20279W        W36413   7.236  10.321   1.759  0.0357 -0.0365  0.1749
20280W        W36414   9.946   7.709   3.020 -0.0100 -0.2821 -0.2076
20281W        W36415   4.711  13.246  11.992 -0.0722 -0.1354  0.1257
20282W        W36416   6.555  12.682  10.736  0.0409 -0.0749 -0.1415
20283W        W36417  15.657   5.151  14.485  0.2155 -0.0926 -0.2180
20284W        W36418  16.541   1.480  10.216  0.0900  0.0965 -0.1454
20285W        W36419  14.912   6.318  10.684 -0.3416 -0.0065 -0.0482
20286W        W36420   4.669  14.347   1.000  0.1503 -0.2517  0.2984
20287W        W36421   0.482   4.761  11.722  0.0484 -0.1283  0.2044
20288W        W36422  14.557   3.598   0.174  0.0267 -0.0385  0.4443
20289W        W36423   0.522  12.693   4.220  0.0800 -0.3596  0.0920
20290W        W36424  16.476   2.589  12.709  0.1040 -0.2322  0.2606
20291W        W36425   9.453   9.790   0.645  0.1609 -0.0003  0.3073
20292W        W36426   9.808   0.850   3.577 -0.0675 -0.1290  0.2095
20293W        W36427  15.558   9.076   1.858 -0.2617 -0.1547 -0.1836
20294W        W36428   6.911  12.593   2.994 -0.1719  0.0318 -0.1533
20295W        W36429  13.645   6.046  11.388  0.0886 -0.1680  0.2787
20296W        W36430   2.754  14.282   1.904 -0.1473 -0.0855 -0.3526
20297W        W36431  14.484  17.957   3.599  0.1810  0.1312  0.4979
20298W        W36432  18.393   1.844   2.945  0.0876 -0.0101  0.1000
20299W        W36433   1.336   0.591  14.210 -0.1072  0.2327 -0.0887
20300W        W36434   3.741   8.091  15.287 -0.1339  0.0021 -0.0226
20301W        W36435  16.574   4.080   1.027 -0.0855 -0.0283 -0.0170
20302W        W36436  13.603   5.830   5.114 -0.0879  0.0139 -0.1951
20303W        W36437  11.542  16.497   0.756 -0.1081  0.1561  0.1514
20304W        W36438   1.987   3.814   2.625 -0.1316 -0.2603 -0.1828
20305W        W36439   9.447   1.995   2.441 -0.0603  0.0059  0.0636
20306W        W36440  18.230   5.082   6.273  0.3272  0.0039 -0.0907
20307W        W36441  14.604   1.796  14.911 -0.0191 -0.1891  0.2421
20308W        W36442   8.817   2.731   1.708  0.0077  0.2180 -0.0523
20309W        W36443   8.843   7.835  14.759  0.1083 -0.1682 -0.2855
20310W        W36444   3.016  10.351  14.827 -0.2481  0.2017 -0.2771
20311W        W36445   5.473   4.095  13.218 -0.0271 -0.0259 -0.1031
20312W        W36446  13.626  10.859   0.702 -0.1564  0.1442  0.0924
20313W        W36447  15.072  17.258  14.211  0.3754 -0.3259  0.0432
20314W        W36448   2.632   4.986  14.152  0.0139 -0.3629 -0.1827
20315W        W36449  17.221   9.322   4.242  0.2790  0.2483  0.0527
20316W        W36450  14.961   7.328   1.539  0.2246  0.3466  0.0568
20317W        W36451   0.024  18.680  13.198  0.0183 -0.1336 -0.0620
20318W        W36452  15.068   0.167  11.606 -0.2602  0.4084  0.0124
20319W        W36453  15.844  12.269  12.897 -0.2203  0.0346 -0.1361
20320W        W36454   4.902  17.517   0.944 -0.4239 -0.0399  0.2421
20321W        W36455   9.012  17.122   5.015 -0.1957 -0.1896  0.0679
20322W        W36456  17.467  12.594  13.896  0.1483  0.5020  0.0588
20323W        W36457  15.309  14.022  13.256  0.0219  0.2404 -0.1374
20324W        W36458   8.940   6.553  14.564 -0.0139  0.3700 -0.1254
20325W        W36459   2.663   0.203  11.997 -0.1239  0.2646  0.1662
20326W        W36460   0.222  11.936  10.872 -0.2575 -0.1103 -0.0488
20327W        W36461  12.959  18.274   0.087 -0.4637 -0.0529  0.0644
20328W        W36462  15.352  12.699  11.450  0.0531 -0.0097  0.2475
20329W        W36463   4.121  10.428  11.158 -0.1130 -0.2939  0.4429
20330W        W36464  17.994   3.425  12.522  0.1506 -0.0601 -0.0681
20331W        W36465   9.171   7.926   3.367 -0.1088 -0.2031  0.4399
20332W        W36466  14.758  17.757   4.238 -0.1624 -0.0649  0.1134
20333W        W36467   1.500   4.450  12.483  0.0499  0.0559  0.1404
20334W        W36468  12.920   2.349   5.100  0.0011 -0.2740  0.0276
20335W        W36469   3.811   3.047   5.363 -0.2334 -0.2004  0.2822
20336W        W36470   9.513   5.689   2.030  0.0274  0.1799 -0.0459
20337W        W36471  12.959   4.559   0.489  0.0119  0.1963 -0.2420
20338W        W36472  18.202   8.915  13.785 -0.2526  0.1324 -0.1147
20339W        W36473   4.406   7.054  15.301  0.3086 -0.2364 -0.1712
20340W        W36474   5.569  18.565  13.680  0.0917  0.2470 -0.2227
20341W        W36475  13.123  17.548   9.785  0.1330 -0.0519 -0.1572
20342W        W36476  11.395  18.048   2.826 -0.1278 -0.0566  0.3590
20343W        W36477  14.432   3.019  10.578 -0.2988  0.0858 -0.1105
20344W        W36478  11.845   9.375  10.675  0.1001 -0.0882  0.0679
20345W        W36479  16.504   1.783  13.235 -0.4971 -0.0441  0.0724
20346W        W36480   8.982  14.143   5.125 -0.0354 -0.0798  0.1712
20347W        W36481   0.070  15.211   1.980 -0.1274  0.2064  0.0557
20348W        W36482  10.584  11.337   1.546 -0.3545 -0.3714  0.4026
20349W        W36483   4.186   3.327  10.729  0.0305  0.2391 -0.0452
20350W        W36484   2.752   3.896  12.116 -0.1199  0.2186 -0.1030
20351W        W36485   6.924  10.449  12.926 -0.0004  0.0815 -0.0880
20352W        W36486   0.829   1.560   4.000  0.0222  0.0854  0.2735
20353W        W36487   9.332  11.086   2.437 -0.3026 -0.3222  0.1312
20354W        W36488   7.696  15.727  12.418  0.1456 -0.0039  0.1884
20355W        W36489  14.293  17.017  13.450 -0.1020 -0.1019  0.1163
20356W        W36490   7.310   7.834  15.435  0.0582  0.0309  0.1040
20357W        W36491   9.507   5.875  11.875  0.0693 -0.0667 -0.2931
20358W        W36492  13.429   0.715   2.298  0.0406 -0.0088  0.3336
20359W        W36493   1.731  15.529   4.062 -0.0820 -0.1103  0.1899
20360W        W36494   6.524   1.846  11.686  0.2505 -0.1145 -0.0198
20361W        W36495  16.184  10.950  14.134 -0.1645 -0.1536  0.2484
20362W        W36496   4.780   0.368   3.743  0.1811 -0.0731  0.1281
20363W        W36497  17.208   8.869   2.632 -0.0099  0.2733  0.3345
20364W        W36498  14.321  18.599   2.819 -0.0225 -0.0687  0.1452
20365W        W36499   0.409   5.853  15.462  0.0494 -0.0432 -0.2161
20366W        W36500  10.525   7.404   3.213 -0.0228  0.0404  0.0783
20367W        W36501  18.239   6.129  13.859 -0.0649 -0.0477  0.2253
20368W        W36502   9.097  17.826  14.509  0.0059  0.0842 -0.2484
20369W        W36503   8.461  13.868  12.537  0.1492 -0.1123  0.1276
20370W        W36504   7.104  13.270   2.292  0.1160 -0.0069 -0.0677
20371W        W36505   7.475   4.809   0.372 -0.1264  0.0060  0.3267
20372W        W36506   1.501  14.124   4.207 -0.0043 -0.1039  0.0514
20373W        W36507  15.380  10.375   0.944  0.0928 -0.0442  0.2908
20374W        W36508   8.659  17.082  12.403 -0.1015  0.0879  0.0279
20375W        W36509  18.431  15.343  13.878 -0.1676  0.0176  0.3544
20376W        W36510   3.389  15.127  12.246  0.2431  0.1940 -0.1013
20377W        W36511   0.167  14.208   5.724 -0.0709 -0.1485  0.1960
20378W        W36512  16.079  16.789   2.740  0.1476 -0.3163  0.1706
20379W        W36513  10.905   9.134  10.314  0.1553 -0.2080  0.1254
20380W        W36514  16.404  13.791   0.598  0.0487 -0.0296 -0.0646
20381W        W36515   2.649  10.888   4.240 -0.2160 -0.2940 -0.0918
20382W        W36516   1.017  18.498   3.187  0.0317  0.2867  0.1161
20383W        W36517  10.663  14.035   0.503 -0.2658  0.0254 -0.4046
20384W        W36518   9.203   6.688   4.676 -0.2210 -0.0891 -0.1100
20385W        W36519   2.158  14.660   1.852 -0.0888 -0.1432  0.2411
20386W        W36520   0.179  13.784   1.304  0.2247  0.0812  0.0122
20387W        W36521   8.684  14.237   3.175 -0.1708  0.0016  0.1131
20388W        W36522  15.379   4.921  11.727 -0.1807 -0.0920  0.0554
20389W        W36523   9.266   0.948  14.758 -0.0160 -0.1363  0.0823
20390W        W36524   4.938  10.159   0.122 -0.1758 -0.1337 -0.2755
20391W        W36525   7.899  10.283  12.269 -0.0876 -0.1613 -0.2424
20392W        W36526   1.501  14.178  12.430  0.0092 -0.3125  0.0560
20393W        W36527   8.668   6.836  11.498  0.4641 -0.0853 -0.0637
20394W        W36528   1.395   7.213   2.856 -0.2474  0.0953 -0.2792
20395W        W36529   3.248  10.973   2.588 -0.0385  0.0851 -0.0250
20396W        W36530   6.325   2.538  15.277  0.2054  0.0820 -0.0649
20397W        W36531   7.275  16.929   2.781  0.0974  0.0216  0.1942
20398W        W36532  11.443   8.987   3.835 -0.2081 -0.0539 -0.0842
20399W        W36533   5.637   0.725  10.999  0.0448 -0.2002 -0.3353
20400W        W36534  16.886   2.612  11.927 -0.0786 -0.1523 -0.0100
20401W        W36535   8.828   5.790  12.934 -0.1366 -0.2793  0.4376
20402W        W36536   0.343  10.278   0.802  0.2610 -0.3269 -0.1267
20403W        W36537  14.119   7.538  14.141  0.1046  0.0718  0.4534
20404W        W36538   8.058   6.547  14.146 -0.2169 -0.2791  0.0187
20405W        W36539   3.522   2.775   2.924 -0.0546  0.1717 -0.2201
20406W        W36540   5.958   1.042  14.216  0.0049  0.1252 -0.0305
20407W        W36541   4.683   4.896   1.897 -0.0327  0.1861 -0.0934
20408W        W36542  17.063   6.383   4.807 -0.1326  0.1717  0.3333
20409W        W36543   0.429  15.688  12.891  0.0260  0.0404  0.1281
20410W        W36544  11.949   8.766   1.381  0.1433  0.0063  0.2028
20411W        W36545   9.406   3.623   3.808 -0.0936  0.0350 -0.1559
20412W        W36546  12.501   8.296   9.662  0.0959  0.2006 -0.3600
20413W        W36547  13.017  16.034   5.284  0.3275 -0.2516  0.0038
20414W        W36548  14.648   5.631   0.473 -0.3060  0.4830 -0.1241
20415W        W36549  13.572   4.256   2.928 -0.3046 -0.0049  0.2019
20416W        W36550  13.309   9.958  14.490 -0.0404 -0.1353 -0.2420
20417W        W36551   3.687  18.077   2.447  0.1548  0.1260  0.0342
20418W        W36552  17.580   2.952   2.075 -0.1365 -0.0307 -0.1331
20419W        W36553   0.521  17.581   2.084  0.0160 -0.0160  0.1835
20420W        W36554   6.428   1.369  12.692  0.1052  0.0705 -0.0968
20421W        W36555   3.655   6.825   1.672 -0.1601  0.3212 -0.0344
20422W        W36556   6.723  11.037   4.306  0.2098 -0.3615 -0.0243
20423W        W36557   2.428   4.950   1.869 -0.0367  0.4467 -0.1107
20424W        W36558   2.708  12.047  14.505 -0.1076  0.0623 -0.0499
20425W        W36559  12.617   2.385  13.929  0.0810 -0.3672 -0.0021
20426W        W36560  14.062   2.068  11.933 -0.2470 -0.3021 -0.2740
20427W        W36561   8.658  10.563   2.302 -0.2998 -0.3784 -0.1880
20428W        W36562  17.214   9.141   4.724 -0.0189 -0.1038  0.0132
20429W        W36563  15.712   1.720   0.176  0.1828  0.1789  0.0568
20430W        W36564  10.440   7.218   5.063  0.1055  0.0782  0.0090
20431W        W36565  11.354  14.935  15.375  0.1455  0.0765  0.1991
20432W        W36566  10.417  17.801  14.908 -0.2585 -0.1166  0.0580
20433W        W36567   8.713   5.337   2.426 -0.0831 -0.1196  0.3516
20434W        W36568   0.646   9.342  14.335 -0.0438  0.0820 -0.1071
20435W        W36569   7.034  17.885   3.621 -0.1640  0.2901 -0.1563
20436W        W36570  13.671  16.916   2.709  0.0732 -0.4438 -0.0444
20437W        W36571   9.737   9.504  14.903  0.2926 -0.1660 -0.0944
20438W        W36572  12.716  13.035  15.207 -0.1164 -0.1460  0.0331
20439W        W36573   5.901  14.502   2.600 -0.3129  0.0425 -0.0314
20440W        W36574   0.061   4.562   0.933  0.2399 -0.1182 -0.1340
20441W        W36575   9.432   7.408  15.496  0.3060  0.2711  0.1142
20442W        W36576  18.698   9.072  14.717  0.0055  0.2857 -0.0094
20443W        W36577  14.315   8.457   4.459  0.2310 -0.0034 -0.4041
20444W        W36578  14.548  10.926  13.621 -0.0134  0.2540  0.1605
20445W        W36579  14.371   4.403   9.593  0.0299 -0.0515  0.3132
20446W        W36580   7.346  17.072  10.844 -0.0750 -0.2075  0.2316
20447W        W36581  11.896  13.596  14.395  0.0163 -0.1633 -0.1105
20448W        W36582  16.301   6.209  12.148  0.0136 -0.2507  0.3508
20449W        W36583  16.572   1.542   0.423  0.0892  0.2000  0.0122
20450W        W36584   9.554   1.532  12.754  0.0447  0.2496 -0.0187
20451W        W36585  12.711  18.138   4.303 -0.1064  0.2506 -0.0928
20452W        W36586  14.070  12.441   1.675  0.0343  0.1332  0.2373
20453W        W36587  11.683  14.911  13.951  0.1471 -0.1421  0.2028
20454W        W36588   9.846  17.229  11.914  0.0587 -0.0944  0.1752
20455W        W36589  10.077   3.807   5.347  0.1220 -0.0403  0.1239
20456W        W36590  17.253  16.072  11.907  0.1811  0.2568 -0.3214
20457W        W36591  10.968  15.292   4.687  0.1799  0.3004 -0.2819
20458W        W36592   8.415   7.416  14.550  0.0603 -0.3423  0.1627
20459W        W36593  15.770   0.841   0.946  0.0060  0.3594 -0.1278
20460W        W36594  18.634  17.779   0.930 -0.0355  0.3134 -0.0400
20461W        W36595  10.482  13.777  15.433 -0.2110 -0.0442  0.0232
20462W        W36596   5.621  10.853  12.342 -0.0981 -0.1371  0.0879
20463W        W36597   4.695  18.109  14.318  0.1382 -0.1888  0.0467
20464W        W36598   3.727  13.965  10.916 -0.3586 -0.2675  0.0636
20465W        W36599   8.108   9.880  11.420 -0.0352 -0.0991  0.0620
20466W        W36600   3.413  10.988  15.107 -0.1542 -0.1677 -0.1411
20467W        W36601  11.160   1.645  12.595  0.2339 -0.0884  0.1104
20468W        W36602  14.905  10.210  11.533 -0.0354 -0.2639 -0.0940
20469W        W36603   6.812   0.093   1.922 -0.1009 -0.1940 -0.0510
20470W        W36604   7.980   4.397   1.256  0.0620  0.0376 -0.2262
20471W        W36605   3.221   5.966   4.272 -0.3128 -0.3855  0.0077
20472W        W36606  17.234  11.526   2.776  0.2187 -0.0884  0.0371
20473W        W36607   3.057   1.540   0.110 -0.1114  0.1885 -0.0832
20474W        W36608  13.021  14.648   3.958  0.3255 -0.3000 -0.1771
20475W        W36609   6.854  13.534   1.926 -0.1976 -0.0594  0.1967
20476W        W36610   0.027   3.015  13.372  0.1678 -0.2194 -0.0453
20477W        W36611   3.522   3.130  13.400  0.0272  0.0467  0.1157
20478W        W36612  15.244  11.928  15.383 -0.1462 -0.0567 -0.1425
20479W        W36613   7.703  18.468  15.017  0.0529  0.0121 -0.0531
20480W        W36614   3.838   7.716   3.851  0.0583  0.0698  0.2449
20481W        W36615  16.734  11.474  13.663 -0.3526  0.2529  0.0799
20482W        W36616   5.166   6.029  14.005 -0.0950 -0.3086  0.0533
20483W        W36617   8.485  10.042   3.025  0.0778 -0.0204  0.1922
20484W        W36618  10.065  10.223   1.233  0.1113  0.0852 -0.0870
20485W        W36619  10.369  10.639  14.768  0.0185  0.2393 -0.2071
20486W        W36620  18.111  12.288   0.416  0.1535 -0.2202 -0.1712
20487W        W36621   5.981   1.324   1.041 -0.3891  0.1303  0.3130
20488W        W36622   2.403  10.744   1.067  0.1292 -0.0157  0.0153
20489W        W36623   6.036   7.248  15.408 -0.0476  0.0700 -0.2024
20490W        W36624   0.810   5.840   2.852 -0.2440  0.2645 -0.1845
20491W        W36625  12.832   5.572  12.865 -0.0509  0.0514  0.0679
20492W        W36626  14.163   8.916   4.250 -0.0352  0.1066  0.1637
20493W        W36627  12.855   1.407  10.610 -0.0225  0.1189 -0.3381
20494W        W36628  10.340   6.419  11.950  0.1128 -0.3511  0.1646
20495W        W36629   8.575   0.611  14.862 -0.2161  0.0395 -0.1150
20496W        W36630  11.775   2.873  11.739  0.0643  0.1258 -0.0014
20497W        W36631  11.124   1.659   0.507  0.2770  0.1899 -0.0250
20498W        W36632  11.728   7.615   4.161  0.0480  0.1244 -0.0742
20499W        W36633  11.075  17.393   4.025 -0.0058 -0.1252  0.0139
20500W        W36634  15.948   0.436   3.136  0.0225 -0.4255  0.0615
20501W        W36635  13.574  11.622   2.594  0.0048  0.1433 -0.0160
20502W        W36636  12.332  11.851  14.297 -0.1802  0.2443  0.0989
20503W        W36637   8.968  17.944  12.286 -0.0856 -0.1862  0.1367
20504W        W36638  11.391  11.589  15.334  0.0171  0.2367  0.3787
20505W        W36639   0.194   1.030  12.316 -0.0370  0.2172  0.0935
20506W        W36640  10.670   9.309   2.609  0.0358  0.1873 -0.0290
20507W        W36641  16.436   3.058   0.734  0.1630  0.0217  0.0354
20508W        W36642  13.992   2.470   3.572 -0.1129  0.1841  0.2110
20509W        W36643   5.144   0.636  11.946  0.1462  0.1962  0.2242
20510W        W36644  14.912  17.361  12.783 -0.0133  0.0771 -0.0334
20511W        W36645  17.242  16.858   3.334  0.0085  0.5423  0.0153
20512W        W36646   6.707   4.821   4.402 -0.1195 -0.2676 -0.0164
20513W        W36647  13.289   9.376  11.671  0.0352  0.0175 -0.0558
20514W        W36648   7.224  13.751   2.443 -0.0525 -0.0025 -0.0100
20515W        W36649  15.384  15.671   1.066  0.2608 -0.0272  0.2662
20516W        W36650  15.720  11.924  11.586 -0.1620 -0.0135  0.0456
20517W        W36651   9.724  12.620  11.215 -0.0570 -0.0045 -0.1542
20518W        W36652  18.100   9.996   3.241  0.0239  0.0114 -0.1636
20519W        W36653   2.059   1.371  11.220 -0.4407  0.3126  0.1433
20520W        W36654  15.615  12.203   3.633 -0.0239 -0.1331  0.1193
20521W        W36655   3.462   7.609  10.725 -0.1433 -0.0061 -0.2163
20522W        W36656   5.074  13.020  10.052  0.0563 -0.2960 -0.0817
20523W        W36657   3.692   8.209  12.994  0.2118  0.0010 -0.3086
20524W        W36658   9.300   4.087  12.476  0.1361 -0.0271 -0.0276
20525W        W36659  10.428  16.110  14.964 -0.2385 -0.0015 -0.1119
20526W        W36660  17.263   3.465   9.838 -0.0811  0.1169 -0.0509
20527W        W36661   7.848  18.533  11.938  0.0757 -0.2023 -0.1583
20528W        W36662  16.974  17.253  14.823  0.0091 -0.0038  0.2389
20529W        W36663  14.915  18.645  14.532 -0.1651  0.0776 -0.2555
20530W        W36664  16.747   3.617   3.194 -0.0934  0.2637  0.0650
20531W        W36665  13.598   2.517  13.078  0.0354  0.1206 -0.2644
20532W        W36666   7.586  18.040   1.270  0.1115  0.3141  0.3558
20533W        W36667  17.519  12.079   3.380 -0.1324  0.0579 -0.0875
20534W        W36668   0.862   0.455  13.277 -0.0338 -0.1169 -0.0730
20535W        W36669   5.012   1.048   4.270 -0.1073 -0.0038 -0.1298
20536W        W36670   4.377   7.013  11.438 -0.3629  0.1892 -0.0149
20537W        W36671  13.697   6.545   1.483  0.1692 -0.0370  0.1842
20538W        W36672  18.704   2.178   2.044  0.0332 -0.2419  0.0886
20539W        W36673  15.033   7.486  12.659  0.0594 -0.0920 -0.1277
20540W        W36674   0.982   0.122   5.431 -0.1606  0.3054 -0.0526
20541W        W36675  10.916   3.386  12.064  0.1831 -0.0864 -0.0483
20542W        W36676  17.834  10.440   0.199  0.0322  0.2423 -0.0269
20543W        W36677   5.445  16.126   3.456  0.2615 -0.3988  0.1213
20544W        W36678  15.649  11.436  13.406  0.1034 -0.0703 -0.0712
20545W        W36679  11.180   4.352  14.076  0.0971 -0.0972 -0.0064
20546W        W36680  11.061   2.713  10.776  0.2286  0.1169 -0.0735
20547W        W36681  13.548  16.413   2.283 -0.0674 -0.2443 -0.1420
20548W        W36682   2.879   9.538  13.430  0.0053 -0.2206  0.1867
20549W        W36683  13.133  13.815  13.086 -0.0361  0.1167 -0.0251
20550W        W36684   8.996   9.988   0.356  0.0198 -0.1144 -0.0120
20551W        W36685  17.618   0.561   1.506 -0.0387  0.1210  0.0347
20552W        W36686   3.404   0.656  15.441 -0.0675  0.1166 -0.2217
20553W        W36687  10.487  17.348  11.011  0.0852 -0.3217 -0.0786
20554W        W36688  12.181   2.181  14.112  0.1689  0.0130 -0.3113
20555W        W36689   6.731   1.522  14.039 -0.1414 -0.1838 -0.0086
20556W        W36690   7.052  16.783  13.116  0.2492  0.1829 -0.0130
20557W        W36691   0.533  17.027  15.081  0.2028  0.0965  0.2326
20558W        W36692  14.267  18.535   1.423 -0.1715 -0.2702 -0.1413
20559W        W36693   3.747   5.349   4.803  0.0910 -0.2445  0.2289
20560W        W36694   9.014   5.079  14.003 -0.2834 -0.2158  0.1303
20561W        W36695   2.362  18.532   3.257 -0.1260 -0.0719  0.0504
20562W        W36696   4.973  10.454  14.078 -0.0324 -0.1948 -0.1063
20563W        W36697   8.709  16.684  11.930  0.3675 -0.1374  0.4104
20564W        W36698  15.606   1.955   3.754  0.3568 -0.2215  0.0848
20565W        W36699   2.775   3.202  11.634  0.0655  0.2402 -0.2344
20566W        W36700   0.860  13.338   0.943  0.3151 -0.2554  0.0086
20567W        W36701  15.201   3.968  12.836 -0.0468  0.0546  0.3501
20568W        W36702  15.413  11.484   3.302  0.0239  0.1649  0.3004
20569W        W36703  16.492   4.295  13.896 -0.1616 -0.1953 -0.1238
20570W        W36704  13.059   1.828  13.281 -0.2109  0.0514  0.3533
20571W        W36705   2.560   2.909  11.985 -0.0076 -0.1218  0.1409
20572W        W36706  14.618  15.166  12.956 -0.0768  0.0391  0.1011
20573W        W36707   6.212   8.741   2.012  0.1021  0.1691 -0.0234
20574W        W36708  11.502  12.981   4.586  0.1193 -0.3623 -0.2022
20575W        W36709  12.629  15.392   1.788  0.2356 -0.2959 -0.1403
20576W        W36710  18.514   1.213   0.390 -0.1120  0.0550  0.2181
20577W        W36711   7.391   2.922   3.987  0.4850 -0.1539 -0.2867
20578W        W36712  11.122  13.919   1.368  0.2199 -0.0014  0.2247
20579W        W36713  16.322  15.402  10.790 -0.0357  0.0710  0.1970
20580W        W36714  14.106  10.661  10.986  0.2762 -0.1307  0.1519
20581W        W36715  18.257  16.466  11.264  0.0457 -0.0001  0.1181
20582W        W36716   6.853   5.911   1.640  0.0871  0.0656 -0.0500
20583W        W36717   9.317  16.654  10.824 -0.1475 -0.1118 -0.0264
20584W        W36718  11.319   4.507  10.845  0.3079  0.1038 -0.2040
20585W        W36719  14.971   1.138   9.751 -0.0844  0.2279  0.0626
20586W        W36720   5.100   0.729  13.795 -0.0092 -0.0334  0.1028
20587W        W36721  13.279   8.081  14.013  0.0208 -0.1178 -0.0277
20588W        W36722  10.045  13.912   3.836  0.0318 -0.1007  0.3829
20589W        W36723  11.340   1.311   2.333 -0.3623 -0.2154  0.0421
20590W        W36724   5.595   6.867  12.362  0.1137  0.1664 -0.4496
20591W        W36725   2.262  12.718   1.842 -0.2148  0.0935  0.0924
20592W        W36726   0.159  16.338  10.949  0.2708  0.0773 -0.0165
20593W        W36727  12.188  13.237  12.739  0.3190 -0.4221  0.1404
20594W        W36728   2.705  10.305   3.234 -0.1174 -0.1736 -0.1121
20595W        W36729   5.766  10.850   2.354 -0.2277  0.0479  0.1060
20596W        W36730   5.584   5.802  11.212  0.1014  0.3228 -0.2765
20597W        W36731  14.194  15.008   3.485  0.0728  0.3407 -0.0536
20598W        W36732   8.051   1.510   4.870  0.2785  0.0863 -0.1725
20599W        W36733  18.650   9.977   0.455 -0.2264 -0.0210  0.0054
20600W        W36734  18.227   6.454  14.784 -0.1901 -0.1563 -0.1592
20601W        W36735  17.286  12.025  12.536  0.0638  0.0492 -0.2404
20602W        W36736   7.876   4.159   2.792  0.3327 -0.0918 -0.1941
20603W        W36737   7.374   7.223   3.275  0.1490  0.0188 -0.0603
20604W        W36738   8.655   7.306   1.976  0.0590  0.2628  0.1222
20605W        W36739   1.366   8.137   2.011 -0.3248 -0.0107  0.3328
20606W        W36740  12.652  15.592  11.721  0.3390 -0.3748  0.0087
20607W        W36741  17.640   2.113   1.536 -0.0164  0.3228 -0.0406
20608W        W36742   8.974   6.454  11.500 -0.0853 -0.1708  0.0117
20609W        W36743   1.576  15.528  13.876  0.3168  0.1969 -0.0504
20610W        W36744   4.904  13.603  13.807  0.0087 -0.1110  0.3164
20611W        W36745  18.255  10.915   3.541 -0.2284  0.0345  0.0349
20612W        W36746  11.936  15.526  14.363  0.3092  0.2357 -0.0166
20613W        W36747  15.522  18.285  15.178 -0.0092  0.1491 -0.0863
20614W        W36748   5.451   3.111  13.365 -0.0058  0.1290  0.1578
20615W        W36749  16.506  15.888  11.639 -0.1242  0.0932  0.0351
20616W        W36750  16.366   6.399  12.646 -0.2985 -0.0711 -0.2596
20617W        W36751  18.677  17.481  12.605 -0.0031 -0.0783 -0.2568
20618W        W36752  11.261  12.463  13.131  0.1914  0.0045  0.0979
20619W        W36753  13.129  10.806  12.460  0.1511 -0.0613 -0.2123
20620W        W36754   5.941  12.836   2.225  0.2473 -0.0356 -0.2741
20621W        W36755   3.105  17.165  12.059 -0.0152 -0.1112  0.0331
20622W        W36756  10.162   9.793  14.752  0.2907  0.1611 -0.0739
20623W        W36757  15.851   3.747   4.088 -0.0334  0.1585 -0.1339
20624W        W36758  11.961   3.392  11.505  0.0837 -0.1923 -0.1482
20625W        W36759   4.289   4.103   0.461  0.2253  0.1172  0.0804
20626W        W36760  18.233  11.896  13.393  0.0782  0.0570  0.0095
20627W        W36761  13.710   5.240   1.907 -0.3936  0.4571  0.0770
20628W        W36762  13.775  15.636   0.636 -0.2358 -0.0028  0.1140
20629W        W36763   3.986  13.643  14.714  0.2678  0.1114  0.0855
20630W        W36764  16.741  18.177  14.805  0.0689 -0.0311  0.1033
20631W        W36765   6.711  17.301  12.936  0.2691 -0.1873  0.0272
20632W        W36766  14.803  15.665   1.454  0.0508  0.0871  0.0678
20633W        W36767  12.673  11.466   5.395  0.0392 -0.1917  0.2218
20634W        W36768   3.046   7.434  12.395 -0.1188  0.0870  0.0230
20635W        W36769   7.682  18.063   4.162  0.1860  0.0883  0.3283
20636W        W36770   4.305  12.166  11.637 -0.2240  0.2643  0.1593
20637W        W36771  14.273   1.430   0.333 -0.1626  0.1139 -0.3478
20638W        W36772   8.750   2.485  12.120 -0.1308 -0.2849 -0.0303
20639W        W36773  13.985  17.948   5.442  0.0559  0.0832 -0.3238
20640W        W36774  15.565   8.366  14.711 -0.2182  0.2361 -0.2955
20641W        W36775  10.655   0.502   1.203  0.0716 -0.3271  0.0882
20642W        W36776  15.003   6.509   2.695  0.0435 -0.1907 -0.3732
20643W        W36777   6.680   0.793  14.562  0.1264  0.3954 -0.0357
20644W        W36778  11.982   9.064  11.436  0.1444  0.0284  0.0278
20645W        W36779  15.456   0.959   2.148 -0.0944  0.2705 -0.1994
20646W        W36780   2.215   5.529   3.282  0.5236 -0.1746  0.0554
20647W        W36781  16.857  16.356  10.982 -0.2303 -0.2106  0.4229
20648W        W36782   9.328   3.376   3.327 -0.3984 -0.0071 -0.2953
20649W        W36783   2.344  18.607   1.800 -0.0635  0.1092 -0.0354
20650W        W36784   6.337  15.291  14.878  0.2830  0.1777  0.1116
20651W        W36785   2.855   1.550  12.514  0.0574 -0.0369  0.2549
20652W        W36786  14.114  10.385  11.986  0.3303  0.2375 -0.3982
20653W        W36787   6.318   7.681   2.305 -0.0971  0.0245  0.0316
20654W        W36788  16.518   4.869   2.916  0.0610  0.1179 -0.1169
20655W        W36789   2.090  10.901   3.630 -0.0819 -0.0796 -0.0073
20656W        W36790   7.508   8.068   1.501  0.0428  0.1112 -0.0935
20657W        W36791  12.951   2.677   6.013  0.1771 -0.1338  0.0282
20658W        W36792   8.389   2.575  14.459 -0.1769  0.0441  0.1406
20659W        W36793  10.526  11.300   2.112 -0.2378  0.4087 -0.1443
20660W        W36794   0.215  10.217  11.789  0.0698 -0.0761  0.0053
20661W        W36795   9.171   7.550  15.029  0.1092 -0.0551  0.0570
20662W        W36796   4.311   3.130   3.056  0.1684  0.0502 -0.0150
20663W        W36797   8.639  12.514  13.862  0.2696 -0.0662  0.0758
20664W        W36798   3.955   0.347   4.279  0.2276  0.1649 -0.0538
20665W        W36799  11.253   0.030   0.564 -0.2782 -0.0917 -0.1727
20666W        W36800   2.631   2.792  13.745 -0.1510 -0.2806  0.0368
20667W        W36801   2.349   3.951  15.577 -0.1546 -0.3718  0.0063
20668W        W36802  14.479   5.813  15.171 -0.4379  0.1704  0.0260
20669W        W36803  13.358  12.282   3.330 -0.1369 -0.1802  0.1141
20670W        W36804  17.603   3.804   4.222  0.0352 -0.2289  0.1243
20671W        W36805   8.369  13.151  10.072 -0.1746 -0.0045  0.0865
20672W        W36806   5.937  10.256   4.981  0.0417  0.3291  0.0213
20673W        W36807   6.169   5.265   4.936  0.1973  0.0357  0.1282
20674W        W36808  13.807  13.334   1.333  0.0359  0.0370  0.0033
20675W        W36809  16.572  16.133   1.607 -0.3050 -0.1715 -0.0942
20676W        W36810  16.561   4.840  13.010 -0.1955 -0.0154 -0.1975
20677W        W36811  17.587  14.148   2.377 -0.0712 -0.1094  0.3418
20678W        W36812   4.375  10.701  15.285  0.1473 -0.0442 -0.0183
20679W        W36813   0.846   6.121   3.428  0.0869  0.0376 -0.1939
20680W        W36814   9.487   1.736  12.308  0.0619 -0.1429  0.1492
20681W        W36815   2.123  13.346  12.312  0.2816 -0.0767  0.4389
20682W        W36816  17.367  14.702   3.968 -0.0377  0.0779  0.1334
20683W        W36817   7.354   4.163   4.329 -0.1819  0.0211 -0.1814
20684W        W36818  18.437  18.658   3.546 -0.2163 -0.0449 -0.3726
20685W        W36819   2.200  16.253   3.885  0.3104 -0.2152 -0.1184
20686W        W36820  16.049   2.368   4.769 -0.1535 -0.4127  0.0011
20687W        W36821  13.380  13.025  15.397 -0.1044  0.1378 -0.3795
20688W        W36822  13.050  12.425  12.164 -0.1812 -0.2182  0.0277
20689W        W36823  17.872   0.889   2.445 -0.0755  0.1643  0.2513
20690W        W36824  17.293  11.070   0.622 -0.0611 -0.0289  0.3020
20691W        W36825  14.189   5.789  13.850 -0.1357  0.1817  0.0218
20692W        W36826  12.896   7.935  10.951  0.1093 -0.0948 -0.1451
20693W        W36827  16.443   8.477  15.284 -0.1976  0.0372 -0.2054
20694W        W36828   2.567   3.900   4.293  0.2338 -0.1021 -0.0715
20695W        W36829   2.170  13.072   3.213 -0.0959 -0.0005  0.2675
20696W        W36830   7.228  10.488  14.849 -0.3074  0.0358 -0.0398
20697W        W36831   9.141  11.662   5.715 -0.1555  0.1534  0.2432
20698W        W36832   2.046  12.804  13.527 -0.2916 -0.1192 -0.0137
20699W        W36833   9.733  18.730   1.079 -0.0814  0.2323  0.0375
20700W        W36834  17.788   0.843   3.626 -0.5837  0.0184 -0.1048
20701W        W36835  17.662   5.312  11.392  0.0828  0.0564 -0.1464
20702W        W36836  18.634  10.105  10.589  0.1890 -0.0431  0.0892
20703W        W36837  12.126   4.545  12.722  0.0905  0.2660 -0.0864
20704W        W36838  14.364   3.130  14.032 -0.2356 -0.2662 -0.0836
20705W        W36839  15.609  18.307   1.115 -0.2757 -0.1789 -0.0076
20706W        W36840  14.981   2.910   5.105 -0.0657  0.0594 -0.0522
20707W        W36841   0.105  13.149  13.328 -0.2657 -0.1388 -0.1240
20708W        W36842   6.239  13.241   5.846  0.1104 -0.0586 -0.1612
20709W        W36843  13.952  15.815   1.100 -0.2184  0.1332  0.1877
20710W        W36844  16.792   8.151  15.470 -0.1470 -0.0369  0.0898
20711W        W36845  16.681   1.041   0.708  0.1573  0.3460  0.0655
20712W        W36846   0.303  11.825   0.335 -0.1032 -0.0407 -0.3370
20713W        W36847   1.063   4.270  12.570 -0.0808  0.2909  0.2244
20714W        W36848  16.021   0.622  12.732  0.1885 -0.1668 -0.0781
20715W        W36849  13.850  15.135  10.943  0.0349 -0.1200 -0.1292
20716W        W36850  14.404  15.439   1.198  0.1943  0.1060 -0.0645
20717W        W36851   2.646  15.056   0.878 -0.4134  0.3850 -0.1476
20718W        W36852  11.742   3.220   5.283  0.1961 -0.0389 -0.2075
20719W        W36853  15.388   8.883  15.100  0.0491  0.3516  0.0411
20720W        W36854   1.433   5.728   2.044  0.1683  0.2127  0.2653
20721W        W36855  12.447  11.899   1.132 -0.0352 -0.3247 -0.0456
20722W        W36856   0.221   6.996   1.372  0.0571  0.4454  0.5510
20723W        W36857  17.876  15.653  13.459 -0.1268 -0.1333  0.1443
20724W        W36858  14.000   4.647  14.640  0.1089  0.2552  0.3744
20725W        W36859   6.519   1.680  14.527 -0.0423  0.2645  0.1588
20726W        W36860  10.507   4.517  13.410  0.1147  0.0678  0.1221
20727W        W36861   1.318   5.490   2.781  0.0729  0.2241  0.0238
20728W        W36862   9.136   6.260   2.031  0.0876  0.1678 -0.5139
20729W        W36863  12.578   2.161   1.196 -0.0735  0.2732 -0.2662
20730W        W36864   6.969   7.148  13.645 -0.0642 -0.3093 -0.0920
20731W        W36865  13.119  18.267  13.909  0.1011 -0.2259  0.1661
20732W        W36866  10.749   8.127  14.665  0.0769 -0.0970  0.2833
20733W        W36867   1.694  16.983   4.327  0.2446  0.1707  0.1116
20734W        W36868  18.286   4.465   0.766 -0.1140  0.0535  0.1686
20735W        W36869   8.581   7.195   3.833  0.2044 -0.2707 -0.0423
20736W        W36870   9.924  10.692   3.839  0.1454 -0.0150 -0.0112
20737W        W36871  14.712   6.619  11.071 -0.0656  0.2216 -0.1278
20738W        W36872   5.913   7.802   4.724 -0.0728 -0.0434  0.1172
20739W        W36873   8.420   9.547  11.618  0.0175 -0.0577  0.0600
20740W        W36874   9.727  13.722   4.875  0.1068 -0.0724 -0.0275
20741W        W36875  16.649   2.224  15.563 -0.0125  0.1957  0.0245
20742W        W36876   9.745   4.152   3.031 -0.0359 -0.0990  0.0859
20743W        W36877  15.318   9.299  10.616 -0.0955  0.0609 -0.2208
20744W        W36878   5.398   7.877  12.049 -0.1209  0.1986  0.0470
20745W        W36879  11.004   7.342   0.418 -0.0421  0.1407  0.0591
20746W        W36880  15.483   8.540  15.503  0.0131 -0.1485  0.2634
20747W        W36881  12.270   7.156  11.711 -0.0345 -0.1594 -0.0370
20748W        W36882   4.528   2.050  14.975 -0.0613  0.5137 -0.0806
20749W        W36883   4.583  14.386  15.455  0.2814 -0.3038  0.0974
20750W        W36884   1.688   8.529  14.348 -0.0289  0.1539  0.2192
20751W        W36885  15.411   6.227   5.180  0.1608  0.0194  0.0478
20752W        W36886  10.990  13.602  14.117  0.1395 -0.3331  0.0738
20753W        W36887   1.031  11.868  13.419 -0.1384  0.2681 -0.0187
20754W        W36888   0.845   8.094   1.912 -0.0219  0.0292 -0.3321
20755W        W36889  17.791   5.018  14.620 -0.0051 -0.0211  0.4177
20756W        W36890   9.068  14.267  15.121  0.0652  0.0260  0.1467
20757W        W36891  13.868   0.750   2.468  0.0488 -0.1231  0.0572
20758W        W36892  11.563  13.611  13.596  0.3294 -0.1153 -0.2787
20759W        W36893   1.149   8.098  13.678 -0.1238  0.1833  0.1525
20760W        W36894  12.038  18.506   5.860  0.0331 -0.1524  0.0524
20761W        W36895   8.767   8.527  15.426  0.1268  0.1077  0.0119
20762W        W36896  13.941   6.141  12.487  0.3279 -0.1050 -0.0376
20763W        W36897  10.880  12.912   2.385 -0.2467  0.0161 -0.2517
20764W        W36898   1.139   2.705   2.188 -0.2414  0.0167 -0.1132
20765W        W36899  17.312   9.097   1.349  0.2095  0.1151  0.0414
20766W        W36900   0.936   4.705   1.127 -0.0082  0.2662 -0.2501
20767W        W36901   8.977   3.830   3.395  0.2145  0.1230 -0.0243
20768W        W36902  18.047  17.985  14.830 -0.3064  0.0861 -0.1070
20769W        W36903  15.045  10.725   9.654 -0.0376 -0.3136 -0.3205
20770W        W36904   5.534  15.342  10.962 -0.0308  0.0278 -0.1315
20771W        W36905  12.038   3.273   3.743  0.1721  0.1369 -0.1198
20772W        W36906   6.121  18.378   2.601  0.0103  0.2325  0.2842
20773W        W36907  11.790   5.039  15.023 -0.2847 -0.0889 -0.0160
20774W        W36908   5.692   1.554  11.569  0.0378 -0.0811  0.0614
20775W        W36909   0.550  17.621   1.245 -0.3642  0.0180 -0.1174
20776W        W36910  10.255  16.556   1.236 -0.0532  0.1404  0.0907
20777W        W36911   4.439   8.317  14.564  0.0779  0.0086  0.1913
20778W        W36912  17.378  16.844   4.320 -0.1960 -0.0981 -0.0526
20779W        W36913   3.309  14.482  13.371  0.1217 -0.0016 -0.1137
20780W        W36914   2.568   8.718  12.900 -0.0903 -0.1861  0.1106
20781W        W36915   2.777  17.782  15.543  0.0253  0.2614  0.0353
20782W        W36916  14.614   8.279   1.765  0.0262 -0.0587 -0.0264
20783W        W36917   2.103  10.808   4.207  0.1480 -0.3924  0.0540
20784W        W36918  16.693  13.756  13.592 -0.1220  0.3174  0.1458
20785W        W36919   2.664  14.742  14.291 -0.1951  0.0485 -0.0725
20786W        W36920   4.177   0.172   0.821 -0.0631 -0.0505 -0.1975
20787W        W36921   1.200   0.503   2.488 -0.2568  0.4281 -0.0727
20788W        W36922  14.293   1.317   2.677 -0.1591  0.0875 -0.2507
20789W        W36923  17.869   8.458   0.954  0.0676  0.1314 -0.0584
20790W        W36924   8.512  17.570   2.458  0.0819 -0.0364 -0.1037
20791W        W36925   3.027  18.068  13.873 -0.3351 -0.1863 -0.0592
20792W        W36926  10.871  15.858   3.220 -0.0998  0.0337 -0.3216
20793W        W36927  15.214  10.463  11.835 -0.1963 -0.1367  0.3688
20794W        W36928   6.280   9.292   0.223 -0.0135  0.0367 -0.2811
20795W        W36929   9.874  15.640  14.436 -0.1047 -0.1413 -0.3027
20796W        W36930  18.324   9.812  15.020 -0.0283  0.1007 -0.4092
20797W        W36931   1.228   6.593  13.214  0.2382  0.2018  0.0393
20798W        W36932  13.284  11.880   5.221  0.0696  0.0695  0.1300
20799W        W36933  15.663   0.536   9.871 -0.2880 -0.1255 -0.5142
20800W        W36934   0.457   4.258  12.900  0.3920  0.0824 -0.2369
20801W        W36935  10.900  18.096  12.220 -0.1789 -0.0083  0.0199
20802W        W36936   8.069   7.933  11.948 -0.1305 -0.1324  0.1755
20803W        W36937  10.904  13.262  13.266 -0.0072 -0.2608 -0.3621
20804W        W36938   1.752   3.975  14.902 -0.2941 -0.2187 -0.4305
20805W        W36939  10.355  13.660  14.596 -0.0348  0.0857 -0.2755
20806W        W36940  11.817   5.402   2.497  0.0757  0.1573 -0.0649
20807W        W36941   7.707  12.335   3.100 -0.1544 -0.3440 -0.0801
20808W        W36942  13.190  10.458  11.538  0.0428 -0.1329 -0.0227
20809W        W36943  13.545  16.094  12.547 -0.0421 -0.1024 -0.2868
20810W        W36944   1.375   4.683   2.804 -0.4165 -0.0068  0.0802
20811W        W36945  13.187   7.554  10.697  0.4064  0.2530  0.1200
20812W        W36946   7.648   3.533   3.874 -0.0915  0.0714 -0.3669
20813W        W36947  16.085   5.354  14.539 -0.1232  0.1129  0.0779
20814W        W36948  16.801   5.007  11.920  0.2133  0.1681  0.2093
20815W        W36949   4.248  11.859   4.380 -0.1845 -0.0764  0.0534
20816W        W36950   9.204  18.491  11.392  0.0729  0.2896  0.0966
20817W        W36951  17.038  14.394   5.764 -0.2553  0.1674 -0.5660
20818W        W36952   0.840   2.777   3.272  0.2438  0.0510 -0.0795
20819W        W36953   3.745   0.031  10.599 -0.0676 -0.1651  0.0887
20820W        W36954  17.268  13.964   0.624 -0.1291  0.0510  0.1206
20821W        W36955   4.279  17.171   3.206  0.2808 -0.2076  0.0831
20822W        W36956   0.874   7.019   4.571  0.1674 -0.1451  0.0760
20823W        W36957   7.430   8.484  12.406  0.0691  0.1996 -0.3660
20824W        W36958  11.653   0.426   5.884  0.2560  0.2751  0.2469
20825W        W36959  12.330   3.660   0.524  0.1077 -0.1242 -0.5209
20826W        W36960   7.789   7.483   6.234  0.1646  0.2196 -0.1168
20827W        W36961  14.181  17.221  11.324 -0.1447  0.1451  0.0718
20828W        W36962   6.811  10.431   5.100 -0.1862  0.1229 -0.1030
20829W        W36963   0.068  14.203  14.646 -0.1363  0.1177  0.0445
20830W        W36964  11.614   4.480   2.679 -0.0411 -0.2064  0.0511
20831W        W36965   8.538   4.968   0.758 -0.0397  0.0699 -0.0222
20832W        W36966   7.559  12.971  12.804  0.0385 -0.2196 -0.1158
20833W        W36967   7.872   9.886  12.723 -0.0186 -0.0275  0.2678
20834W        W36968  16.305  17.006  12.804  0.1875  0.1259  0.0204
20835W        W36969  12.445   1.086  13.070  0.0952  0.1510  0.1445
20836W        W36970   7.870   5.763  13.085  0.0180 -0.3776 -0.1399
20837W        W36971  12.937  10.666   2.721  0.3972 -0.2614 -0.0421
20838W        W36972   8.877   4.457   4.762 -0.2902 -0.2414  0.3666
20839W        W36973  18.700  18.378   5.290 -0.2037  0.1631 -0.2203
20840W        W36974   0.071  17.415  15.256 -0.2075  0.1212 -0.0958
20841W        W36975   8.968   2.934   5.288 -0.1591 -0.2594  0.0292
20842W        W36976  16.632   0.497  13.346  0.2858 -0.0883 -0.2894
20843W        W36977  12.311   8.287  12.936  0.1061  0.1752 -0.0516
20844W        W36978  12.395   7.221   4.003  0.0785 -0.1058  0.3064
20845W        W36979   8.422   8.990   1.680 -0.0957 -0.0320 -0.1035
20846W        W36980  15.386   2.160  12.523 -0.0348  0.0347 -0.2982
20847W        W36981   0.513  17.246   2.846 -0.0923 -0.0092 -0.2386
20848W        W36982  16.989   3.877  13.918  0.0554  0.0269 -0.0327
20849W        W36983   7.651   6.572   2.556 -0.3157  0.1464  0.0399
20850W        W36984   2.051   0.274  13.979 -0.3237 -0.0713  0.1343
20851W        W36985  13.958   4.433   3.222  0.2711 -0.1080 -0.1327
20852W        W36986   7.146  16.969  10.014 -0.0405 -0.1207  0.0754
20853W        W36987   3.374  17.553   4.950  0.0705  0.0912  0.0482
20854W        W36988  17.569  15.241   3.811 -0.1413 -0.0641 -0.1529
20855W        W36989   5.107  14.678   1.895 -0.0502 -0.0096 -0.2234
20856W        W36990  16.474   7.587   2.648 -0.0373  0.1317 -0.0274
20857W        W36991  15.749   2.322   1.022  0.0198  0.2605  0.1078
20858W        W36992   4.511  15.635   1.132  0.1349 -0.2094 -0.1208
20859W        W36993  17.690   3.548  13.600 -0.0951 -0.0297  0.0426
20860W        W36994  13.990   4.558  12.598  0.0168  0.1404 -0.1473
20861W        W36995  10.638  12.388  10.827  0.1225 -0.0226  0.0017
20862W        W36996  10.633   7.443   0.995  0.1803  0.2017  0.1748
20863W        W36997   9.184  14.593   1.206 -0.2103  0.1931 -0.0616
20864W        W36998  18.487   6.505   9.819  0.2243 -0.3081  0.0013
20865W        W36999   6.558  17.873   2.450 -0.1670 -0.1531  0.2184
20866W        W37000   0.447  14.559   1.236  0.1029  0.1750 -0.2324
20867W        W37001   9.252  10.764   1.600 -0.1261 -0.0874  0.3184
20868W        W37002   6.070  15.703  11.635  0.1942 -0.2090 -0.0098
20869W        W37003   4.704  16.844   4.506  0.1506 -0.1336 -0.1572
20870W        W37004   8.539   9.367   5.333  0.3621  0.2049 -0.0225
20871W        W37005  15.686   2.798  14.390  0.1720  0.2409  0.1406
20872W        W37006   8.713  12.906   1.691 -0.2535  0.0206 -0.1325
20873W        W37007  17.968   2.284   2.194 -0.1040  0.1444 -0.0774
20874W        W37008   4.403  17.418  11.633 -0.0899 -0.1327 -0.1091
20875W        W37009   4.082  17.914  12.424 -0.0254 -0.1468  0.0115
20876W        W37010  13.946   7.253   4.676  0.3360  0.2074  0.2163
20877W        W37011   4.514   6.780   1.535  0.0322  0.0588 -0.1072
20878W        W37012   1.633   9.861   1.065  0.0430  0.1843  0.0766
20879W        W37013   1.597   3.271  14.645  0.0642  0.2454 -0.1029
20880W        W37014   5.612  15.923  13.878  0.0563  0.1146 -0.1421
20881W        W37015   9.785  12.945   4.527 -0.5952 -0.0118  0.2128
20882W        W37016   2.126  18.303   4.222 -0.2788  0.4918 -0.0166
20883W        W37017   4.975   5.087  14.455  0.0129  0.1255 -0.1625
20884W        W37018   1.203   0.640   4.729  0.3114 -0.1187  0.1422
20885W        W37019  11.061  11.754  13.820  0.2367 -0.1813 -0.0100
20886W        W37020   6.177  11.457  14.745  0.2725 -0.0074  0.2515
20887W        W37021   2.136   9.727   1.118  0.2170  0.0634  0.0238
20888W        W37022   2.812   8.155  14.111 -0.0656  0.0777  0.0329
20889W        W37023  18.067   1.962   5.103  0.2944 -0.5487 -0.0611
20890W        W37024   4.844  17.448  13.390 -0.1776 -0.1011  0.3861
20891W        W37025  17.017   4.155  11.342 -0.0291  0.4833 -0.1779
20892W        W37026   5.560   2.305   1.803 -0.0356  0.2733 -0.0867
20893W        W37027  17.768   5.973  14.062 -0.2124  0.1589  0.1065
20894W        W37028  17.501   3.375  13.155  0.0236  0.0127  0.0539
20895W        W37029   4.710   7.560  14.375  0.1039 -0.0384 -0.0724
20896W        W37030  11.755   6.852  11.103  0.0857 -0.3138  0.3448
20897W        W37031   0.358  10.700   2.851 -0.1245  0.1451  0.0744
20898W        W37032   3.374   8.956   4.798  0.0886  0.2016  0.2825
20899W        W37033   0.274   4.333   5.388 -0.1243  0.2470 -0.0323
20900W        W37034  13.030  15.572  15.201 -0.0363  0.2458 -0.0286
20901W        W37035   0.566  14.330   2.386 -0.0129 -0.0514  0.0770
20902W        W37036   7.987  13.874  11.274  0.1709  0.3213 -0.0621
20903W        W37037   1.581   7.132  12.440 -0.4603 -0.1735 -0.1030
20904W        W37038   6.982  11.167   4.797  0.1396 -0.2678 -0.1263
20905W        W37039   2.509  11.218   1.922 -0.2470 -0.0357  0.0596
20906W        W37040  12.556  14.703  14.482  0.3345  0.1954 -0.1834
20907W        W37041  10.393   8.453  14.190 -0.1071  0.3466  0.1445
20908W        W37042   9.171  18.399   4.875 -0.0431  0.0743  0.0094
20909W        W37043   4.126   7.315   2.410 -0.1273  0.1217 -0.1119
20910W        W37044  12.798  18.731   3.638 -0.0686 -0.0883 -0.2082
20911W        W37045   8.576   4.461   2.099 -0.3077 -0.0919 -0.5458
20912W        W37046   7.530  13.988   0.831 -0.0775  0.0565  0.1148
20913W        W37047  12.710  16.771  15.218  0.2430 -0.0597 -0.1806
20914W        W37048   7.990   8.479  11.090  0.1129 -0.0386  0.0716
20915W        W37049  10.097  13.431  12.484  0.1383 -0.0661  0.0409
20916W        W37050  13.690   6.373   2.993 -0.1988  0.0213 -0.1091
20917W        W37051  11.775  10.131   2.595  0.0894  0.0790  0.2925
20918W        W37052  12.280   3.572  13.819 -0.1521  0.4244 -0.0221
20919W        W37053  16.777  13.529  14.561 -0.1686 -0.1651  0.0747
20920W        W37054   7.398   1.988   3.580  0.0767 -0.0267  0.0581
20921W        W37055  12.050   8.743  13.372 -0.1985 -0.1498  0.2239
20922W        W37056  10.658   5.866   5.918  0.2659 -0.0930  0.1071
20923W        W37057  16.602  17.304  13.153 -0.0748  0.1059  0.2412
20924W        W37058   6.699  12.301  11.935 -0.2563  0.0394  0.3047
20925W        W37059  14.017   8.114  11.492 -0.0757 -0.3588  0.0328
20926W        W37060   0.559   1.045  15.437 -0.2282 -0.2085 -0.1587
20927W        W37061   6.531  16.947  13.322 -0.1843 -0.1837 -0.0112
20928W        W37062  18.708   7.850   5.622 -0.2294 -0.1674 -0.0001
20929W        W37063  15.257  10.736  12.306 -0.2203 -0.2303  0.1771
20930W        W37064   3.439  14.622  10.309 -0.1405 -0.2490 -0.1693
20931W        W37065   6.038  12.497   2.571  0.0534  0.0814 -0.1684
20932W        W37066   0.618   5.468  15.187 -0.0237 -0.0092  0.1238
20933W        W37067   5.149   7.931   2.813 -0.0673 -0.0880 -0.0121
20934W        W37068   2.152  14.348   0.995 -0.0565 -0.0457  0.1707
20935W        W37069  11.487  10.519  11.393  0.1368 -0.0650 -0.0423
20936W        W37070  16.105  12.859   4.933  0.1647 -0.0209 -0.0654
20937W        W37071   5.015   1.268   0.495  0.2171  0.1108 -0.2552
20938W        W37072  12.618   3.098   1.647 -0.1378 -0.1580  0.0627
20939W        W37073   4.631   3.144   3.921  0.3109 -0.1529 -0.0525
20940W        W37074   6.229   8.892  12.950  0.0979  0.0358 -0.2117
20941W        W37075   1.535   8.056  13.309  0.1060  0.1181  0.0559
20942W        W37076  12.482   5.162   2.140  0.1069  0.1296 -0.0219
20943W        W37077   1.288   4.194  11.557 -0.0029  0.1168  0.1531
20944W        W37078   2.384   2.495  14.065 -0.1168  0.0803  0.2353
20945W        W37079   0.877   0.969   0.796 -0.0846 -0.1161  0.1140
20946W        W37080  18.077   7.273   2.975  0.0666  0.0250  0.0654
20947W        W37081  16.804   0.563   4.748  0.2304 -0.1639  0.0567
20948W        W37082   0.731   6.178  13.907  0.2704 -0.1739 -0.0889
20949W        W37083  14.634  13.894  14.369  0.1429  0.2445 -0.2064
20950W        W37084  16.849  11.163  10.124 -0.3038  0.2091 -0.0197
20951W        W37085  15.378  14.109   2.868  0.2624  0.2249 -0.1123
20952W        W37086  11.175   5.834  11.485  0.3482  0.5033 -0.2724
20953W        W37087  18.190   4.166  13.040 -0.0414  0.0703  0.0066
20954W        W37088  16.979  15.285   0.625  0.1121  0.1297 -0.0204
20955W        W37089   8.909   5.854   4.638  0.0251  0.3556  0.1371
20956W        W37090  13.897   1.615  12.922 -0.0295 -0.3807  0.1965
20957W        W37091  10.214  16.446   2.628  0.3847 -0.0910 -0.0006
20958W        W37092   8.691  17.420   4.815 -0.0281 -0.2788 -0.1128
20959W        W37093  11.997   7.137  12.290  0.0796  0.1291 -0.0851
20960W        W37094   1.489  17.365   4.002  0.0692  0.1213  0.3859
20961W        W37095  13.022  10.186   1.162  0.0361 -0.1406 -0.2274
20962W        W37096   9.949   2.936  13.540 -0.1522 -0.1871 -0.2009
20963W        W37097   8.034  11.942   1.717  0.3480 -0.0153 -0.1427
20964W        W37098   3.910   9.148   4.074 -0.2888 -0.3359  0.0076
20965W        W37099  13.531   3.062   0.766  0.1072 -0.1182  0.2111
20966W        W37100   9.043   2.393   0.477  0.1421 -0.0706 -0.1466
20967W        W37101   1.135   1.820  13.049 -0.3671 -0.2804  0.2407
20968W        W37102  17.181   9.860  13.589  0.1592  0.1014 -0.2929
20969W        W37103  15.338   0.293   3.905 -0.1161  0.0882 -0.1811
20970W        W37104   0.091  14.780   0.224  0.0231  0.0264 -0.0334
20971W        W37105  13.823   7.071  14.308  0.0916  0.1968  0.0757
20972W        W37106  10.352  14.347   2.066 -0.0865  0.2178  0.0397
20973W        W37107  15.288   9.669   1.737  0.1073 -0.2409  0.0375
20974W        W37108  17.776  16.730  12.794 -0.0900  0.0989 -0.2556
20975W        W37109   9.134   0.251   5.265  0.0414 -0.0973 -0.3811
20976W        W37110   8.063   0.972   0.178  0.2052  0.0428 -0.2669
20977W        W37111  18.431   8.951   2.478  0.0231  0.2058 -0.0079
20978W        W37112  11.960  11.542   2.151  0.1241 -0.2026 -0.2140
20979W        W37113  17.787   2.999   0.441  0.0345 -0.2228 -0.0870
20980W        W37114   7.881   8.505  14.687  0.1742  0.1122 -0.3409
20981W        W37115   2.160   4.117   5.185 -0.0429  0.2648  0.1002
20982W        W37116  13.055  11.602   2.604 -0.0402 -0.0601 -0.1446
20983W        W37117  10.312   4.546   0.508 -0.0743 -0.2095 -0.2819
20984W        W37118  11.620  12.334  14.230  0.0822  0.1737 -0.2949
20985W        W37119   7.240   5.045   4.222  0.0809  0.1550  0.0892
20986W        W37120  14.769  12.017  15.466  0.0524 -0.1601  0.1870
20987W        W37121  18.374  18.426   4.868  0.0286 -0.0586  0.1788
20988W        W37122   0.268   7.545   1.894 -0.0717 -0.1166 -0.0422
20989W        W37123  16.308  13.104   2.569  0.0513 -0.0675  0.4342
20990W        W37124   3.614   0.229   4.724  0.0012 -0.2935  0.1277
20991W        W37125   3.692   4.081   3.310  0.2038  0.1072  0.2579
20992W        W37126   8.660  11.443  13.672  0.1607 -0.3161 -0.1260
20993W        W37127   9.365  17.083   1.124  0.2466  0.3003 -0.1216
20994W        W37128   0.613   5.744  13.124 -0.1051  0.0855 -0.0185
20995W        W37129   6.951  12.570  14.006  0.2693 -0.0964  0.1741
20996W        W37130   3.230   6.699  10.870 -0.0731  0.0954 -0.2393
20997W        W37131   8.951  15.765   1.054 -0.0009  0.0102  0.2969
20998W        W37132   5.326   0.117   1.640  0.0800 -0.0429 -0.2010
20999W        W37133  12.139  10.939  12.651 -0.1787  0.1259  0.0579
21000W        W37134   4.196   4.819  14.083 -0.3031 -0.0111  0.0493
21001W        W37135   3.703   1.554  15.089  0.0088  0.2602  0.0897
21002W        W37136   0.359   5.069  14.981 -0.0843 -0.3785  0.1740
21003W        W37137   8.944  17.393  12.164 -0.0004  0.2679 -0.0669
21004W        W37138   9.941  15.067  11.939  0.1067 -0.0967  0.0861
21005W        W37139  15.408  15.351  13.055  0.0051  0.1673  0.0313
21006W        W37140   5.771   8.730   0.605 -0.3876  0.0044 -0.2245
21007W        W37141   3.482  14.183  12.833  0.1909 -0.0328 -0.0482
21008W        W37142   8.766   5.773   5.097  0.3412 -0.1507 -0.1539
21009W        W37143  16.177  17.632  15.191  0.3338 -0.0686 -0.2054
21010W        W37144   2.933   5.104   4.619 -0.2330  0.0543  0.0684
21011W        W37145  17.193  17.665   1.618 -0.1960  0.1255  0.2634
21012W        W37146  16.090   7.237  15.425  0.1076 -0.2646 -0.2014
21013W        W37147   5.809  15.003   3.652  0.1360 -0.1246 -0.2881
21014W        W37148  18.718  10.031  12.394  0.1089 -0.2408 -0.1827
21015W        W37149   5.825  12.523   4.226 -0.2794 -0.1416 -0.1010
21016W        W37150   8.204  11.128   3.136  0.1964  0.1752  0.3777
21017W        W37151   1.859   5.889   5.067 -0.0125  0.2610 -0.0254
21018W        W37152   5.714   4.007   0.684 -0.0151  0.0574  0.0176
21019W        W37153   5.385   5.155   5.337 -0.0877 -0.1989  0.1294
21020W        W37154  11.078  17.829   2.274 -0.0980  0.1054 -0.1781
21021W        W37155  12.507   5.183  11.432 -0.0632  0.1372  0.2222
21022W        W37156  12.312  13.584   4.083  0.1317  0.5712  0.5246
21023W        W37157   2.684  11.707   3.794 -0.0985  0.1756  0.2246
21024W        W37158   1.578  12.379  10.995  0.0655 -0.0149  0.0681
21025W        W37159   2.955   8.069   5.020  0.2420  0.2222  0.1171
21026W        W37160   9.181   7.020  14.280 -0.1346  0.1707 -0.1241
21027W        W37161  18.608   5.469   4.403  0.0284  0.0832 -0.1900
21028W        W37162   9.414   3.663  12.219  0.0585  0.4871  0.0982
21029W        W37163   1.092   5.520  14.963  0.1718  0.0022 -0.0502
21030W        W37164   5.603   7.292   4.430 -0.0579 -0.1280  0.2661
21031W        W37165   3.675   6.772   4.350  0.0681  0.0490  0.0247
21032W        W37166   8.741   8.739   3.027  0.0795  0.0119  0.1053
21033W        W37167   8.790   0.156  14.566 -0.1913 -0.0765 -0.0298
21034W        W37168  16.913   2.061  10.717 -0.2826 -0.0703 -0.1142
21035W        W37169   2.217   4.144   1.998 -0.3501  0.1582  0.1234
21036W        W37170  12.440  11.305  10.842  0.0727  0.1915  0.0209
21037W        W37171  10.192  14.559  15.072  0.0125  0.1272 -0.1271
21038W        W37172  16.718  16.083  15.404 -0.1278  0.0204  0.1532
21039W        W37173  17.318   5.965  12.085  0.1008 -0.0321  0.2856
21040W        W37174  14.223   9.839   1.839  0.2243  0.1842  0.1315
21041W        W37175   2.631   7.313   4.239 -0.1091 -0.2737 -0.2818
21042W        W37176   5.535  15.827   2.591 -0.0014 -0.2272  0.0052
21043W        W37177   5.717   0.790   0.253 -0.1008 -0.0181 -0.1209
21044W        W37178  13.774   0.606  15.321  0.1922  0.1247  0.0623
21045W        W37179   7.650  16.526   3.479 -0.1958 -0.0887  0.0810
21046W        W37180   1.210  16.373   5.343 -0.2089  0.0565  0.0833
21047W        W37181   7.578   4.731   4.920 -0.0730 -0.2200 -0.0550
21048W        W37182  18.147   8.861   1.851  0.0343 -0.1739 -0.3411
21049W        W37183  11.619   3.285  12.860 -0.2715  0.0387  0.1987
21050W        W37184   8.122   5.568  13.608  0.0082  0.0201  0.1139
21051W        W37185   0.315   6.437   1.435  0.0354  0.1822 -0.0871
21052W        W37186   4.005  16.025   2.247  0.1329 -0.3964  0.1080
21053W        W37187  14.931   2.349   2.213 -0.1300 -0.1237  0.0510
21054W        W37188   5.193   0.143   1.027 -0.2552  0.0951 -0.0867
21055W        W37189   2.660  16.424   4.984 -0.2665  0.1620 -0.1565
21056W        W37190  16.962  14.367   0.132  0.0062 -0.3107 -0.3006
21057W        W37191   8.400  15.317   2.508 -0.0013  0.1880 -0.0311
21058W        W37192   4.726   3.442   2.991 -0.1374 -0.0670  0.0280
21059W        W37193  17.327  14.811   2.199 -0.0922  0.1010  0.2149
21060W        W37194   7.564  16.289   0.687  0.0182  0.2408  0.0803
21061W        W37195   1.698   8.199   2.824  0.0191 -0.1080 -0.1122
21062W        W37196  12.064   4.259  13.613  0.1114 -0.2485 -0.1543
21063W        W37197  12.471  10.031  11.385 -0.0347 -0.3876  0.2194
21064W        W37198   1.317   4.651   1.427  0.1050 -0.1748  0.2007
21065W        W37199  16.148  18.262  11.381  0.0099  0.2151 -0.1004
21066W        W37200  16.942   4.503   1.285 -0.0165  0.2046 -0.2841
21067W        W37201  16.822  17.949   1.068 -0.0997 -0.2436  0.1620
21068W        W37202   1.525   1.811  14.465 -0.2727  0.0745 -0.1189
21069W        W37203   9.969   0.580   0.341  0.2603 -0.2511  0.0486
21070W        W37204  16.646  16.514  11.456 -0.2020  0.0224  0.0124
21071W        W37205  13.858   5.870  15.537  0.1209 -0.0705  0.2897
21072W        W37206   7.189   9.845   1.485 -0.0636  0.0348 -0.0431
21073W        W37207  10.540  13.228   9.889 -0.1760 -0.1782  0.0924
21074W        W37208  17.333   5.502   4.497 -0.0362 -0.0954 -0.1293
21075W        W37209   0.886  16.431   2.947 -0.0059 -0.1694 -0.0139
21076W        W37210   5.397  14.491   0.498 -0.2198 -0.2270  0.2486
21077W        W37211  15.755   8.099  11.199  0.2242 -0.0431 -0.1464
21078W        W37212   8.210  16.351  12.280 -0.0021 -0.1900  0.1857
21079W        W37213   3.977   5.885  15.448  0.0601  0.0408 -0.2489
21080W        W37214  13.213  16.601  15.402 -0.2155  0.1056  0.0332
21081W        W37215  12.689   4.091   1.867 -0.0412  0.1630 -0.0789
21082W        W37216  14.381  17.569  13.656  0.1264  0.0065 -0.1284
21083W        W37217  14.382   2.996  14.578  0.1253 -0.0284 -0.4065
21084W        W37218  17.088  18.428  12.577  0.0053  0.1921 -0.0225
21085W        W37219   2.928  17.385   4.559 -0.1127 -0.0601 -0.0531
21086W        W37220   3.703   6.063  14.973 -0.2624 -0.0112  0.0130
21087W        W37221   0.195  16.517  11.811 -0.2259 -0.0441  0.0734
21088W        W37222   9.039   9.567   2.486  0.1742 -0.2075 -0.0968
21089W        W37223   2.459   2.233   1.484  0.1518 -0.0540 -0.2825
21090W        W37224  16.798  13.994   3.526  0.0561  0.5142 -0.0501
21091W        W37225   1.967  15.332  11.699  0.2889 -0.0190 -0.0403
21092W        W37226   4.112   7.468   1.972  0.0835 -0.0296  0.0162
21093W        W37227  11.647   8.036   3.883 -0.1697  0.0721  0.3250
21094W        W37228  15.816  13.504   4.175  0.2178  0.0325  0.2352
21095W        W37229  17.073   6.611   4.313 -0.3747 -0.1174  0.1097
21096W        W37230   0.430  12.405  12.010  0.0338  0.3967 -0.1284
21097W        W37231   9.733   2.701   2.996 -0.0829  0.1762 -0.2156
21098W        W37232  18.542  16.119  14.561  0.0852  0.3687  0.0587
21099W        W37233  18.091  12.018  15.534  0.5551 -0.3442 -0.0116
21100W        W37234   7.734  15.444  13.140 -0.3142  0.1072  0.1767
21101W        W37235   8.671   7.196  12.977  0.1858 -0.2205 -0.0504
21102W        W37236   8.475  11.256  13.163  0.0963  0.0443 -0.4240
21103W        W37237   2.931  16.999  10.694  0.2138 -0.0276  0.2099
21104W        W37238  16.668   2.139   1.057  0.0057  0.0581  0.4551
21105W        W37239  16.780   1.925   5.668  0.1001  0.1457 -0.3447
21106W        W37240  13.488   0.398   3.654 -0.0327  0.3130 -0.0001
21107W        W37241  11.619  18.694  12.803 -0.0506 -0.2413  0.1331
21108W        W37242   9.568  11.539   0.029 -0.0550 -0.2807  0.1616
21109W        W37243   8.396   0.086  15.499  0.0716  0.1274 -0.0989
21110W        W37244  10.492   6.138  13.225  0.0183  0.0217  0.2463
21111W        W37245   2.676  18.100   3.385  0.3229  0.0372 -0.0767
21112W        W37246  15.260  11.215  14.608  0.2599 -0.2243 -0.3310
21113W        W37247   1.667   0.221   2.355 -0.0538 -0.1511  0.0801
21114W        W37248  12.468   6.408   0.251 -0.1802  0.2139  0.0860
21115W        W37249   3.076   8.950  12.387 -0.1747 -0.2024  0.2326
21116W        W37250   9.870  17.620  12.234  0.1625  0.0119  0.1207
21117W        W37251   5.046   6.272  15.056 -0.3114  0.1700  0.3333
21118W        W37252   7.422  17.092  15.162  0.1108  0.2633  0.0888
21119W        W37253  10.302   9.982   3.335  0.1698 -0.2450  0.0671
21120W        W37254  12.694   5.763   0.308 -0.2391  0.1540 -0.1503
21121W        W37255  12.420  18.136   1.181 -0.2515  0.2704  0.2032
21122W        W37256  11.618   4.333  13.792  0.5665 -0.0121  0.0694
21123W        W37257  16.476   4.381   2.790  0.0868 -0.0932 -0.2900
21124W        W37258  11.795   1.060   1.455 -0.1509  0.0087  0.3108
21125W        W37259  16.532  10.121   0.841  0.1727  0.1935  0.2744
21126W        W37260  14.071  11.532  14.390 -0.1741  0.1587  0.0171
21127W        W37261  15.959  17.095   0.302 -0.2477 -0.3609  0.0442
21128W        W37262  14.401  13.030  13.926  0.2120  0.0338 -0.0119
21129W        W37263  15.389  14.377   2.435 -0.0983 -0.0794 -0.0448
21130W        W37264   9.079  10.828  11.497  0.2570 -0.0726  0.2808
21131W        W37265  10.653   3.214  11.564  0.0313  0.0398  0.0736
21132W        W37266  14.038   8.579   3.246  0.2167  0.0836  0.0213
21133W        W37267   2.536   7.730   4.622  0.0997  0.1185 -0.0312
21134W        W37268  18.301   0.375   4.897  0.1718 -0.1690  0.2270
21135W        W37269  18.617   0.383  13.016  0.0091  0.1025  0.1303
21136W        W37270   5.605   5.229   2.853  0.0609 -0.1539  0.4038
21137W        W37271  12.216  12.126   3.101  0.2922  0.0531  0.1706
21138W        W37272   9.151  18.532   3.517  0.2379  0.0978 -0.0826
21139W        W37273  12.010  17.941  11.784  0.1244 -0.0463  0.3512
21140W        W37274  13.931  16.232  11.215  0.1649  0.0727 -0.2138
21141W        W37275   5.094  14.306   0.142  0.1428  0.1693  0.1113
21142W        W37276  13.753   8.842  13.748 -0.2686  0.3557  0.0306
21143W        W37277  16.180   5.018  10.507  0.1273 -0.1017  0.3161
21144W        W37278  16.212  13.589   1.121  0.0352 -0.2756  0.1613
21145W        W37279  13.047   9.658   4.434  0.2775  0.2149 -0.0830
21146W        W37280  15.405   6.228   3.871 -0.6705  0.2479  0.0442
21147W        W37281  13.424  16.951  10.908  0.1926 -0.0719  0.0506
21148W        W37282  18.247   2.784   4.012 -0.1584  0.3172 -0.0657
21149W        W37283   1.208   5.130   3.047 -0.0270 -0.0908 -0.0241
21150W        W37284   0.962  15.057  14.958  0.0065 -0.4133  0.3201
21151W        W37285   3.986   7.050   0.928  0.2469  0.1274  0.1027
21152W        W37286   6.301  16.761  15.204 -0.0847 -0.1610 -0.0628
21153W        W37287  15.634   0.430  15.103 -0.0501  0.1368  0.0790
21154W        W37288  10.451  11.402   4.253 -0.1836 -0.1632 -0.0332
21155W        W37289   4.715   8.540  12.275  0.2536 -0.3875 -0.1191
21156W        W37290   0.913  13.800  15.344  0.1321  0.0796  0.1761
21157W        W37291  17.134  16.548  11.453  0.2126  0.0634 -0.1301
21158W        W37292  13.964  16.167   0.205 -0.1559 -0.0287  0.3400
21159W        W37293   0.695  12.474  11.610  0.0060 -0.0515 -0.2525
21160W        W37294   0.716   9.590   5.233  0.4484 -0.3114 -0.1916
21161W        W37295   4.260   8.976  14.346  0.1031 -0.2495 -0.0792
21162W        W37296  12.766   4.537   2.582  0.0234  0.2748 -0.1178
21163W        W37297   9.406  13.927  12.473  0.2485 -0.0345  0.2599
21164W        W37298   1.509   0.283   3.853  0.2043 -0.2602  0.0066
21165W        W37299  16.039   1.617   0.559  0.1277  0.1086 -0.0470
21166W        W37300  10.444   0.641   2.760  0.1859  0.3044 -0.2833
21167W        W37301   1.944  12.238   0.462  0.0308 -0.2118 -0.3538
21168W        W37302  11.684  13.314   2.730  0.0737 -0.1233  0.0245
21169W        W37303   7.814   4.055  11.146  0.1052  0.2439  0.1145
21170W        W37304  16.554   4.471   3.804  0.1345 -0.0231  0.0113
21171W        W37305  13.691  15.342  14.409 -0.1745 -0.1928  0.0168
21172W        W37306   2.693   1.895  10.771 -0.1086 -0.1724 -0.1298
21173W        W37307   4.313   0.587   1.130 -0.1495 -0.5119 -0.1990
21174W        W37308  11.622  14.330  12.917 -0.0595  0.2555 -0.2373
21175W        W37309  13.994   8.535  10.142  0.0562  0.0916 -0.0860
21176W        W37310   3.405   3.827   2.909  0.2632 -0.1639  0.2993
21177W        W37311  11.791  17.803   0.441  0.0263 -0.1223 -0.0007
21178W        W37312  10.151   6.560   4.526 -0.0832  0.1272 -0.2623
21179W        W37313  10.554   8.635   3.741  0.0609 -0.0007 -0.1213
21180W        W37314  18.264  16.342  11.846 -0.1890 -0.2039  0.2512
21181W        W37315  17.148   2.910   2.450 -0.1203  0.2243  0.0788
21182W        W37316   0.710   2.151  12.251 -0.0998 -0.2255  0.1475
21183W        W37317  15.918   2.612  15.272  0.1464  0.2109  0.3307
21184W        W37318   3.064  15.562  14.565 -0.0311 -0.1560  0.2595
21185W        W37319  13.155  14.959  11.815 -0.1555 -0.1344 -0.3182
21186W        W37320  10.025  10.129  13.966  0.0260  0.0469  0.2866
21187W        W37321  10.019   7.484   1.741  0.1798 -0.3421  0.0842
21188W        W37322   4.284   3.701   1.930 -0.0368 -0.1061 -0.0755
21189W        W37323  17.614  14.065  14.099 -0.0913 -0.2308 -0.1696
21190W        W37324   5.467  12.845   2.255  0.2810 -0.1547  0.0907
21191W        W37325   9.974  16.654  11.705  0.0693 -0.0369  0.3965
21192W        W37326   4.912   9.894  13.334  0.1284  0.0917 -0.1438
21193W        W37327   4.375   0.959  11.418  0.3658 -0.1390  0.1501
21194W        W37328   7.521   0.732  14.742  0.1285  0.1756  0.0273
21195W        W37329   3.646  13.245  11.644 -0.1638  0.1170  0.0228
21196W        W37330   9.868  14.655   1.605  0.0139  0.1711 -0.1292
21197W        W37331   3.702   3.281  14.279 -0.1012 -0.1199  0.0051
21198W        W37332   6.173  18.578   0.772 -0.0888 -0.2967 -0.1334
21199W        W37333   9.206   2.851  10.948 -0.1770  0.0030 -0.0993
21200W        W37334  16.408  14.288   4.327  0.1816  0.1564 -0.1786
21201W        W37335   1.422  12.986   4.391  0.3701  0.3802  0.0863
21202W        W37336   8.425   9.191  14.386 -0.0754  0.0508  0.2123
21203W        W37337  16.925  15.573   3.506  0.0249  0.4116 -0.0634
21204W        W37338   9.709  12.997   0.961 -0.0792  0.1184 -0.0199
21205W        W37339   9.030  18.640   2.376  0.1503 -0.0609  0.0065
21206W        W37340   5.826  11.975  12.091  0.3756  0.0160 -0.1612
21207W        W37341  12.520   9.079  13.708  0.4554  0.3579 -0.0131
21208W        W37342   7.909   5.942   2.219 -0.0049  0.0712  0.1673
21209W        W37343   3.087   4.174   1.284 -0.1953 -0.1135 -0.1882
21210W        W37344  12.612   4.502  14.787 -0.2623 -0.0811 -0.0601
21211W        W37345  12.142  16.533  13.086 -0.3906  0.1297  0.0817
21212W        W37346  12.880  16.039  10.004  0.2692  0.1771 -0.1312
21213W        W37347   5.711  12.367  11.223  0.4059 -0.0329  0.0269
21214W        W37348   2.251  12.172   4.925 -0.2641 -0.0647 -0.1820
21215W        W37349   9.507   1.658   3.805  0.1356  0.3575 -0.5576
21216W        W37350  17.916   8.204   5.304  0.1307 -0.1962  0.2654
21217W        W37351  17.921  16.103  13.432  0.3334  0.3511 -0.0966
21218W        W37352   5.828  11.553   4.550  0.0597 -0.0593  0.2291
21219W        W37353   3.507   3.466   3.357 -0.0541 -0.1346  0.1972
21220W        W37354   7.146   8.686  14.014 -0.2399 -0.0153 -0.0627
21221W        W37355  16.948  18.565   0.734 -0.3602  0.0595  0.1168
21222W        W37356  13.363   3.228   3.774 -0.0482  0.0251 -0.0177
21223W        W37357  14.648  11.437  13.639  0.0875  0.1346  0.0436
21224W        W37358   6.961   6.108  11.361 -0.1642  0.3926  0.0708
21225W        W37359  14.767   6.367  11.728 -0.1101 -0.1740  0.0339
21226W        W37360  11.070   7.554   1.424  0.2513  0.2751  0.1235
21227W        W37361  17.274   4.450   3.184  0.1636 -0.1486 -0.0672
21228W        W37362   5.194  14.773   3.800 -0.1147 -0.2770  0.0495
21229W        W37363  11.125   4.941  11.865  0.0624 -0.1884  0.2035
21230W        W37364   5.369  14.572   2.668  0.0394 -0.1844  0.0777
21231W        W37365  11.552   2.730   5.483 -0.1353  0.2789 -0.0478
21232W        W37366  13.823  10.433  10.592  0.3228 -0.1231  0.2042
21233W        W37367   2.307   2.929   3.384 -0.1162  0.1405 -0.1219
21234W        W37368   0.813   3.905  12.960  0.0589  0.0770  0.0330
21235W        W37369  13.007   7.033   2.578  0.2009 -0.2325 -0.1431
21236W        W37370   6.846   4.998   3.962  0.3188 -0.1287  0.1138
21237W        W37371   3.284  18.614  14.485 -0.3068 -0.1496  0.1220
21238W        W37372   4.860   4.434  10.710  0.3967  0.0994  0.1728
21239W        W37373   4.468  16.936  14.884  0.0771 -0.0278 -0.0202
21240W        W37374  15.792  10.880  14.365  0.0250 -0.5370 -0.0825
21241W        W37375   3.708   0.785   2.508 -0.0333  0.1798  0.0512
21242W        W37376  11.086   9.883  15.292  0.0228  0.1939 -0.0603
21243W        W37377   4.519  16.681  13.137 -0.1458  0.1574  0.3711
21244W        W37378   5.876   4.396  14.968 -0.0235  0.1025  0.3153
21245W        W37379  16.377   8.059   0.168  0.0058  0.0747 -0.3242
21246W        W37380  12.886   2.022   4.644  0.0997  0.0264  0.1730
21247W        W37381   0.098   1.347  14.986  0.0796 -0.0246 -0.0825
21248W        W37382   0.683   9.320   2.190  0.0390 -0.1322 -0.2706
21249W        W37383  15.978  15.942  11.809  0.2115  0.4534  0.1588
21250W        W37384   7.182   2.615  12.804  0.0966 -0.0053 -0.0766
21251W        W37385   4.088  10.522   5.686 -0.2098  0.1133  0.3473
21252W        W37386  11.374  18.349   3.311 -0.0699  0.3621 -0.0225
21253W        W37387   1.921  12.828  11.063  0.2944  0.1634 -0.2841
21254W        W37388  14.674   4.836  13.050  0.0617  0.1697  0.1629
21255W        W37389   3.621  10.680   5.915  0.1254  0.0102  0.0812
21256W        W37390  10.656   1.912  11.505  0.0777 -0.0919  0.0396
21257W        W37391  14.038   3.591   2.742 -0.0511 -0.0008 -0.1537
21258W        W37392  13.818  13.387  13.777 -0.4677  0.1636 -0.3756
21259W        W37393   1.431  15.013  12.787 -0.0744  0.1818 -0.0683
21260W        W37394  10.857  18.103   2.606 -0.2585 -0.2115  0.0825
21261W        W37395   9.286   3.180  12.259  0.2916 -0.0379 -0.0163
21262W        W37396   2.535  11.249   0.846 -0.2931  0.1853  0.0054
21263W        W37397   9.095  18.506   4.394 -0.0003  0.0321 -0.1784
21264W        W37398   3.912   4.842   4.673  0.2639 -0.1105  0.1907
21265W        W37399  11.582   9.017   4.475 -0.0140  0.2321  0.0760
21266W        W37400   1.257  10.398   3.247 -0.0634 -0.0278 -0.2128
21267W        W37401   6.144  14.670  13.340  0.0758  0.2206 -0.0358
21268W        W37402  13.762   5.833  13.541 -0.0888  0.0431  0.1448
21269W        W37403   1.014  15.869  10.733  0.1304  0.1305  0.0598
21270W        W37404  10.671  17.788  14.183 -0.0158  0.1389 -0.0691
21271W        W37405   5.217   7.133  13.568  0.0861  0.2390 -0.1172
21272W        W37406  17.405  14.528  12.205  0.1234  0.2285 -0.0477
21273W        W37407   4.349  12.825  13.245 -0.0320  0.1972 -0.0577
21274W        W37408  18.048   6.309  13.454 -0.1297  0.3804 -0.0315
21275W        W37409   9.235  15.996   3.704 -0.3461 -0.1088 -0.1385
21276W        W37410   7.104   5.584   4.114 -0.6742 -0.3341 -0.1187
21277W        W37411  16.636   4.820   0.525  0.1185  0.2050  0.1080
21278W        W37412   4.657   5.519   4.975  0.3690 -0.0692 -0.0196
21279W        W37413  12.341  12.619   3.244 -0.4993 -0.1207 -0.0483
21280W        W37414  10.304   2.392  15.347 -0.2261 -0.2472 -0.1653
21281W        W37415   9.322  10.955  14.847  0.0715 -0.4255 -0.0599
21282W        W37416   2.095   0.115  12.011  0.0327  0.1326  0.3032
21283W        W37417  11.232  10.297   2.439  0.1732 -0.1531 -0.4260
21284W        W37418  13.217   9.723  13.610  0.0523  0.2270 -0.1529
21285W        W37419   5.868   4.136   3.798 -0.0824  0.0548 -0.0847
21286W        W37420  11.747   2.246  13.747  0.1967 -0.2614 -0.0017
21287W        W37421   2.112  12.643   5.025 -0.1949 -0.0263  0.1246
21288W        W37422  10.281   0.169   5.050 -0.0181  0.1814  0.1719
21289W        W37423   6.437   9.418  14.807 -0.2807  0.0097 -0.1321
21290W        W37424   7.994   1.092   1.907 -0.1469 -0.1873  0.4134
21291W        W37425   8.963   1.101   2.286 -0.0483  0.4545 -0.1987
21292W        W37426   3.699   9.365  13.839  0.2238  0.0960 -0.0100
21293W        W37427   4.688   2.003  13.571 -0.1401  0.1941  0.0432
21294W        W37428   5.576   3.517   0.673  0.0371  0.2256 -0.0710
21295W        W37429   3.853   8.565  14.483 -0.0760  0.1143 -0.1519
21296W        W37430   1.380   3.420  15.526 -0.0164 -0.1337 -0.0395
21297W        W37431   8.141  14.662   1.307  0.1156  0.1466  0.0311
21298W        W37432  10.866   8.548   5.488  0.1246 -0.1924 -0.0049
21299W        W37433   8.376  10.095   2.132 -0.1565  0.0980  0.1495
21300W        W37434   1.862   3.790  15.536 -0.1572 -0.3026 -0.0972
21301W        W37435   1.024  10.372  13.207 -0.6356 -0.0909  0.4461
21302W        W37436  11.620  17.734  13.042 -0.0668  0.0718 -0.3084
21303W        W37437  16.678   9.072  13.127  0.0384 -0.0218 -0.0628
21304W        W37438  17.858   9.826   3.690  0.2144  0.0291 -0.2108
21305W        W37439   3.089   8.294   9.740 -0.1713 -0.4547 -0.0029
21306W        W37440  10.126   3.929  13.606  0.2284 -0.1303  0.1825
21307W        W37441  15.891  14.303   3.046  0.4204 -0.1094  0.0405
21308W        W37442   5.179   7.490   0.083 -0.0509 -0.1430  0.0175
21309W        W37443  17.006  17.834  14.028  0.1808 -0.3441  0.0972
21310W        W37444  11.724   9.455   9.699 -0.2256 -0.1779  0.1081
21311W        W37445  10.743   2.060   4.511  0.2546  0.0595  0.2758
21312W        W37446   4.821  16.491  14.733  0.0193 -0.2143 -0.2921
21313W        W37447  11.486   3.221  11.360  0.1463 -0.1523 -0.2422
21314W        W37448   0.373   0.486   5.940  0.2727 -0.0504 -0.2993
21315W        W37449   9.207  18.047   3.508  0.1521  0.2542 -0.1973
21316W        W37450  12.677   3.642   3.178  0.0625 -0.2890 -0.0828
21317W        W37451   4.288   1.606   3.375  0.0039  0.0892 -0.3172
21318W        W37452   1.977   8.503  13.525 -0.2101 -0.0083  0.4454
21319W        W37453  14.392  12.595   4.615 -0.1422 -0.0192  0.0473
21320W        W37454  17.345   3.405   1.817 -0.0408 -0.3311  0.0055
21321W        W37455   1.434   8.937   0.336  0.1324 -0.0388 -0.2051
21322W        W37456   7.173  13.137  13.810  0.2118  0.0508 -0.0223
21323W        W37457   0.701   3.450   0.833 -0.0504  0.2158  0.0127
21324W        W37458  16.057  17.786   3.627 -0.1378  0.0562  0.1939
21325W        W37459   2.510  10.774  13.520 -0.0164 -0.0204 -0.1353
21326W        W37460   0.060  12.409  12.413  0.0515  0.3239 -0.0663
21327W        W37461   1.603  10.468  10.854 -0.1325  0.0421 -0.3039
21328W        W37462   7.342   5.847   1.525 -0.2535 -0.3200 -0.2796
21329W        W37463  16.071   1.844   2.883  0.1318  0.1822  0.1142
21330W        W37464   7.814   5.801  12.617  0.2924  0.1595  0.0340
21331W        W37465   1.580  11.458  13.659 -0.2308 -0.4989  0.0044
21332W        W37466   6.053   7.386   4.457  0.0283 -0.0317  0.5320
21333W        W37467   2.010  14.686  10.739 -0.0521  0.0144 -0.1910
21334W        W37468  15.997   1.722  15.288  0.0491 -0.1649 -0.0319
21335W        W37469   4.796  16.295   3.662  0.1291 -0.1228  0.1072
21336W        W37470  16.805   3.275   2.814  0.0177  0.1059  0.0952
21337W        W37471  14.892   1.725  12.341  0.0422 -0.0991 -0.2319
21338W        W37472  13.165   3.570   2.339 -0.1160  0.1734  0.0898
21339W        W37473   2.326   1.635   5.175 -0.2057 -0.0163  0.0393
21340W        W37474   7.887   9.649   2.094  0.0594 -0.0775  0.3176
21341W        W37475   3.794   0.287  15.370  0.3459  0.2049  0.1343
21342W        W37476   3.433   9.030   4.275 -0.0998 -0.0743  0.1033
21343W        W37477  11.139  10.846   2.138 -0.0107  0.1559  0.0710
21344W        W37478  11.767   1.750   1.260 -0.0974  0.2552 -0.0531
21345W        W37479   8.210   2.291  12.216 -0.3021  0.0816 -0.1208
21346W        W37480  14.085  15.485   4.961  0.3003 -0.2089  0.1643
21347W        W37481   9.485  15.442   0.046 -0.1774 -0.2221  0.0737
21348W        W37482  17.083  11.884   2.282 -0.0393 -0.2941 -0.1303
21349W        W37483   6.238   3.962   1.449  0.1823  0.2575  0.5086
21350W        W37484   3.083   5.026   5.927  0.1192 -0.2234 -0.0007
21351W        W37485  14.025  15.838  14.558  0.0303  0.0445  0.0261
21352W        W37486  12.894   9.268  11.266  0.0995  0.0942 -0.1429
21353W        W37487  10.452   0.006  14.455 -0.0232 -0.1728  0.2381
21354W        W37488   1.200   7.641  14.587 -0.2502 -0.1727  0.0636
21355W        W37489   9.090   8.253   2.053  0.3068  0.0159  0.0406
21356W        W37490  10.343  12.856   4.498 -0.1820 -0.0118  0.1344
21357W        W37491   7.179  12.730  13.524  0.1560  0.2147 -0.0372
21358W        W37492  15.474   3.212  11.303  0.1128  0.0168 -0.0118
21359W        W37493  11.089   2.972  12.306  0.0121 -0.1897  0.3570
21360W        W37494   3.926  17.359   4.248 -0.3554  0.1512  0.3196
21361W        W37495   9.185  14.563   4.877 -0.0513  0.0470 -0.1236
21362W        W37496   7.306  15.687  15.094  0.0954 -0.2642 -0.2284
21363W        W37497  13.095   1.693   3.995  0.0205 -0.0088  0.3170
21364W        W37498   4.374   8.900   3.235 -0.0287 -0.0794 -0.0224
21365W        W37499   0.832   7.891   5.842 -0.0728  0.0103  0.0696
21366W        W37500   8.842   3.842  11.636 -0.1201 -0.1661  0.1868
21367W        W37501   8.264  15.922  14.628 -0.2907  0.1810  0.0467
21368W        W37502  14.241   3.016  11.513 -0.4435  0.0000  0.2995
21369W        W37503   4.921   8.913   4.361  0.0797 -0.0927 -0.2349
21370W        W37504   7.043  17.981   2.425 -0.0202  0.1488 -0.1402
21371W        W37505   5.752  18.005  13.427 -0.1144 -0.0368  0.3072
21372W        W37506  13.812  12.844   0.531  0.0370  0.0361  0.0101
21373W        W37507  17.690  18.157  11.180 -0.0551  0.1638 -0.1037
21374W        W37508   8.245   5.960   3.556  0.1694  0.0508  0.3016
21375W        W37509   9.272   2.902  14.339  0.0897  0.2511  0.0258
21376W        W37510  13.645  10.416   0.523  0.0157 -0.0094  0.0679
21377W        W37511   4.902   0.760  12.587 -0.2573 -0.1570 -0.1209
21378W        W37512  15.045  13.877  10.989 -0.2463 -0.2107  0.0993
21379W        W37513  17.013  15.309  12.068  0.0713  0.1380  0.0167
21380W        W37514  17.081  18.571   1.799  0.0280  0.0638 -0.3080
21381W        W37515  16.636  12.669   1.415  0.2975  0.1465  0.0723
21382W        W37516   4.076   3.855  14.795 -0.0732 -0.1657 -0.2161
21383W        W37517  17.301   1.242  10.773 -0.0644 -0.0497  0.1799
21384W        W37518  18.547   0.298   1.813  0.2120  0.0937  0.1559
21385W        W37519   6.233   5.436   2.843  0.3412 -0.1380 -0.1363
21386W        W37520   0.007   6.383   3.507  0.1748 -0.0160  0.0821
21387W        W37521  18.115  12.771   0.258 -0.2406 -0.3274  0.2295
21388W        W37522   6.943   3.476   3.676  0.0864  0.0772 -0.0836
21389W        W37523   1.384   6.806  12.762  0.0089 -0.0560 -0.0488
21390W        W37524   3.737  18.245  14.274 -0.0681 -0.0545 -0.0500
21391W        W37525  14.458   2.333   2.342  0.2994  0.2284  0.0913
21392W        W37526   9.106   3.707   5.527 -0.1295  0.0522  0.1508
21393W        W37527   7.613   8.959  15.485  0.0742 -0.0203 -0.0582
21394W        W37528  12.641  16.803   2.692  0.0086  0.0844  0.0846
21395W        W37529  18.116  17.996  12.933 -0.1913 -0.2270 -0.1098
21396W        W37530  15.562  11.260  10.927 -0.2668  0.1240 -0.4349
21397W        W37531  12.297   2.237  13.618  0.0351 -0.4297  0.5924
21398W        W37532   9.808   1.203   4.080  0.1266  0.1414 -0.0104
21399W        W37533   6.816   4.260   5.149 -0.0881  0.1104  0.2263
21400W        W37534   6.523  16.050  11.477  0.2491 -0.1340  0.3232
21401W        W37535  10.990   3.624   0.937  0.0245  0.1672 -0.0395
21402W        W37536  18.328   0.608  15.250  0.0099 -0.1001 -0.0585
21403W        W37537   0.088  11.591   3.001  0.0050 -0.1078  0.2118
21404W        W37538  18.379  10.841   2.740 -0.0476 -0.4056 -0.0923
21405W        W37539  12.719   2.448  11.889 -0.0284  0.1315  0.3469
21406W        W37540  12.008   1.839  13.396 -0.0785 -0.2066 -0.0792
21407W        W37541   6.852   8.538  13.579 -0.1767 -0.0677 -0.0105
21408W        W37542   7.262  16.161   4.946 -0.1377 -0.1913 -0.0906
21409W        W37543  10.523   2.853   0.030 -0.4210  0.0603 -0.1205
21410W        W37544   8.535   8.223   2.333 -0.1087 -0.0423  0.0735
21411W        W37545   5.882  18.280   1.021  0.0340 -0.0528 -0.1025
21412W        W37546   0.301  14.968   4.585 -0.0572 -0.1013 -0.1903
21413W        W37547  13.978   3.747   1.603  0.2861 -0.1683 -0.3584
21414W        W37548   2.121   7.427   3.290  0.0285 -0.2918  0.2628
21415W        W37549  17.341   5.203   5.317 -0.3120 -0.3777  0.4428
21416W        W37550   6.370   3.060   5.775 -0.0685 -0.4543  0.2608
21417W        W37551   4.588   1.742   2.865 -0.0804 -0.2441  0.0811
21418W        W37552  11.400  16.054   4.886 -0.1125 -0.0924  0.2394
21419W        W37553  11.772  16.233   3.886 -0.3322 -0.0424 -0.1784
21420W        W37554   8.746   1.772  11.293  0.0517 -0.1882  0.5557
21421W        W37555   1.830  12.556   4.119 -0.0212 -0.0575  0.1611
21422W        W37556  11.263  12.069  14.472  0.2457 -0.1395 -0.1626
21423W        W37557   4.423   7.305   0.623 -0.0980  0.0043  0.0113
21424W        W37558   7.088  13.487  11.972  0.4811  0.0538 -0.0567
21425W        W37559   6.044   6.337  15.296  0.0645  0.1505  0.1463
21426W        W37560   0.447   9.844  13.488  0.1904 -0.0887  0.1490
21427W        W37561  10.088  16.648   9.940 -0.2983 -0.1444 -0.0886
21428W        W37562   9.032   2.693   3.622  0.0682  0.3658 -0.3862
21429W        W37563   3.282   6.638   4.797  0.1341  0.0435  0.0936
21430W        W37564   0.862   6.406   1.794  0.1370 -0.2538  0.0411
21431W        W37565   9.804  18.412  14.000  0.3216 -0.1339  0.2278
21432W        W37566  17.667  11.238  11.486  0.0444 -0.3254  0.1746
21433W        W37567  14.961  16.117   5.457 -0.3389 -0.4222  0.0876
21434W        W37568  12.969   9.782   1.586 -0.0332 -0.1297  0.1928
21435W        W37569   5.680   1.576   4.076  0.1827 -0.2926  0.0878
21436W        W37570  18.128   9.482   4.970 -0.0087  0.2851  0.1463
21437W        W37571  13.643   3.163  12.266  0.0958 -0.1224 -0.0412
21438W        W37572   9.956  11.153  11.652  0.0552  0.3136  0.5812
21439W        W37573   4.437  10.582   3.112  0.1523  0.1561  0.1515
21440W        W37574   4.630  18.039   0.108  0.0953 -0.0454 -0.2508
21441W        W37575   6.547  11.142   1.438 -0.0046 -0.0351  0.0374
21442W        W37576   1.293   8.116  12.733 -0.1247  0.0838 -0.0999
21443W        W37577  13.333  12.494  12.637 -0.1446  0.1891  0.1688
21444W        W37578  14.963   1.476  15.199  0.0878  0.0850 -0.0866
21445W        W37579  16.057   7.687  10.464  0.1561  0.2153 -0.1557
21446W        W37580  11.192   9.634  11.263  0.0496  0.0244  0.0041
21447W        W37581  18.226   3.583  13.674 -0.1587  0.2705 -0.0184
21448W        W37582  16.659  17.806  14.406 -0.1853 -0.2997 -0.0269
21449W        W37583   3.224   3.663  12.319 -0.2703  0.0956  0.1112
21450W        W37584   9.371   6.735  11.506  0.0504  0.0028  0.0401
21451W        W37585   5.072   2.016  12.541  0.1072 -0.0084 -0.0972
21452W        W37586   0.963   4.417   1.899 -0.2169 -0.2807  0.0879
21453W        W37587  12.942   3.854  15.397 -0.0611 -0.2232  0.1295
21454W        W37588  10.779  18.046  15.177 -0.0010 -0.0115  0.2757
21455W        W37589   6.822  16.214  12.743 -0.5320  0.0228  0.1152
21456W        W37590  12.504   9.751   1.316 -0.0121  0.1863  0.1228
21457W        W37591  10.315   3.763   6.189  0.0905 -0.2409 -0.1692
21458W        W37592  12.091   6.467   4.548 -0.1492 -0.1590  0.2168
21459W        W37593   5.582  14.789   4.626  0.2231  0.1626  0.0358
21460W        W37594  11.756  15.094   0.052 -0.0466 -0.0989 -0.2763
21461W        W37595  18.458  15.690   5.038 -0.2552 -0.1390  0.0645
21462W        W37596  10.908  16.146   4.716 -0.7729  0.1050 -0.0226
21463W        W37597   1.733  14.130  13.865  0.4572 -0.0582  0.1130
21464W        W37598   7.815   8.362  12.808 -0.0131 -0.1942 -0.0917
21465W        W37599   9.961   6.770  10.616 -0.0238 -0.0836  0.3801
21466W        W37600  18.085   2.390  11.549 -0.1276  0.1985  0.2754
21467W        W37601  12.420   9.801  14.090  0.0798  0.1460  0.2005
21468W        W37602  16.185  15.501  13.861 -0.0859 -0.2259 -0.3301
21469W        W37603   9.921   9.525   0.492  0.1703 -0.1772  0.3172
21470W        W37604   3.808  11.297   0.724 -0.1460  0.0071  0.0903
21471W        W37605   1.861  12.977   9.707  0.1555  0.0179 -0.1275
21472W        W37606  13.618  16.443  11.583  0.0369 -0.0582 -0.3030
21473W        W37607   5.468   5.731   2.663 -0.0433  0.1041  0.2049
21474W        W37608  11.009  14.797   0.921  0.3203  0.0482  0.1162
21475W        W37609   5.655   4.436  14.526 -0.1448  0.3156  0.2760
21476W        W37610  13.293   4.052   1.081 -0.1771  0.0597 -0.2258
21477W        W37611   0.839   5.920  11.376 -0.0646  0.4166 -0.0815
21478W        W37612   4.778   3.601   2.508  0.1070 -0.1885  0.1560
21479W        W37613  18.274  12.194   1.445  0.2378  0.0097  0.4848
21480W        W37614   0.297  18.055  11.493 -0.4742 -0.0320  0.1773
21481W        W37615   7.412   5.685  14.242  0.0355 -0.0971 -0.2267
21482W        W37616   4.035  12.728  10.926 -0.2329 -0.1250  0.1314
21483W        W37617   0.027   5.022   3.223  0.1346  0.1617  0.1654
21484W        W37618  18.242   6.326   3.965 -0.1119  0.2703 -0.0969
21485W        W37619  11.492  17.415   3.792 -0.2137  0.2688 -0.0905
21486W        W37620   7.865  12.616  13.449  0.0335  0.1742 -0.2100
21487W        W37621  10.941  18.288   3.528  0.1141 -0.0934  0.1143
21488W        W37622  16.385   2.612  11.211 -0.1619  0.0433 -0.3457
21489W        W37623   6.211   4.995   2.332  0.4767 -0.1552 -0.3264
21490W        W37624  11.966  10.697   2.796 -0.4272 -0.0027  0.0032
21491W        W37625   4.351   7.210  14.429  0.0631  0.0508 -0.1813
21492W        W37626  17.803   1.446  11.536 -0.0254  0.0274  0.2324
21493W        W37627   0.417   4.633   0.075  0.0372  0.2786 -0.1171
21494W        W37628   7.825  13.305   3.929 -0.0056 -0.2004 -0.0844
21495W        W37629  17.525   7.671  11.750  0.0522 -0.0300 -0.0001
21496W        W37630   4.729   5.928   1.256 -0.3218  0.0247 -0.3943
21497W        W37631   4.482   0.455   4.321  0.0278 -0.0162 -0.1349
21498W        W37632  11.842   5.798   3.324 -0.2104 -0.0706  0.1287
21499W        W37633   5.739  11.450  14.521 -0.3262 -0.0989  0.0439
21500W        W37634  15.794  11.899  14.260 -0.1871  0.0974  0.0662
21501W        W37635  12.562   3.715  11.192 -0.1965 -0.0043 -0.2383
21502W        W37636   1.863  12.477   1.419 -0.0035  0.0402  0.3190
21503W        W37637  11.681  10.955  12.855  0.0958 -0.1911 -0.1909
21504W        W37638  12.369   2.929   2.509  0.1354 -0.0589  0.1458
21505W        W37639   5.638  10.465   4.688  0.2522  0.2059  0.1300
21506W        W37640   3.959   9.861   0.111 -0.0637  0.3965 -0.1608
21507W        W37641   0.415  13.226  14.550 -0.7222 -0.0303 -0.0307
21508W        W37642  13.384  13.942  13.778  0.2496  0.1822  0.0252
21509W        W37643   4.461  11.301  12.298 -0.0551 -0.2321 -0.0016
21510W        W37644  17.122  18.383  12.095  0.4295 -0.0283 -0.3963
21511W        W37645   3.536  10.726  12.153  0.0074 -0.0623 -0.2243
21512W        W37646   2.217  16.904  13.341 -0.0146 -0.1025  0.0972
21513W        W37647  17.574  10.501  12.912  0.1664  0.3137  0.3371
21514W        W37648   3.336  10.888  12.540  0.1471  0.1540  0.0566
21515W        W37649  17.243  16.185  14.570 -0.0115 -0.0363  0.1009
21516W        W37650   4.730   2.572   4.063 -0.0124 -0.1194 -0.0501
21517W        W37651  14.432   6.710  10.659 -0.1859  0.0372  0.1795
21518W        W37652   7.144   4.765  13.179 -0.4386  0.0829 -0.0059
21519W        W37653   3.730   5.588   2.660 -0.0192  0.1910 -0.2209
21520W        W37654  11.153  12.069   5.217  0.1253 -0.1128 -0.2339
21521W        W37655   3.911  12.202   3.985  0.1194  0.0737  0.0775
21522W        W37656   3.023   3.637  13.120  0.3933  0.0248 -0.1408
21523W        W37657  16.850   6.370   1.889  0.1065  0.1195 -0.0329
21524W        W37658  15.895   1.070  14.404 -0.1062  0.0417  0.0637
21525W        W37659  17.798  12.528   4.167 -0.1069  0.0456 -0.0434
21526W        W37660  11.558   7.914  15.232 -0.2505  0.1579 -0.2784
21527W        W37661   3.849  15.237   1.843 -0.2367  0.0365  0.2032
21528W        W37662  10.988  17.985  13.323 -0.1041 -0.2413 -0.4050
21529W        W37663   1.495   7.680  14.946  0.2608  0.0096 -0.1520
21530W        W37664  16.006  16.308   4.497  0.0923  0.1046  0.1997
21531W        W37665  13.115   3.651   0.327 -0.3235  0.0488  0.0531
21532W        W37666  13.877  15.061  14.923  0.1806  0.2154 -0.0414
21533W        W37667  13.173   8.324  12.762  0.0002  0.2411  0.0729
21534W        W37668   7.766   8.016  11.293  0.1968 -0.2023  0.1923
21535W        W37669   4.502  17.142  10.994  0.1575  0.0376  0.0170
21536W        W37670  18.020  10.548   0.751 -0.1244 -0.0039  0.1423
21537W        W37671   8.661   6.319  15.475 -0.0703  0.1778  0.0272
21538W        W37672  12.770   8.755   5.468  0.1648 -0.0350  0.0411
21539W        W37673  12.707  12.399  12.626 -0.1118 -0.2559  0.0437
21540W        W37674  18.344   9.745  11.113 -0.0708  0.2252 -0.4359
21541W        W37675   0.241  17.873  12.804 -0.0093  0.0774 -0.0003
21542W        W37676   7.249  13.787   4.333 -0.1374  0.1373  0.0522
21543W        W37677   7.198  13.844   5.296  0.0198 -0.1821  0.2888
21544W        W37678   9.045   2.884   5.834 -0.1401  0.1323 -0.0626
21545W        W37679   1.470   9.908   0.486  0.0824  0.2495  0.2821
21546W        W37680   4.202   2.080   2.090 -0.0514  0.5154 -0.0452
21547W        W37681   0.484  11.914  12.994  0.2901 -0.3069 -0.0150
21548W        W37682  11.826  15.139   1.937  0.3064  0.3162  0.1689
21549W        W37683  14.746  12.047   5.503 -0.2242 -0.3319 -0.0283
21550W        W37684   7.090  13.985   1.204 -0.1526 -0.0126 -0.1320
21551W        W37685  17.578  17.198   3.559 -0.3372 -0.3119 -0.2824
21552W        W37686   4.349   1.672  12.165  0.1233 -0.2756 -0.1417
21553W        W37687   5.237   6.839   5.761  0.1971 -0.1751  0.0849
21554W        W37688  12.217  11.647   2.677 -0.0025  0.0166 -0.0169
21555W        W37689  10.705  13.959   2.818 -0.1845  0.0848  0.0048
21556W        W37690  12.601  16.421   3.708  0.0675  0.0477  0.1119
21557W        W37691   3.358  18.079   3.519  0.2298 -0.2507  0.2878
21558W        W37692   0.483   0.960  14.988  0.1479  0.1650  0.0811
21559W        W37693  14.007  18.055  15.465 -0.2129 -0.1326  0.1889
21560W        W37694   3.516   0.642   5.608  0.0504 -0.1017 -0.3075
21561W        W37695   3.498   4.934   4.493 -0.0285 -0.2862  0.0706
21562W        W37696  14.738  10.660   1.708 -0.1578  0.1407  0.0512
21563W        W37697  17.709  18.120   2.357  0.1849  0.5211  0.2003
21564W        W37698  17.300  13.984   0.020  0.1437 -0.2492  0.0264
21565W        W37699   9.220   1.551   3.015  0.2359  0.1458  0.3385
21566W        W37700  13.173  15.625   4.976  0.0171  0.0024  0.2884
21567W        W37701  12.320   6.302  15.301  0.0380 -0.2240 -0.0360
21568W        W37702  10.204   3.155   0.242  0.0596  0.1262 -0.1559
21569W        W37703   7.912  14.359  11.051  0.1176  0.0632  0.1693
21570W        W37704   2.659   3.808  13.953  0.2913 -0.1474 -0.0078
21571W        W37705   8.213   6.506   2.584  0.3795 -0.0648 -0.0270
21572W        W37706   2.317  10.349  15.142 -0.4197  0.0694  0.0778
21573W        W37707  16.994  14.903  12.341 -0.0256 -0.2352 -0.1317
21574W        W37708  16.748   3.532   4.573  0.0787  0.0726  0.0725
21575W        W37709  16.024   7.418   2.337  0.1856 -0.0853  0.0176
21576W        W37710  12.583   9.001   3.841 -0.1210  0.0936  0.1021
21577W        W37711  11.675  17.270  12.890 -0.2814  0.4645 -0.0633
21578W        W37712  16.487   3.704   2.066 -0.1318  0.4236 -0.1088
21579W        W37713  12.324  14.947   0.770  0.0461 -0.0721  0.2059
21580W        W37714   9.012  11.221   0.924  0.0346  0.2901 -0.2166
21581W        W37715   8.809   4.006  12.718  0.0799 -0.1484 -0.1030
21582W        W37716   7.893   2.897  14.061 -0.0632 -0.0687  0.0246
21583W        W37717  17.355   8.206  15.348 -0.1646 -0.2252  0.0588
21584W        W37718   8.457  18.325  10.861 -0.1575  0.0539 -0.1981
21585W        W37719  17.587   5.474   2.648 -0.0131  0.0091 -0.0552
21586W        W37720  10.548  17.209   5.396  0.0549  0.1169  0.3831
21587W        W37721   4.517  10.527   3.963 -0.0784 -0.2786  0.2388
21588W        W37722   0.563   4.986   3.913 -0.1743 -0.0172 -0.3250
21589W        W37723   6.058   5.318  15.148 -0.0086 -0.4243  0.2030
21590W        W37724   9.719   7.352   2.690  0.2573  0.3998 -0.2130
21591W        W37725   1.138  10.218  15.148  0.2407 -0.0793 -0.0970
21592W        W37726  17.955   7.489   1.839  0.3643 -0.0214 -0.2327
21593W        W37727   4.913   0.623   2.323  0.1830  0.1233 -0.3429
21594W        W37728   2.388  16.798  15.362 -0.2044 -0.0624 -0.2909
21595W        W37729   3.922  18.393  14.686  0.1058  0.3312  0.1278
21596W        W37730  10.659   2.037   9.989  0.2648  0.0156 -0.1554
21597W        W37731  15.305   7.474   4.044 -0.1764 -0.0553 -0.0827
21598W        W37732   0.611  13.297   2.991  0.2175  0.1777  0.1615
21599W        W37733  11.971  15.511  15.238  0.1852  0.0792 -0.1332
21600W        W37734  15.477  10.999   3.291  0.0735 -0.0356  0.2983
21601W        W37735  13.882  14.523  14.811  0.1385  0.0767 -0.1063
21602W        W37736   9.130   4.073   3.836  0.0356  0.0577 -0.3476
21603W        W37737   4.563  16.683   2.526 -0.0165  0.0346  0.1782
21604W        W37738   3.467  13.183  14.801  0.0644  0.2415  0.1630
21605W        W37739  15.595  15.439  15.095  0.1902  0.1003 -0.1741
21606W        W37740   0.009   2.906   5.705  0.2066 -0.1976  0.0413
21607W        W37741   8.737  17.754  15.407  0.0626 -0.1970  0.3586
21608W        W37742  16.140   1.777  14.289 -0.1064  0.0878 -0.1466
21609W        W37743   0.959   0.767   3.656 -0.1359  0.1163 -0.0089
21610W        W37744   0.597  15.907  12.364 -0.1464  0.0390 -0.0265
21611W        W37745   0.360   2.567  15.134  0.1317 -0.0223  0.0412
21612W        W37746   3.828  14.307  11.891 -0.1345 -0.1267 -0.1121
21613W        W37747  11.475   5.076   2.837  0.2000 -0.0297 -0.0089
21614W        W37748  10.968  11.800  15.551 -0.0886  0.0102 -0.0457
21615W        W37749  16.942   5.155  12.996 -0.0616  0.1615 -0.3712
21616W        W37750  14.994  10.615  14.822 -0.1541  0.0502 -0.0164
21617W        W37751  10.821  11.334  12.642 -0.3122 -0.0746  0.0523
21618W        W37752  17.381   9.668  15.210  0.3603  0.0959  0.1017
21619W        W37753   1.508  10.827   0.986 -0.1679  0.1329 -0.2474
21620W        W37754  15.178   1.157  11.550  0.1341 -0.1154  0.2355
21621W        W37755   0.747   8.860  12.267  0.2136  0.1889  0.0251
21622W        W37756  12.228  10.710   4.330 -0.3895  0.1557  0.1221
21623W        W37757  15.615  17.103   1.949 -0.2112  0.6619  0.0826
21624W        W37758   8.219   0.490   4.370  0.2256  0.2452  0.2309
21625W        W37759  15.353   8.096   3.240  0.2367 -0.1504 -0.0192
21626W        W37760  11.273  17.699   4.990  0.1399 -0.0110 -0.0093
21627W        W37761  11.623  17.602  12.124 -0.2982 -0.0920  0.0399
21628W        W37762   1.619   0.145  14.219 -0.2134 -0.0858 -0.0681
21629W        W37763  13.018   9.106  14.548 -0.1166 -0.2185  0.3015
21630W        W37764   8.978  16.155   2.807  0.3135 -0.2801  0.1259
21631W        W37765   6.695   9.964  13.034 -0.1975 -0.4104 -0.0922
21632W        W37766   4.591  13.369  15.463 -0.1815  0.0863  0.0592
21633W        W37767  11.760  14.730  11.065  0.3784 -0.1392 -0.3053
21634W        W37768  12.000  14.536   0.734 -0.2128  0.3081 -0.0011
21635W        W37769   5.305   3.470   2.484  0.0558  0.1008  0.1041
21636W        W37770  15.008   3.805  11.177 -0.0744  0.0298  0.3421
21637W        W37771  11.554  15.232   5.287 -0.3026  0.0656 -0.2178
21638W        W37772  18.048  15.213  14.888 -0.1256  0.2112 -0.2120
21639W        W37773   8.200  16.001  10.791  0.2492 -0.0804  0.2044
21640W        W37774  11.477  17.882   3.626 -0.2600 -0.1561 -0.1346
21641W        W37775   9.511   6.988  12.879 -0.1276  0.0240  0.1780
21642W        W37776   8.401   3.701   9.908  0.0119  0.2454  0.1617
21643W        W37777   0.074  10.051  13.243  0.1387 -0.0641 -0.1875
21644W        W37778  16.975  14.484  13.150  0.0332  0.0472 -0.1531
21645W        W37779  16.836  11.151   2.794  0.0577 -0.5286  0.2677
21646W        W37780   3.615  10.634   2.404  0.0170  0.0614  0.0764
21647W        W37781  17.057  11.852  10.407  0.0265 -0.0775  0.0800
21648W        W37782  17.850  13.267   1.107 -0.1469  0.1689  0.1273
21649W        W37783   0.222   8.353   2.020 -0.0799  0.1689 -0.0020
21650W        W37784  15.647   3.009  12.213  0.3635 -0.4801 -0.1580
21651W        W37785   8.649   5.748  15.251  0.0972 -0.1182 -0.0684
21652W        W37786   6.667  14.443  12.719  0.1351 -0.2537  0.1814
21653W        W37787   4.703   1.810  11.228  0.2307 -0.0519  0.0349
21654W        W37788   5.172   3.884  14.112 -0.1941  0.0982 -0.1905
21655W        W37789   3.914   3.139  13.004  0.1088  0.1165 -0.0790
21656W        W37790  18.034  12.515  14.098  0.0194 -0.0155 -0.0256
21657W        W37791  12.168   2.930   3.370 -0.2392 -0.0730  0.2261
21658W        W37792   6.692   9.060  15.059 -0.1058 -0.1754 -0.2548
21659W        W37793   3.453  14.331  14.521  0.3059  0.0555  0.0314
21660W        W37794  14.100  16.223  13.275  0.2251  0.3388 -0.0018
21661W        W37795  11.719   1.227  14.743 -0.0544  0.0907  0.3112
21662W        W37796   6.610  15.515   4.583 -0.0126  0.0399  0.5196
21663W        W37797   7.117  16.435   0.749  0.0799  0.1390  0.2470
21664W        W37798  12.031  16.418  14.503 -0.1532  0.1705  0.0761
21665W        W37799   1.516   0.760   3.696 -0.1452  0.0065 -0.0536
21666W        W37800   4.358   8.419   1.110 -0.0634  0.0293  0.1712
21667W        W37801  12.942  15.710   0.867 -0.0119  0.3108  0.0094
21668W        W37802   3.224  10.659   1.358 -0.1102 -0.1285 -0.3120
21669W        W37803  17.128  14.021   1.540 -0.0717  0.1139  0.1468
21670W        W37804  15.195  16.668   0.440 -0.0382  0.5440 -0.0197
21671W        W37805  15.611   4.290   1.198 -0.3339  0.2085  0.0000
21672W        W37806  17.865   1.355   3.772  0.0475 -0.0044 -0.2267
21673W        W37807   6.131   7.491   1.351 -0.2851  0.0162 -0.1810
21674W        W37808  10.970   1.515  14.394  0.0078  0.1724 -0.1202
21675W        W37809  17.375  14.844   3.350 -0.0599  0.1452  0.3914
21676W        W37810  17.041   2.453   2.094  0.1209  0.0572 -0.0175
21677W        W37811  15.688  14.223  10.445  0.0401  0.0835  0.0460
21678W        W37812  10.181   0.473   3.705  0.0615  0.2104  0.0349
21679W        W37813  12.044   0.404  13.663  0.2556 -0.1084  0.0162
21680W        W37814  18.492  10.630   4.427 -0.1052 -0.0053 -0.0632
21681W        W37815  12.319   2.788   3.836  0.2123 -0.1250 -0.2491
21682W        W37816  15.832   8.293   3.428  0.0067 -0.3498  0.0205
21683W        W37817   1.672  10.278  15.048 -0.0951  0.1886  0.4543
21684W        W37818  16.995   3.375   1.481 -0.1506  0.0272  0.0453
21685W        W37819  14.969  18.144   3.906  0.1948  0.0083 -0.2174
21686W        W37820   6.406  10.108   5.001  0.1000  0.1196 -0.0211
21687W        W37821  11.554   5.036  12.102  0.0909 -0.1873 -0.1368
21688W        W37822   3.401   1.504   4.433  0.0552 -0.0053  0.0998
21689W        W37823  10.146   1.359  12.719  0.0296  0.1011 -0.4648
21690W        W37824  17.476  18.280   3.635  0.2255 -0.0674 -0.0237
21691W        W37825   7.576  15.153   3.474  0.1531 -0.0375  0.1046
21692W        W37826  18.667  17.205   0.163 -0.1457  0.0896  0.0022
21693W        W37827  10.507   0.625  13.254 -0.1939 -0.2431  0.0028
21694W        W37828  14.425  15.814   3.607  0.1841 -0.0377  0.1130
21695W        W37829  15.865   3.212  10.888 -0.2095 -0.2539 -0.0392
21696W        W37830   7.697  11.387  11.025 -0.1085  0.1566 -0.0755
21697W        W37831  13.625   8.564  10.495 -0.0218 -0.0706  0.0405
21698W        W37832  12.834  17.381   4.025 -0.5181 -0.2793  0.0406
21699W        W37833  14.237  17.577   4.553  0.0092  0.2665 -0.1679
21700W        W37834  16.239  14.076  12.921  0.1459 -0.2224 -0.0941
21701W        W37835   7.704   2.598  13.048  0.1570 -0.0140 -0.2556
21702W        W37836  13.391   2.334   0.499  0.1461  0.1052  0.1016
21703W        W37837  11.000   1.207   0.885 -0.0836  0.2893 -0.2400
21704W        W37838   8.847  17.020  13.941 -0.0884 -0.2037 -0.1261
21705W        W37839   8.513   1.468  13.392  0.0154 -0.0699  0.1021
21706W        W37840  15.089  15.275   0.688 -0.1490  0.3605 -0.1756
21707W        W37841   5.579  12.709   0.599 -0.1321 -0.0693  0.1194
21708W        W37842  10.856  14.572   1.353 -0.3097 -0.0596  0.1607
21709W        W37843   3.231  13.904  15.229 -0.0075 -0.4540  0.0719
21710W        W37844   3.259   3.662   5.034 -0.2279 -0.3298  0.0099
21711W        W37845  10.483  13.266  12.892  0.0122 -0.1847  0.1969
21712W        W37846  17.590  10.061  12.389  0.2630 -0.2814  0.0542
21713W        W37847  10.838  12.408   0.246 -0.3279 -0.2207 -0.0074
21714W        W37848   3.145  10.031  13.931 -0.1866  0.0167  0.1599
21715W        W37849  10.077  13.949  14.221 -0.2734 -0.3794  0.0643
21716W        W37850  18.111   7.834   0.426  0.0032  0.0158 -0.1507
21717W        W37851   2.496  12.282   2.819  0.1741  0.1420 -0.4659
21718W        W37852  11.387  17.085   2.998  0.0922  0.0637  0.1004
21719W        W37853  11.671  12.887  14.354  0.2454  0.0544  0.4692
21720W        W37854  14.454   6.200  12.768  0.1570 -0.1774 -0.0969
21721W        W37855  14.723   2.016   3.628  0.2397  0.1019 -0.0607
21722W        W37856   0.481  12.323  14.848 -0.1334 -0.2174  0.3211
21723W        W37857   6.695   4.965  12.275 -0.0865 -0.0874  0.0011
21724W        W37858  15.627   0.838  13.062 -0.0556 -0.2764 -0.0910
21725W        W37859  12.741  12.875  12.223  0.0506 -0.1182 -0.3417
21726W        W37860  17.823   2.552   1.855 -0.2651 -0.1631  0.2775
21727W        W37861  13.246  18.641   3.740 -0.1737 -0.2420 -0.0393
21728W        W37862   7.729   7.737  15.171 -0.1341 -0.2844 -0.3608
21729W        W37863  14.735   5.856  11.540 -0.0473  0.1686 -0.0420
21730W        W37864  12.052   1.636   9.897 -0.0182 -0.1425  0.0350
21731W        W37865  10.256   9.498   2.070 -0.1198 -0.0159 -0.2115
21732W        W37866  18.122   5.847  10.961 -0.1249  0.2925  0.0678
21733W        W37867   2.952  10.099   1.575  0.6246 -0.1754 -0.1889
21734W        W37868   3.118   3.252   4.843 -0.0033  0.0273  0.1356
21735W        W37869  16.999   6.440  10.924  0.1639 -0.0990 -0.1295
21736W        W37870  10.083   0.017   3.856  0.1338  0.0060 -0.3036
21737W        W37871   3.071   4.880   4.223  0.1632 -0.2922 -0.0482
21738W        W37872  15.265   3.009   1.212 -0.1303 -0.2066 -0.1302
21739W        W37873  12.656  16.406   1.158 -0.3218  0.3705  0.1113
21740W        W37874   5.075   3.994  14.574 -0.2183 -0.3090  0.0703
21741W        W37875   0.745  17.130   4.344  0.0427 -0.1069  0.1037
21742W        W37876  13.833  13.769   3.480  0.1724 -0.0244 -0.2061
21743W        W37877  14.676  14.553  13.832 -0.2198 -0.2767 -0.1124
21744W        W37878  10.943   7.903  13.719  0.0047 -0.3078  0.0682
21745W        W37879  10.630   4.079   3.516  0.2002  0.2160 -0.0681
21746W        W37880  17.444  17.219   4.900  0.0208 -0.0984  0.1268
21747W        W37881  11.808  10.288   9.563 -0.1177 -0.0738  0.0622
21748W        W37882   2.917   6.575  15.126 -0.1886 -0.2967  0.1436
21749W        W37883  14.601   8.714   4.192 -0.1401  0.0244 -0.1237
21750W        W37884  17.118  10.060  14.968  0.1394 -0.2021 -0.2155
21751W        W37885  15.841   9.955  14.841 -0.0191 -0.3030  0.0565
21752W        W37886   2.271  13.244   9.723  0.0402 -0.1102 -0.2204
21753W        W37887   7.282   1.977  12.440 -0.1290 -0.2030  0.0733
21754W        W37888   6.567  13.358  15.505  0.1189  0.1081  0.1206
21755W        W37889  18.486   3.670  12.629  0.0660  0.2735  0.1745
21756W        W37890   9.127   0.219  11.971 -0.0969 -0.2245 -0.1132
21757W        W37891  12.071  12.544  11.433 -0.2310  0.1578 -0.2801
21758W        W37892  11.078  14.958   3.690 -0.1613 -0.0778  0.1927
21759W        W37893   2.162   2.965   2.477  0.3878 -0.2819 -0.0088
21760W        W37894   7.136  14.454  14.989 -0.2451 -0.0417 -0.0786
21761W        W37895  14.250   0.656  13.642  0.0077  0.1627  0.0001
21762W        W37896   4.157   9.839   1.963 -0.1631 -0.1243 -0.1024
21763W        W37897   5.391   6.708   1.329  0.1761  0.0825  0.0604
21764W        W37898   8.752  10.351  11.912 -0.3122 -0.1542 -0.0976
21765W        W37899  10.111   6.893   4.143  0.1521 -0.2621  0.1056
21766W        W37900  17.342  10.495  14.715 -0.2866  0.1994  0.0589
21767W        W37901  10.795  12.710   3.741 -0.2280 -0.0726  0.0667
21768W        W37902   1.358  10.088  12.565  0.1032  0.1557  0.2055
21769W        W37903   3.137   2.154  15.012  0.0824  0.0487  0.1503
21770W        W37904   2.576   9.887   2.911  0.2194  0.1717 -0.0401
21771W        W37905   7.139   8.971  14.885 -0.1687  0.0610 -0.0193
21772W        W37906  14.558   6.864   4.145 -0.3582  0.0145  0.0832
21773W        W37907   5.942   5.034   0.780 -0.1688 -0.3118  0.1098
21774W        W37908   7.273   0.277  12.351  0.2100  0.0758  0.4548
21775W        W37909  10.647  12.629   1.478 -0.1402 -0.0159  0.2097
21776W        W37910   5.390   3.548  14.906  0.0972  0.0315  0.3440
21777W        W37911   2.992  14.419  12.895  0.3854 -0.0616 -0.0857
21778W        W37912   4.640  15.341   9.962 -0.1758  0.0292  0.1982
21779W        W37913   2.200   5.574   4.006 -0.1468 -0.0703  0.2166
21780W        W37914  12.885  11.892   2.071  0.0277  0.0391  0.1046
21781W        W37915   2.374   9.471   0.390  0.0357  0.1650 -0.1612
21782W        W37916   3.118  12.356  15.314  0.2307 -0.1348 -0.1976
21783W        W37917   5.911   6.520  10.652 -0.2789 -0.0630 -0.1393
21784W        W37918   7.583   9.447  11.089 -0.4609  0.0439  0.2110
21785W        W37919   1.915  10.692   5.192 -0.0581 -0.1229 -0.3998
21786W        W37920  14.549  10.452  14.519  0.0840 -0.0910 -0.0933
21787W        W37921   2.301   4.719   2.727  0.2120 -0.0190  0.0700
21788W        W37922  10.189  13.804  12.904 -0.4417  0.0481  0.0242
21789W        W37923   6.722  18.667   0.030  0.1100 -0.0211 -0.2416
21790W        W37924  11.918   0.426   3.858  0.0505 -0.0256  0.1368
21791W        W37925   5.547   5.848  13.274  0.0606  0.0326  0.0026
21792W        W37926  17.232  17.946  12.481 -0.1066 -0.1570  0.3890
21793W        W37927  13.351   3.028   2.872  0.0295 -0.3398  0.5884
21794W        W37928   0.743  15.446  12.541 -0.1442  0.0330 -0.0371
21795W        W37929  18.065   8.880  15.103 -0.2983  0.3801  0.1459
21796W        W37930   2.775   3.700  11.543  0.1286 -0.0897 -0.0957
21797W        W37931  10.473  14.161   4.279  0.0126  0.1354  0.3661
21798W        W37932   5.322  15.020   2.825 -0.0451 -0.1879 -0.1640
21799W        W37933  18.376   5.800   4.086 -0.1011  0.2784  0.1075
21800W        W37934   4.750  10.985  14.445  0.3307 -0.0872  0.0205
21801W        W37935   1.614   1.768  11.966  0.0575 -0.0381 -0.0438
21802W        W37936  16.643   0.249   0.054 -0.1847  0.3573  0.0339
21803W        W37937   4.165   9.386   1.543  0.0751 -0.0064 -0.0087
21804W        W37938   1.004   3.308  15.169 -0.4025  0.2167  0.1042
21805W        W37939   3.937  11.109   1.725  0.2103  0.1328  0.1500
21806W        W37940  11.050   3.358   1.617  0.0449  0.0436 -0.2654
21807W        W37941  10.503  11.426  14.470 -0.0604 -0.0626 -0.3576
21808W        W37942   7.068   3.297   4.102 -0.0240  0.1896 -0.0599
21809W        W37943   8.269   5.419  14.984 -0.2678 -0.0329  0.0969
21810W        W37944  14.717  17.001  12.378  0.3390 -0.3310 -0.1832
21811W        W37945   6.730  17.808  15.046  0.0104  0.0470  0.0082
21812W        W37946  17.809   4.626   4.147  0.0551 -0.0762 -0.3402
21813W        W37947  15.511   7.185   2.329 -0.3460  0.1201 -0.0667
21814W        W37948   0.290   4.776  12.264 -0.0000 -0.0854 -0.0341
21815W        W37949  11.848  13.570   4.005 -0.2897 -0.2552  0.1005
21816W        W37950   0.185   4.062   1.247  0.3531  0.2274  0.1450
21817W        W37951   6.150   8.947   5.726  0.0059  0.0698  0.1549
21818W        W37952   9.050  17.323  15.156  0.1159  0.1444  0.1540
21819W        W37953  15.543  12.740   2.932 -0.0633 -0.3406 -0.0081
21820W        W37954  10.096  18.445   5.122  0.0309 -0.0181  0.1919
21821W        W37955  18.114  11.109  11.613 -0.1378  0.1853 -0.1295
21822W        W37956  15.827   7.278   1.777 -0.0558 -0.2069  0.2862
21823W        W37957  16.635   1.713   5.230 -0.0613 -0.2075 -0.3728
21824W        W37958  16.655   8.050  12.523 -0.1462 -0.2314  0.1002
21825W        W37959   2.503   6.616  11.934 -0.0306  0.1167 -0.2939
21826W        W37960   5.207   0.207  11.648 -0.1139 -0.0400  0.1307
21827W        W37961   4.171   7.147   3.074  0.0576 -0.2125 -0.0623
21828W        W37962  18.247  15.690   4.496  0.0268 -0.2634 -0.0881
21829W        W37963  16.018   1.087   5.428  0.0425  0.1958  0.2765
21830W        W37964  11.940   3.975  14.097 -0.1487  0.1889 -0.4980
21831W        W37965   5.784   3.012  12.970  0.0453  0.3388 -0.1817
21832W        W37966   3.052   0.679   5.575 -0.0810 -0.2307 -0.1728
21833W        W37967  17.621  10.740   3.374  0.1502 -0.1357 -0.3975
21834W        W37968   9.091  10.147   4.135 -0.4335  0.0011 -0.1082
21835W        W37969  12.449   1.935   1.773 -0.1278 -0.1455  0.0462
21836W        W37970   7.058   5.985  14.426  0.0613  0.1406 -0.4069
21837W        W37971  16.150  13.633  12.093  0.1333  0.2087 -0.0168
21838W        W37972   6.754  16.625   5.215 -0.1963 -0.0535 -0.2078
21839W        W37973   6.365   8.638   3.842  0.0295 -0.2082 -0.1868
21840W        W37974   8.100   9.061  15.199  0.0597 -0.0514 -0.0473
21841W        W37975   7.763  12.043   0.746  0.1291 -0.3976  0.1262
21842W        W37976   3.502   4.258  11.082 -0.0094  0.0519 -0.2151
21843W        W37977   6.350   3.376  14.974 -0.1105  0.0031 -0.1781
21844W        W37978   4.706   6.741  12.987  0.0188 -0.1052  0.1981
21845W        W37979   3.977  16.297   4.777  0.3125 -0.0781  0.1680
21846W        W37980  16.065  15.209   1.976  0.1326  0.1047  0.3798
21847W        W37981   0.592  12.830   2.671  0.0256  0.1948 -0.0904
21848W        W37982  12.248   3.254  15.035  0.2934 -0.2582 -0.1555
21849W        W37983   2.245   2.228  14.941  0.1256  0.2566  0.0385
21850W        W37984   6.933   2.147  14.756  0.0941  0.3565 -0.3741
21851W        W37985  17.649  10.141   4.561  0.0724 -0.0224 -0.1413
21852W        W37986   8.502  13.415   3.505  0.2183  0.2781  0.0201
21853W        W37987  14.073  14.512  11.243 -0.1558  0.3859  0.0512
21854W        W37988  18.121  17.026   2.893  0.1960 -0.1720 -0.2090
21855W        W37989  11.502  12.788   1.112  0.1417  0.0448 -0.2281
21856W        W37990  18.372  11.857   0.731 -0.1051 -0.1093  0.0312
21857W        W37991   4.069   3.514  11.647  0.2618  0.1749 -0.0979
21858W        W37992  12.963   8.360  14.759  0.1996 -0.1766 -0.1906
21859W        W37993   3.255   8.213   1.138 -0.2165  0.1484 -0.0036
21860W        W37994  12.768   5.498   1.658 -0.2579  0.1172 -0.0463
21861W        W37995   2.879  11.309  10.853  0.1251  0.1917 -0.0069
21862W        W37996   6.862  11.029  11.743  0.0014  0.1594  0.2285
21863W        W37997   4.364   6.423   2.535  0.0618 -0.1808  0.3080
21864W        W37998  13.057  16.125  13.602 -0.2384  0.0121 -0.1325
21865W        W37999  14.130   5.931  10.795  0.1592  0.0231  0.0048
21866W        W38000  12.635   4.582  12.765 -0.3675 -0.3778 -0.0179
21867W        W38001   3.404   1.189   0.454 -0.0629 -0.1426 -0.0820
21868W        W38002  16.725   7.617   2.156 -0.2840 -0.0736 -0.0925
21869W        W38003   7.191   1.888  15.165 -0.1626  0.1021 -0.1357
21870W        W38004  14.086  14.147  11.607  0.1161  0.3036  0.1411
21871W        W38005  14.290   5.622   5.183 -0.2275 -0.0633  0.0891
21872W        W38006  17.629  11.746  15.479  0.0068  0.0578  0.0011
21873W        W38007  12.033   1.083  15.395  0.2586 -0.4024  0.1242
21874W        W38008  12.673   1.919   3.644  0.1059 -0.1676  0.0968
21875W        W38009   1.512  12.070   1.978 -0.2246 -0.1918 -0.4620
21876W        W38010  12.075   9.379   4.573  0.1483  0.1230 -0.0668
21877W        W38011  13.944   8.643   3.862  0.1255 -0.0415  0.1669
21878W        W38012  10.404   7.759   3.717 -0.1589  0.0663 -0.2073
21879W        W38013  18.520   9.286  13.745 -0.0247  0.0171  0.4403
21880W        W38014   0.238   4.941   0.417  0.1719  0.1092 -0.3488
21881W        W38015   3.900   5.438   0.796  0.3272  0.2210  0.0563
21882W        W38016   5.941   3.870   0.016  0.2443  0.0820  0.1979
21883W        W38017   1.502   3.791   4.236  0.4005  0.1579  0.1268
21884W        W38018   7.532  10.518   3.138  0.0386 -0.1974  0.1839
21885W        W38019   3.458  11.894  14.534  0.1272  0.1284 -0.1577
21886W        W38020  14.331   8.989   4.843  0.2268  0.3524 -0.1218
21887W        W38021  14.572   7.614  12.668  0.1222 -0.1832  0.1009
21888W        W38022   9.698   1.271   0.252 -0.2257 -0.0136 -0.0331
21889W        W38023   1.071   3.671  13.808  0.0859 -0.0499 -0.3299
21890W        W38024   8.335  17.505   4.126 -0.0364  0.1347 -0.2604
21891W        W38025  13.570   5.625   4.095  0.1964 -0.5089  0.0128
21892W        W38026  14.114  13.019  13.505  0.4426 -0.1528  0.1173
21893W        W38027   3.103   5.076  14.579 -0.0544  0.2306  0.0235
21894W        W38028   8.103  11.826  15.497 -0.1252  0.0129 -0.0473
21895W        W38029   0.361   2.957  10.135 -0.3240 -0.0368 -0.0831
21896W        W38030  17.498   5.725   1.074 -0.0440  0.0270  0.0544
21897W        W38031   0.751   9.477  12.055 -0.0058  0.1455  0.0894
21898W        W38032  10.455  16.747   3.590  0.1374 -0.0844  0.0466
21899W        W38033   8.811   0.632   3.176  0.0062  0.2541  0.2056
21900W        W38034  15.745  14.364  12.379 -0.1373  0.1659 -0.0227
21901W        W38035  10.106   9.531   2.570 -0.3257  0.0249 -0.0875
21902W        W38036  12.812   4.544  11.872 -0.2410 -0.3196 -0.1520
21903W        W38037   9.035  15.575   0.616 -0.0581  0.1075 -0.0333
21904W        W38038  13.876   3.737   3.700  0.2105  0.1942 -0.2010
21905W        W38039   9.253  17.979  11.319 -0.1419  0.1185  0.1638
21906W        W38040   1.182  10.600  12.477 -0.1470  0.0826 -0.1448
21907W        W38041   6.475  16.396   4.524 -0.1169  0.3534  0.2851
21908W        W38042   1.649  16.306  14.195  0.1403 -0.1317 -0.2915
21909W        W38043  18.411  11.765   2.561  0.2476 -0.1274  0.2783
21910W        W38044   6.666  13.577   0.447 -0.0728  0.0649 -0.1956
21911W        W38045   6.994  11.867  12.069  0.1607 -0.0060 -0.0152
21912W        W38046  14.991  13.983  11.513  0.0331  0.0555 -0.4074
21913W        W38047   5.553  12.438  15.076 -0.0942 -0.1513 -0.1596
21914W        W38048  16.323   1.632  13.720  0.1943  0.0700 -0.3359
21915W        W38049   5.689  11.021  10.390 -0.0672 -0.0710 -0.0446
21916W        W38050  11.741   4.524  13.376  0.0377  0.1420  0.0360
21917W        W38051   2.125  11.727   3.571  0.1509  0.1188  0.3090
21918W        W38052  16.677  18.461   2.725  0.4185  0.1826  0.1533
21919W        W38053  17.265   1.768  12.512 -0.5063  0.1192  0.1955
21920W        W38054  14.097   7.896   2.534 -0.1378 -0.1489  0.2447
21921W        W38055   6.576   2.520  14.850 -0.2996 -0.0610 -0.1217
21922W        W38056   5.411   2.285  12.186 -0.1307  0.1226  0.0471
21923W        W38057   6.505   7.745   9.935  0.2053  0.0483  0.2728
21924W        W38058  10.376  14.820  10.391 -0.1254  0.2506  0.0761
21925W        W38059  11.075  10.728   2.605  0.0203 -0.3113 -0.1070
21926W        W38060  15.820  17.678  11.861  0.4507 -0.0786 -0.1223
21927W        W38061  17.248  18.289   5.417  0.0004 -0.4857  0.1914
21928W        W38062  12.060  12.668  14.583 -0.2085  0.2178  0.3331
21929W        W38063  17.695   0.304  13.460 -0.1317 -0.0319  0.2672
21930W        W38064   5.429  11.788  13.599 -0.2480 -0.1354 -0.2231
21931W        W38065  17.095  18.673  10.480 -0.0258  0.4374  0.2246
21932W        W38066  13.619   5.089   0.187  0.2997 -0.0892 -0.2963
21933W        W38067   8.152   7.986   0.250 -0.2101 -0.1135  0.3751
21934W        W38068  18.054  13.645  11.762  0.1742  0.3031 -0.0612
21935W        W38069   4.760   2.188   1.953 -0.1544  0.1018  0.0098
21936W        W38070   8.228   0.552  12.196  0.2388 -0.0197 -0.0183
21937W        W38071   5.519   8.812  14.737 -0.0742 -0.2527  0.0746
21938W        W38072  12.739   4.698   2.087  0.1380  0.0493 -0.0374
21939W        W38073  13.088   8.678  15.280 -0.1645  0.0122 -0.0324
21940W        W38074   5.331  13.621   2.865 -0.1694 -0.1699  0.2206
21941W        W38075   0.479   9.848   3.389  0.2279  0.1321  0.0720
21942W        W38076  14.192  17.895   2.183  0.0221  0.0396 -0.2444
21943W        W38077  10.025   0.575   5.214 -0.4123 -0.3444  0.1555
21944W        W38078   4.338  17.990   2.735 -0.4212 -0.1127 -0.0199
21945W        W38079  13.807   5.304   3.767  0.2057  0.0352 -0.0119
21946W        W38080   3.837  12.753   2.549  0.1937 -0.2316  0.0574
21947W        W38081   4.297   6.643   0.007 -0.0242  0.1833  0.0596
21948W        W38082  15.496   0.800  11.501 -0.0667  0.2954  0.0702
21949W        W38083   5.435   5.379  11.911 -0.2565  0.0078 -0.1604
21950W        W38084  13.034   7.303  11.921  0.3137 -0.1409  0.0939
21951W        W38085  15.967   2.329   3.729 -0.0473 -0.1408  0.0985
21952W        W38086   6.798  17.233  10.318  0.3181  0.0674  0.1100
21953W        W38087   3.059  16.350  13.124  0.0157 -0.1542  0.2630
21954W        W38088   7.624   9.217   2.249  0.0425  0.1833  0.0581
21955W        W38089   6.069  14.288   4.727 -0.0613  0.0712  0.1625
21956W        W38090  17.960   7.770  13.589  0.0210 -0.1723  0.0817
21957W        W38091   8.232   9.530  12.708 -0.0035  0.0493 -0.0675
21958W        W38092  14.714  13.883   0.026 -0.1986 -0.1589 -0.1934
21959W        W38093   1.461   4.735  13.381 -0.0651 -0.1683 -0.0364
21960W        W38094   0.039  14.036   9.934 -0.1546 -0.1589 -0.3096
21961W        W38095   5.223   6.191   0.430 -0.0136 -0.1363  0.1722
21962W        W38096   7.463  14.549  11.310 -0.2442 -0.1795  0.0012
21963W        W38097   6.699   6.119   3.542 -0.0430 -0.1720 -0.0888
21964W        W38098  16.196  16.417  11.725  0.2037  0.2472  0.0101
21965W        W38099  14.612  14.904   5.486  0.1671  0.1191 -0.1477
21966W        W38100  10.836  11.971   4.459  0.2697  0.2424 -0.0220
21967W        W38101  17.679   0.898  12.828 -0.1915  0.0716  0.0481
21968W        W38102  11.403  11.050  10.576  0.1309 -0.0047  0.0406
21969W        W38103  10.806  14.468   3.568  0.1957  0.1691 -0.0432
21970W        W38104  13.205  14.524  11.529 -0.0343 -0.0496 -0.0556
21971W        W38105  12.922  11.953  10.973  0.2767  0.0707 -0.6056
21972W        W38106   8.623  17.504  14.633 -0.1683  0.2724 -0.4696
21973W        W38107  13.030   3.247  14.565 -0.1555 -0.1230 -0.0603
21974W        W38108   0.484   3.073   0.165  0.2007  0.1634  0.0173
21975W        W38109   9.134  16.529   0.217  0.1133  0.2061  0.2238
21976W        W38110   9.489  15.226   2.298  0.1301  0.1435  0.0910
21977W        W38111   0.145  16.554  12.704 -0.0959  0.2812 -0.1411
21978W        W38112  17.478  18.452  14.509  0.0827  0.0252  0.0043
21979W        W38113   3.781  16.907   4.378 -0.0588 -0.0688  0.1058
21980W        W38114   3.385   5.229  11.223  0.0880 -0.0727  0.0470
21981W        W38115  18.329  15.836   2.948 -0.0355  0.1605 -0.4562
21982W        W38116  10.026   1.181  13.645 -0.0968  0.1212 -0.2368
21983W        W38117   3.860  15.737  11.293  0.1145  0.1755  0.1349
21984W        W38118   6.761  17.390  14.259  0.2948  0.2067  0.1382
21985W        W38119   9.610   5.320   2.471  0.2234  0.1246  0.3355
21986W        W38120   7.738  12.452  11.325  0.1172 -0.0663  0.1547
21987W        W38121  12.999  12.341  13.986  0.0095  0.2416 -0.1662
21988W        W38122  18.291  14.482   4.661  0.0949  0.0261 -0.4591
21989W        W38123   0.944  14.096  14.398  0.4291  0.1565 -0.3643
21990W        W38124   5.973  16.287   4.311  0.0234 -0.0134  0.0709
21991W        W38125   5.178  18.688  15.266 -0.0314  0.0005  0.0166
21992W        W38126   6.279  10.230  13.887 -0.0852 -0.1600 -0.1491
21993W        W38127   1.493   4.611   5.940 -0.1875 -0.4292 -0.0452
21994W        W38128   5.604  17.207   3.432  0.0206 -0.1382  0.2248
21995W        W38129  14.228   0.428  12.430 -0.3260 -0.1943 -0.2735
21996W        W38130   2.249   9.975  13.816  0.0984 -0.2227 -0.3727
21997W        W38131  12.691   6.455  13.915  0.0710  0.1192 -0.1413
21998W        W38132   5.649   5.774   3.634 -0.2980 -0.1568 -0.0027
21999W        W38133  10.953  15.683   0.939  0.0791  0.1797 -0.1740
22000W        W38134   0.019  18.349   3.899  0.1082  0.0343 -0.1379
22001W        W38135   1.880   7.017  14.257  0.1465 -0.1152  0.0538
22002W        W38136   0.087   9.433  14.222 -0.1342  0.2626  0.0155
22003W        W38137   0.076   5.515   3.939 -0.1193 -0.2168 -0.0959
22004W        W38138  18.115   5.612  14.036 -0.1787 -0.3087  0.2388
22005W        W38139   1.952   7.104   2.919 -0.2290  0.3504 -0.1694
22006W        W38140   6.133   0.337  13.548  0.1563  0.2616 -0.1200
22007W        W38141  10.685  11.852   2.141  0.2060 -0.1429  0.0369
22008W        W38142   9.689   4.288   4.597 -0.3132 -0.0854 -0.2136
22009W        W38143   3.212  15.946  13.345  0.1238  0.1058 -0.0414
22010W        W38144   5.075   8.051  14.420  0.1811 -0.0050 -0.2819
22011W        W38145  16.833  12.492  14.710 -0.1509 -0.1340 -0.2001
22012W        W38146  13.698  13.705  11.474 -0.0590  0.0256  0.1331
22013W        W38147  17.675   2.637   1.355  0.2808  0.1581  0.0579
22014W        W38148  11.196   6.019  11.993  0.1568  0.1351  0.1567
22015W        W38149   9.114  16.401   4.727 -0.0137  0.0715  0.0555
22016W        W38150   3.038  12.181   1.323 -0.0503 -0.2135 -0.1281
22017W        W38151  13.846   9.409  12.006 -0.2285  0.2677  0.1163
22018W        W38152  10.153  14.838   5.311 -0.1277 -0.4642  0.1817
22019W        W38153   2.828   9.865  14.803 -0.2312 -0.2560 -0.2069
22020W        W38154  17.358  17.880   1.115 -0.2248  0.2034 -0.1852
22021W        W38155  11.787  18.489  12.354 -0.1088  0.0283  0.0759
22022W        W38156  10.265  14.317   0.331 -0.2541 -0.0639 -0.4432
22023W        W38157   5.179  16.504   3.248  0.0952  0.0633  0.3066
22024W        W38158   3.354   1.244  14.864  0.2246 -0.2302 -0.2359
22025W        W38159   4.535  13.382  14.973 -0.1138 -0.0745 -0.1990
22026W        W38160  12.997   3.155  13.001  0.0606  0.2345 -0.3954
22027W        W38161  14.743  10.217   1.291 -0.0414  0.1910  0.1609
22028W        W38162   8.327   0.701  11.599 -0.3902 -0.0934  0.0247
22029W        W38163   0.653  14.378   1.748  0.1196 -0.3294 -0.1598
22030W        W38164   6.374  16.839   2.071 -0.2878  0.1423 -0.3237
22031W        W38165   0.592  16.733  10.696 -0.2493 -0.2360 -0.0730
22032W        W38166   1.120   1.024   4.022  0.2759 -0.1590  0.0604
22033W        W38167  15.438  14.028  11.325  0.1640 -0.0116 -0.0847
22034W        W38168  10.264  15.342   1.860  0.2669  0.0488  0.3684
22035W        W38169   3.673   3.528  12.551 -0.0337 -0.1282  0.0311
22036W        W38170  18.521  13.543  11.619  0.0202 -0.2418 -0.2150
22037W        W38171   2.381   1.786  14.051 -0.1936  0.0292  0.1387
22038W        W38172  16.604   1.558  11.617 -0.0456  0.0282  0.1033
22039W        W38173  12.120   2.304   2.009 -0.0960  0.0530 -0.0614
22040W        W38174  16.489   1.991   1.841  0.1869 -0.1507  0.1050
22041W        W38175  11.488   9.532  12.937 -0.0443  0.2230 -0.0847
22042W        W38176  13.937   5.446   0.246 -0.3707  0.1036  0.1582
22043W        W38177   9.600   5.588   1.054  0.0472 -0.4513 -0.2121
22044W        W38178   5.017   3.093  10.608  0.1232 -0.0878  0.1104
22045W        W38179  15.362  10.497  11.134  0.2961  0.3988  0.1052
22046W        W38180   9.019   7.634   2.970 -0.2277 -0.3721 -0.0961
22047W        W38181  13.290   2.391   4.696 -0.0868 -0.1270 -0.0213
22048W        W38182   0.961  17.544  13.396 -0.0124 -0.3337  0.3681
22049W        W38183   4.409   7.554  11.343  0.2195  0.2534 -0.0396
22050W        W38184  13.203   0.926   1.021  0.0430 -0.3103 -0.0710
22051W        W38185  14.937  16.165   9.966  0.2306  0.0216  0.0993
22052W        W38186   3.398   7.587  13.551 -0.0209  0.3172  0.1348
22053W        W38187  11.209   5.073   5.984  0.3134  0.2502 -0.0325
22054W        W38188  17.943  17.978   1.641  0.2070 -0.0999  0.0224
22055W        W38189   1.231  15.397  13.540  0.3505  0.0049 -0.1365
22056W        W38190  16.446  14.727   2.637 -0.0875  0.0542  0.0547
22057W        W38191  13.693  18.076  11.599  0.1632 -0.1567 -0.0297
22058W        W38192  13.335   4.887  11.422  0.0081  0.1998 -0.2413
22059W        W38193   9.891   5.364   0.532  0.1846 -0.0599  0.3372
22060W        W38194  11.411   6.277  11.575  0.0900 -0.0115  0.1968
22061W        W38195   3.716   2.211  10.632 -0.1837  0.0589  0.1588
22062W        W38196   4.364  12.240   4.727 -0.0762  0.0290  0.0513
22063W        W38197   7.528  17.831   2.316  0.2711  0.0697 -0.0364
22064W        W38198  18.578  11.023  13.411  0.1150  0.3046  0.1425
22065W        W38199  12.518  17.445   0.163 -0.0235 -0.0793 -0.3889
22066W        W38200   6.718  14.375  15.344  0.1060  0.1560  0.1281
22067W        W38201  12.295  10.765  11.584 -0.2175  0.1715  0.0377
22068W        W38202  10.676   9.183   1.625  0.2147  0.3211  0.2996
22069W        W38203  13.157   7.587   4.379 -0.1941 -0.1819 -0.2252
22070W        W38204  17.035   7.844  11.544 -0.1406  0.0759  0.1700
22071W        W38205   5.885  10.989   4.140  0.2645  0.0612  0.1933
22072W        W38206   0.166   1.497  13.675  0.0821 -0.0751 -0.1026
22073W        W38207   0.680  14.748  13.039 -0.3051 -0.1901  0.1273
22074W        W38208  18.202   2.518   4.452  0.0222  0.1216 -0.1890
22075W        W38209  11.551  16.612   3.003  0.1250 -0.2997  0.0039
22076W        W38210   2.060  18.534  12.754  0.3245  0.1250 -0.3721
22077W        W38211  11.187   2.544   1.882  0.1764  0.3305  0.2521
22078W        W38212  16.314   1.143  15.340 -0.2009  0.0578  0.0218
22079W        W38213   7.760   4.634   2.548  0.1573 -0.0212  0.0134
22080W        W38214  14.575   8.029   2.717 -0.0561 -0.2098  0.2788
22081W        W38215  15.155  14.371  13.589  0.2142 -0.2855  0.0935
22082W        W38216   2.458  14.680   4.858  0.0272 -0.0228 -0.0232
22083W        W38217   3.399   9.704  12.024 -0.0945  0.2286  0.3358
22084W        W38218   8.988   9.297  15.045 -0.0774  0.0494  0.0903
22085W        W38219  14.908   6.951   1.936 -0.3116  0.3603  0.3602
22086W        W38220   8.857  11.970   4.921 -0.0598  0.1359 -0.1566
22087W        W38221   9.667  17.310  13.162 -0.0087 -0.1676  0.3430
22088W        W38222   6.812   7.599   1.524 -0.1235 -0.2386 -0.0472
22089W        W38223   8.421  15.016  10.808 -0.0202 -0.1917 -0.0807
22090W        W38224  16.416  12.048   4.830  0.1563  0.2535  0.2667
22091W        W38225   6.570  15.390   3.447  0.0827 -0.0177 -0.2023
22092W        W38226  15.127   4.720  13.219  0.2662 -0.2106 -0.1226
22093W        W38227   6.649  11.744   1.434  0.1441 -0.0628  0.0775
22094W        W38228   7.553   8.415  14.175  0.1201  0.1238  0.1175
22095W        W38229   0.139   6.467   2.421 -0.3177  0.1092 -0.0252
22096W        W38230   8.275  14.714   3.853  0.1915  0.1537 -0.2985
22097W        W38231   4.339  17.770   1.762 -0.0448 -0.3172 -0.2236
22098W        W38232   8.853  11.190  15.128 -0.2334 -0.0698  0.2370
22099W        W38233  15.227   6.891  12.463 -0.1163 -0.3243  0.1951
22100W        W38234   8.398   8.036   1.241 -0.1431  0.2218  0.0471
22101W        W38235  11.601  14.650   0.317  0.2663  0.0611  0.2540
22102W        W38236  14.945   3.300  11.384 -0.0485 -0.2680  0.3338
22103W        W38237   9.445  11.318   3.018 -0.4331 -0.0615 -0.0387
22104W        W38238  18.329  16.662   3.417  0.1120 -0.2140  0.4186
22105W        W38239   2.291  15.742  11.935 -0.1760  0.1928 -0.1376
22106W        W38240  12.711   3.167   5.396  0.1564  0.0702 -0.1236
22107W        W38241  18.240   8.109  15.378 -0.0480 -0.1844 -0.0435
22108W        W38242   3.243   1.612  10.685 -0.0364 -0.1315 -0.3269
22109W        W38243  13.278  16.064  11.788  0.1084  0.2788 -0.1490
22110W        W38244   4.284   6.526  11.270  0.1275  0.0014  0.1112
22111W        W38245  12.798  10.636   4.348  0.1676  0.0365  0.4398
22112W        W38246  10.143  10.874   5.517  0.0268  0.2717 -0.0369
22113W        W38247  17.797   9.400   1.599  0.0778 -0.2100 -0.2047
22114W        W38248  16.026  18.478  14.336  0.4031 -0.1067 -0.1791
22115W        W38249  15.690  11.678   5.340 -0.0321  0.1174  0.0016
22116W        W38250   4.422   9.495   2.176  0.1991  0.1702 -0.1293
22117W        W38251   4.431   1.628  12.642  0.2444  0.2615  0.2042
22118W        W38252   1.552  14.210   2.117 -0.2206  0.0881  0.2005
22119W        W38253   2.756  12.656  15.445  0.0910 -0.4412  0.1451
22120W        W38254   7.439   2.854   1.694 -0.1255 -0.0350 -0.0781
22121W        W38255   5.974  14.195  13.210  0.1318 -0.0682 -0.2138
22122W        W38256  12.177  17.078   1.063 -0.1493 -0.1818 -0.0409
22123W        W38257   9.579  10.571  15.291 -0.2455 -0.0464  0.1003
22124W        W38258   3.097   3.146   3.144  0.0195 -0.0594  0.0491
22125W        W38259   1.191   5.623   1.616  0.1247 -0.2685 -0.0979
22126W        W38260  15.572  17.883   9.576 -0.0191  0.0667 -0.0897
22127W        W38261  15.611  13.244  12.901  0.0456  0.1310  0.0815
22128W        W38262  12.697  12.380   0.243  0.0229  0.1941 -0.0658
22129W        W38263  10.908  14.259   5.444 -0.0498  0.0514  0.0807
22130W        W38264  11.202  10.194   3.404 -0.0060 -0.2691  0.0496
22131W        W38265   0.742  10.266   3.189 -0.1565  0.0763  0.1355
22132W        W38266  16.506   6.652  14.118 -0.2352 -0.4466  0.5217
22133W        W38267  12.930   1.374  13.153  0.3322  0.0763 -0.1167
22134W        W38268   7.275   8.737   5.642 -0.3499  0.0385 -0.0339
22135W        W38269   9.268   8.856  11.556 -0.1609 -0.0941 -0.0248
22136W        W38270   8.098  13.412  12.744 -0.0886 -0.4616  0.2515
22137W        W38271  18.272   4.082  14.810  0.1179  0.0054  0.0733
22138W        W38272   2.959   8.042   5.932  0.0472 -0.2027 -0.2967
22139W        W38273   1.924  12.988   1.590  0.1028 -0.2859  0.0610
22140W        W38274  15.543   6.535  13.062  0.1831 -0.2745 -0.2234
22141W        W38275   2.449   2.525   2.581  0.2795 -0.3660  0.1656
22142W        W38276  13.442   0.744  14.892 -0.1931 -0.1806 -0.1179
22143W        W38277  16.954  16.671   0.744 -0.1736  0.1027 -0.0649
22144W        W38278  14.373  13.600  13.665 -0.1652  0.0477  0.0749
22145W        W38279  17.151  13.863   4.627  0.0871 -0.1732 -0.2217
22146W        W38280  10.455  12.614   4.999 -0.2344  0.0106 -0.3196
22147W        W38281   0.768   7.999  14.439 -0.1034 -0.0782 -0.0022
22148W        W38282  15.651  16.363  11.681  0.0855 -0.0970  0.2472
22149W        W38283  11.450   6.512  10.603 -0.0453 -0.1978  0.4315
22150W        W38284  11.894   5.960  11.330 -0.1486 -0.3428  0.0152
22151W        W38285  16.056   0.861  10.568  0.3830 -0.0010  0.0597
22152W        W38286  16.170   3.080   3.385  0.4127 -0.0634  0.1260
22153W        W38287  11.791   1.341  13.893 -0.2861 -0.1304  0.1653
22154W        W38288   2.021   2.671   0.778  0.0258 -0.2639 -0.0145
22155W        W38289  18.694   6.050  13.720 -0.1575 -0.1653 -0.0228
22156W        W38290   0.423  16.274   3.073  0.2064 -0.0522  0.1579
22157W        W38291   2.308  17.331  13.669  0.2211 -0.0950  0.1381
22158W        W38292  14.505   6.664   5.823 -0.1191  0.1584  0.0288
22159W        W38293  18.429  17.639  13.079  0.1077 -0.1508 -0.0766
22160W        W38294  13.788   9.399   0.518  0.2249 -0.0125 -0.0369
22161W        W38295   8.435   9.989  14.531  0.3201 -0.1459  0.0676
22162W        W38296   2.642  14.202   4.754 -0.0428 -0.0142 -0.1079
22163W        W38297   2.783  17.720   4.214  0.1656  0.1247 -0.0343
22164W        W38298   2.385  15.197  13.784  0.1263  0.0434 -0.1486
22165W        W38299  12.033  17.558  12.687  0.1847  0.0490  0.2749
22166W        W38300  12.278  15.053   4.586  0.0794 -0.0679 -0.3954
22167W        W38301  17.329   4.217   0.574  0.0918  0.0656 -0.3539
22168W        W38302   6.969  17.833  15.523 -0.0429  0.0483 -0.0510
22169W        W38303  18.402   2.376   2.435 -0.1908 -0.1555 -0.1340
22170W        W38304  18.245  14.328  10.583  0.0532  0.0698  0.0341
22171W        W38305  17.105  11.824   3.191 -0.2037 -0.2067  0.4405
22172W        W38306   9.139   0.810   2.726  0.2258  0.1440 -0.2624
22173W        W38307   8.194   1.491   0.266  0.0508 -0.2220 -0.0536
22174W        W38308   8.900   8.699  12.049  0.0250  0.1398  0.2188
22175W        W38309   6.628  10.188  12.561  0.4946 -0.0788  0.1807
22176W        W38310   5.880   5.190  13.068  0.2380  0.1866 -0.0267
22177W        W38311   8.273   1.067  13.522  0.0129  0.1737  0.2288
22178W        W38312   4.256  17.032  10.556 -0.2686  0.0681 -0.4291
22179W        W38313   8.644  17.251   5.392 -0.0433  0.1914  0.1235
22180W        W38314   7.306  11.069  10.875 -0.2081  0.2221 -0.0710
22181W        W38315   9.659  17.583  15.260 -0.0726  0.3577 -0.2782
22182W        W38316   7.408   5.157  14.148  0.1217 -0.2042  0.0768
22183W        W38317   5.008   4.259   4.030  0.1935  0.0211 -0.1311
22184W        W38318   6.379   1.087   4.002  0.0309  0.0098  0.0694
22185W        W38319   8.237  15.142  14.179  0.1528  0.1420  0.0647
22186W        W38320   8.438   6.665  10.741  0.0440  0.0043  0.2643
22187W        W38321  18.534  14.447  12.772  0.3125  0.2643 -0.2147
22188W        W38322   3.561  16.098   0.998  0.1085  0.1451  0.0372
22189W        W38323  13.087  11.048   4.225  0.2955 -0.1988  0.0949
22190W        W38324  18.349   1.565   0.884  0.1238 -0.1608  0.3374
22191W        W38325  14.830   7.130   2.911 -0.2981  0.0841  0.1416
22192W        W38326  11.476  16.933   3.472 -0.1419 -0.0653 -0.0805
22193W        W38327  16.934   7.688   1.134  0.2309  0.0875  0.0850
22194W        W38328  16.782  11.940  10.817 -0.1092 -0.3426 -0.3202
22195W        W38329   3.871   0.211  12.636 -0.1458 -0.0014 -0.3635
22196W        W38330   7.581  16.242   4.536  0.0241  0.0024 -0.1664
22197W        W38331   0.304  16.889  12.114 -0.2336 -0.1328  0.0180
22198W        W38332   0.955  13.109  14.231 -0.0063 -0.2512  0.2802
22199W        W38333   0.768  14.587   4.632 -0.1107 -0.0981 -0.3388
22200W        W38334   2.310  12.250   1.564 -0.2002 -0.0128  0.3254
22201W        W38335   9.129  13.599   1.080  0.1049  0.3494  0.2723
22202W        W38336   9.681   0.154   2.320  0.0694  0.1983  0.1899
22203W        W38337   3.805   6.320   4.912  0.0375  0.4049 -0.0838
22204W        W38338   9.155  12.408   0.196 -0.4319 -0.1004  0.1369
22205W        W38339   3.937   9.815   1.244  0.1717 -0.1823  0.2596
22206W        W38340   8.107  11.758  12.329 -0.0075 -0.0033  0.0252
22207W        W38341  13.105   7.467  12.879  0.2589 -0.0963 -0.4815
22208W        W38342  16.298  15.592  11.280 -0.1633  0.2198 -0.0102
22209W        W38343  12.375   4.111  12.732 -0.1533 -0.0275 -0.3398
22210W        W38344   5.928   9.367   3.528  0.0350 -0.0566  0.4218
22211W        W38345  13.884  18.499   0.189 -0.0545  0.2559  0.2910
22212W        W38346  18.582   7.804  13.327  0.1316 -0.0948 -0.2315
22213W        W38347   5.403   4.588  15.223 -0.2270  0.2242 -0.1153
22214W        W38348  13.082  17.157   0.868 -0.2880  0.0133 -0.1953
22215W        W38349   8.962  12.992   4.941 -0.1981 -0.1004  0.0356
22216W        W38350  18.537   0.401  12.436 -0.0440 -0.1830  0.1747
22217W        W38351  10.504  11.310  15.562  0.1871 -0.0262 -0.3427
22218W        W38352   7.753  10.956   2.936 -0.1270  0.0625 -0.0449
22219W        W38353   8.361  10.088  10.593 -0.1312  0.0869 -0.1436
22220W        W38354  13.210   5.168  12.190  0.0804  0.0139 -0.0621
22221W        W38355  11.495  13.598   5.558 -0.0707  0.2311  0.2070
22222W        W38356  12.469  10.406  10.399  0.3081  0.5105  0.5069
22223W        W38357   6.910   0.131   3.694 -0.3375  0.0133  0.0115
22224W        W38358   3.328  14.592  14.121 -0.1205  0.3280 -0.5446
22225W        W38359   6.492  15.876  12.547 -0.0105  0.2609 -0.0268
22226W        W38360   8.398   0.368   0.755  0.0596  0.1157 -0.1121
22227W        W38361  18.406  10.169   2.086  0.0524  0.0484 -0.3147
22228W        W38362  17.306   7.756   2.239 -0.0358 -0.2998  0.3242
22229W        W38363  11.509  17.073  11.834  0.2031 -0.0940  0.0068
22230W        W38364   7.892   6.449   4.958  0.1407 -0.0699  0.0567
22231W        W38365   3.612   4.163  13.380  0.2169 -0.0391 -0.2729
22232W        W38366   7.178  14.926  12.959  0.1798  0.1109 -0.1414
22233W        W38367   9.789  12.346   1.962 -0.1422  0.2335  0.0917
22234W        W38368  14.774   9.732   1.659 -0.2320  0.0473  0.2509
22235W        W38369   2.870  15.685   3.366  0.3658 -0.0609  0.1985
22236W        W38370   6.524   4.219  13.148 -0.0662  0.0234  0.1346
22237W        W38371   0.912   1.167   1.768 -0.1287 -0.0294  0.2517
22238W        W38372   3.172   6.251  14.724 -0.1282  0.1220 -0.3802
22239W        W38373   7.997  15.359  13.648 -0.1019  0.1038  0.4756
22240W        W38374   8.383  11.051   2.102 -0.1901 -0.0355 -0.0263
22241W        W38375  17.398   4.726   4.590 -0.1725  0.2134  0.0696
22242W        W38376   3.874   6.394   5.547  0.0197  0.1009 -0.1990
22243W        W38377   1.293  18.411  13.142 -0.5186  0.0121  0.0181
22244W        W38378  17.861   1.124   0.233  0.0340 -0.1150 -0.2140
22245W        W38379   0.570   7.111  15.289 -0.2771 -0.2919 -0.0460
22246W        W38380  16.939   2.071  12.219  0.1497  0.0257  0.3088
22247W        W38381   1.132   4.375  13.636 -0.0931 -0.5284  0.0604
22248W        W38382   7.889   5.318  11.211 -0.4562 -0.0671 -0.0706
22249W        W38383  10.113  13.091   1.944  0.2324  0.0867  0.0791
22250W        W38384  10.486  10.106  15.385  0.0804  0.0505 -0.0245
22251W        W38385  14.445   1.202  13.022 -0.0069 -0.0696 -0.0531
22252W        W38386   4.601  15.801   4.473  0.1268  0.0393  0.2631
22253W        W38387  14.052   6.700  15.105 -0.1480 -0.0295 -0.0116
22254W        W38388   7.241  13.076   1.251  0.4287 -0.1055  0.0212
22255W        W38389   8.211  10.789  11.265  0.1957 -0.1162  0.0501
22256W        W38390   0.659   2.327  13.324  0.2235 -0.2120 -0.2828
22257W        W38391   8.933  12.711  11.712 -0.0701 -0.0170 -0.0334
22258W        W38392   0.607   9.245   1.706 -0.3363  0.2467 -0.3252
22259W        W38393   5.927  15.495  14.306 -0.2344  0.0927  0.4517
22260W        W38394  10.799   2.406  10.466 -0.0758 -0.0486 -0.3372
22261W        W38395   2.165  10.457   5.565 -0.0784  0.0612  0.1744
22262W        W38396  11.075  18.049   1.670  0.0886 -0.2256 -0.1194
22263W        W38397   8.966   1.340  13.970  0.3351  0.0024  0.3009
22264W        W38398   3.754   0.660   1.254  0.1322  0.1947  0.0689
22265W        W38399   3.880   9.680  11.110  0.3702 -0.0810 -0.1329
22266W        W38400  10.720  13.651   1.528  0.1787 -0.1531  0.1568
22267W        W38401  18.673  17.028   0.638  0.3180 -0.1041 -0.0770
22268W        W38402  14.277   8.206   0.828 -0.1983  0.1643 -0.0479
22269W        W38403  12.542  17.809  11.772  0.1291 -0.1496 -0.3487
22270W        W38404  11.954  14.062   1.559 -0.2447 -0.2730  0.1489
22271W        W38405   1.366   2.436   4.431  0.1141  0.2820  0.2263
22272W        W38406   5.960   5.427   5.396 -0.2383 -0.0118  0.2040
22273W        W38407  10.589   1.110   4.815  0.0280 -0.2040 -0.1079
22274W        W38408   5.234  16.409   3.837  0.3889 -0.0240  0.1539
22275W        W38409  15.025   5.838   0.890  0.2263 -0.2331 -0.1183
22276W        W38410  10.680  15.617   1.450  0.0143  0.0315  0.0944
22277W        W38411  12.517  12.302  10.696 -0.2104  0.2077  0.1632
22278W        W38412   6.366   6.171   3.090 -0.0544  0.2434 -0.1186
22279W        W38413   0.188  12.555  11.564  0.2612  0.0657 -0.1231
22280W        W38414   4.020   1.241  15.462 -0.3667  0.1974 -0.3383
22281W        W38415  11.659   9.574  14.496  0.1878  0.3090 -0.1668
22282W        W38416  11.206   6.341   1.114 -0.2388  0.2477  0.1455
22283W        W38417   7.363  14.612   2.063 -0.1248 -0.1862 -0.1421
22284W        W38418  13.204  12.904  10.855 -0.0610 -0.1087 -0.0697
22285W        W38419  10.868  10.875  13.505  0.0553 -0.2756  0.1184
22286W        W38420  18.004   2.036   2.729  0.0086 -0.1207  0.1350
22287W        W38421   9.173  14.563  11.310 -0.1519  0.0578  0.0379
22288W        W38422  18.332   5.201   2.519 -0.3005  0.1043  0.1546
22289W        W38423  10.421   6.961   1.114  0.4205 -0.0610  0.1081
22290W        W38424   4.893   3.930  12.556  0.1885  0.0780  0.2742
22291W        W38425  12.588   4.800   0.826  0.2609  0.2802 -0.1114
22292W        W38426   4.984  16.996  10.919 -0.4223  0.0897 -0.1399
22293W        W38427  11.370  11.065   0.453  0.1952 -0.1393 -0.1683
22294W        W38428   4.516   0.783  14.424  0.1345 -0.1746  0.1463
22295W        W38429  12.168  17.708   1.824 -0.2909  0.0595 -0.1739
22296W        W38430  14.988   2.283  11.061 -0.2304 -0.1450 -0.0723
22297W        W38431   1.044  15.613  12.174 -0.0793  0.0478  0.1951
22298W        W38432  10.377  13.242   2.899  0.3273  0.1674 -0.3066
22299W        W38433   2.340  13.144  12.733 -0.1963  0.0339  0.2064
22300W        W38434   8.125   4.589  15.254 -0.1907  0.1318  0.0253
22301W        W38435   3.176  14.487  11.706  0.0025 -0.3716  0.1750
22302W        W38436   3.127  17.069  11.477  0.0731  0.2310 -0.0388
22303W        W38437  15.564   1.523   2.346 -0.0762  0.0836 -0.1084
22304W        W38438  18.057  17.198   1.350 -0.1579  0.0863 -0.0876
22305W        W38439   1.098   8.105   2.893 -0.1894 -0.1762 -0.1267
22306W        W38440  12.611   3.499  14.689  0.0539  0.0814 -0.1453
22307W        W38441   9.399  16.849   0.689 -0.2753  0.0587  0.1920
22308W        W38442  10.442   4.901   3.955  0.0936  0.1367 -0.2600
22309W        W38443  16.355   0.957  14.785 -0.1866  0.1445  0.1908
22310W        W38444   9.548  10.476   5.093 -0.0467  0.1877  0.2803
22311W        W38445  17.153   0.682   1.915  0.1386  0.0164  0.1205
22312W        W38446   7.573  16.113  15.367 -0.0617  0.2287 -0.1079
22313W        W38447   7.051   6.496   3.756 -0.0556  0.1944  0.0885
22314W        W38448  10.245  14.674   0.641  0.1119  0.0553 -0.0759
22315W        W38449  13.660   0.024  14.426 -0.0402  0.0714  0.1671
22316W        W38450   5.324  16.770   0.157  0.1329  0.1272 -0.1097
22317W        W38451  18.437   3.589  11.795 -0.2094 -0.1684  0.0787
22318W        W38452   5.081  17.884   4.644 -0.0318  0.0715 -0.0662
22319W        W38453  10.476   2.133   1.688 -0.0240 -0.1348 -0.4548
22320W        W38454   2.643  14.869   1.677  0.0058  0.0819  0.1123
22321W        W38455   7.043   2.378  12.328 -0.1106  0.1372  0.0645
22322W        W38456  14.370  16.007  11.124 -0.1141  0.0177 -0.0594
22323W        W38457   9.101  14.176  10.536 -0.1538 -0.1815 -0.0283
22324W        W38458  16.538  15.085  15.071 -0.1903  0.1773 -0.1700
22325W        W38459  12.062  12.838   0.016 -0.0780  0.0008 -0.1601
22326W        W38460  14.120   1.158   2.217 -0.0338 -0.1879 -0.0312
22327W        W38461   2.980   4.328  11.689  0.1852 -0.1051  0.0094
22328W        W38462   1.068  13.622  11.552  0.0603  0.2218 -0.1218
22329W        W38463   0.982   7.480  12.166 -0.0330  0.2876 -0.0368
22330W        W38464   5.302   6.553   2.124 -0.0925 -0.1272 -0.1334
22331W        W38465   8.710  12.055   3.914 -0.2876  0.2571 -0.5189
22332W        W38466  18.678   3.111  11.445 -0.1137 -0.0696  0.1127
22333W        W38467   6.398   1.834   4.144  0.0352 -0.0907 -0.2407
22334W        W38468   3.756   1.131   2.106  0.3273 -0.0818  0.2420
22335W        W38469  13.866   8.330   2.463  0.0233  0.0743  0.2192
22336W        W38470  13.680   4.619  11.698 -0.5066 -0.0193  0.3099
22337W        W38471   9.885   9.662  10.086 -0.1090 -0.1039  0.1229
22338W        W38472   1.363  12.516  15.366  0.1751 -0.0932 -0.0007
22339W        W38473   2.732  13.366   2.367  0.2085 -0.2002  0.1195
22340W        W38474   4.975   2.240   0.707 -0.0080 -0.0491 -0.1547
22341W        W38475  15.454   2.533  10.599  0.0748 -0.1730 -0.0832
22342W        W38476   5.003  15.984  14.672  0.1809 -0.1673  0.0915
22343W        W38477   6.886  14.445  10.370  0.0520 -0.3540  0.0358
22344W        W38478  10.176  16.799   0.185 -0.0329  0.1590  0.4174
22345W        W38479   5.018   8.152  15.290 -0.3096 -0.1927 -0.3649
22346W        W38480   9.692  16.306   4.893 -0.2518  0.1867  0.3128
22347W        W38481  12.840   2.699   0.323 -0.2797 -0.0142 -0.0078
22348W        W38482   0.902  12.857   1.094 -0.0246 -0.1599  0.0751
22349W        W38483   7.710   3.784   4.333  0.1507 -0.0360 -0.2416
22350W        W38484  13.527  14.912   2.494 -0.0866  0.2798 -0.1506
22351W        W38485   0.146  15.769  14.482  0.2340  0.0069 -0.0490
22352W        W38486  12.380   8.686   1.627 -0.0837  0.0859  0.1600
22353W        W38487  11.509   7.965  14.289 -0.0708 -0.0843  0.2039
22354W        W38488  17.764   3.967  14.843  0.0446  0.2089  0.0246
22355W        W38489   9.438  16.072   4.522  0.1709  0.2029  0.2779
22356W        W38490  10.276   6.836  11.471 -0.0897 -0.3343 -0.0372
22357W        W38491   2.993   4.841  11.454  0.0109 -0.0744 -0.4905
22358W        W38492   7.264  16.898  12.643  0.0522 -0.0757  0.3263
22359W        W38493  10.925   2.620  15.351 -0.0522  0.2504  0.1516
22360W        W38494  14.958  17.653  11.750  0.1774 -0.3235 -0.0079
22361W        W38495   3.700   5.317   5.274 -0.2125 -0.2925  0.1246
22362W        W38496   2.286  11.458  12.247  0.0982  0.3540  0.2787
22363W        W38497  17.910   9.961  14.078 -0.0163  0.0471  0.0921
22364W        W38498  10.291   2.051  12.220 -0.0387 -0.1719 -0.4224
22365W        W38499  14.996   2.500   2.813  0.3455  0.0289  0.0255
22366W        W38500  11.028   1.682   2.173  0.1131  0.1054  0.1557
22367W        W38501  11.826   7.661   2.075  0.1434 -0.1730  0.0604
22368W        W38502  14.563  16.939   2.152  0.1295  0.0934 -0.0529
22369W        W38503   4.466  18.622   1.917 -0.0357  0.1113  0.1831
22370W        W38504   9.397   3.927   2.041 -0.0451 -0.1621  0.0507
22371W        W38505   9.294  16.068   1.304 -0.1206  0.0178 -0.0220
22372W        W38506  12.025  14.521  12.082  0.1324  0.1276  0.2063
22373W        W38507  16.191  10.343  11.448  0.0706  0.0040  0.1803
22374W        W38508   8.547  12.204  13.012 -0.1662  0.0651  0.0467
22375W        W38509  15.447   8.173  13.930 -0.2588 -0.0553 -0.3022
22376W        W38510  16.247   2.748  14.423 -0.1570  0.0773 -0.1102
22377W        W38511  11.058   6.529  11.316  0.0919 -0.0191 -0.1178
22378W        W38512  15.836  13.482  12.462  0.0475 -0.0364 -0.3355
22379W        W38513   3.683   6.835   3.461 -0.2812  0.1143  0.0777
22380W        W38514  14.512  17.902  11.993 -0.1555 -0.0567  0.0626
22381W        W38515   4.253   6.677   3.311  0.1819 -0.0275 -0.2113
22382W        W38516   1.386  12.310   1.580 -0.4483  0.1380 -0.0833
22383W        W38517   8.691   8.710   4.807  0.0550 -0.2410 -0.1995
22384W        W38518   7.238  16.286  11.599 -0.0598  0.0261  0.0146
22385W        W38519   2.305   8.395  12.450  0.0282  0.1856 -0.1951
22386W        W38520  12.631  17.355   1.928 -0.1853  0.1005  0.1486
22387W        W38521   1.369   9.078  15.137 -0.0247  0.1804 -0.2645
22388W        W38522   3.050   5.060   1.344 -0.0159 -0.0733  0.1640
22389W        W38523   1.123  15.181   1.773 -0.0879  0.0700 -0.1135
22390W        W38524  18.224  11.295   3.892 -0.0285  0.1837 -0.1724
22391W        W38525   2.480   5.968   4.321 -0.0382  0.0495  0.0991
22392W        W38526  18.706   6.961  13.621 -0.1146 -0.2000 -0.0269
22393W        W38527  10.759  14.553   4.108  0.1578  0.0026 -0.0729
22394W        W38528  12.206   7.649  13.637  0.1284  0.0206  0.2576
22395W        W38529   2.061  13.702   9.884  0.0575 -0.2037  0.2118
22396W        W38530   0.396   8.423   3.783 -0.0881  0.1344 -0.0342
22397W        W38531  16.288   3.353  11.066 -0.3035 -0.3561 -0.1257
22398W        W38532  15.857   4.210  12.728 -0.2548 -0.0764 -0.1969
22399W        W38533   0.764   7.744   3.066  0.0454 -0.4583 -0.2661
22400W        W38534  12.390   0.738   4.261  0.2251  0.3472 -0.0656
22401W        W38535   8.193   9.706   3.400  0.1335  0.0985  0.1393
22402W        W38536  18.537   1.289   3.062 -0.0472 -0.0823  0.0301
22403W        W38537   0.034   8.278   5.386  0.1744  0.0930  0.1390
22404W        W38538   4.553   6.054  12.656 -0.0666 -0.1036 -0.1931
22405W        W38539  11.343  17.373   2.301  0.1524 -0.0429  0.3029
22406W        W38540   2.389  17.932   0.995 -0.0618  0.5172  0.1346
22407W        W38541   1.016   9.994  13.551 -0.0083 -0.1804  0.1796
22408W        W38542   1.135   7.423   3.238  0.0197 -0.5846 -0.1911
22409W        W38543   2.669  16.488   3.729 -0.0180 -0.0580  0.2411
22410W        W38544  10.985  10.553  11.282  0.0344 -0.2541  0.1898
22411W        W38545   1.411   2.629   3.262  0.1658 -0.0653 -0.1979
22412W        W38546  10.145  12.314   3.720 -0.0068 -0.0773 -0.3170
22413W        W38547   3.563  16.228  11.983 -0.2859 -0.1537 -0.3665
22414W        W38548  12.554   4.403   9.993 -0.2737 -0.1188  0.1540
22415W        W38549  11.602   8.538   3.595 -0.1989  0.1573 -0.2097
22416W        W38550  16.421  11.104  15.553  0.3011 -0.2873 -0.0593
22417W        W38551  16.586  15.645  10.414 -0.0964  0.1594 -0.2178
22418W        W38552   3.999   0.391   2.543 -0.1905 -0.1458  0.0050
22419W        W38553  15.690  13.786  13.579 -0.2557  0.0425  0.0649
22420W        W38554  11.596   3.734   5.273 -0.2513 -0.3098  0.0755
22421W        W38555   3.604  15.194   0.416  0.0568  0.1984 -0.1127
22422W        W38556   9.255   6.182  14.532 -0.2206 -0.1925  0.1431
22423W        W38557   1.880   0.362   0.843  0.1149 -0.1987 -0.0662
22424W        W38558   0.067  10.741   2.346  0.1235 -0.0240  0.0429
22425W        W38559  11.796  16.598  11.102  0.0380 -0.3126  0.2524
22426W        W38560  14.875   8.025  12.480  0.1730 -0.1944  0.1204
22427W        W38561   2.823   6.303  11.604 -0.3291 -0.0300  0.1421
22428W        W38562   8.530   3.477  13.994 -0.2348  0.1838  0.2537
22429W        W38563  11.919  17.671  14.625 -0.2798 -0.1479  0.0276
22430W        W38564   7.374   7.535   0.289  0.1400  0.0427 -0.3048
22431W        W38565   1.629   6.451   2.486  0.0136  0.0633  0.1524
22432W        W38566  16.005   9.090   1.118  0.0369 -0.0949  0.3797
22433W        W38567   1.261  15.958  15.039 -0.1579 -0.0215  0.1113
22434W        W38568   6.942  11.323   2.772 -0.1604  0.1600 -0.0620
22435W        W38569  15.890  14.204  11.509 -0.2514  0.1067 -0.1989
22436W        W38570  13.070   1.847  14.457  0.0436 -0.1079 -0.1127
22437W        W38571  16.125  11.015   4.984 -0.0429  0.2142  0.1756
22438W        W38572   9.409  18.282   0.746  0.4173 -0.0624  0.4269
22439W        W38573   6.999   5.466   1.413 -0.1113  0.0101  0.0360
22440W        W38574   5.348   1.783   4.551  0.0131 -0.0522 -0.0106
22441W        W38575   7.031  10.441   0.817 -0.0855 -0.1277  0.1867
22442W        W38576  15.845   4.488   4.945  0.0704 -0.0910 -0.0391
22443W        W38577   9.818  17.016  14.504  0.0594  0.2463  0.2122
22444W        W38578   5.163  10.559  14.946 -0.3434  0.2634  0.1184
22445W        W38579  18.012  14.990   0.817  0.0575  0.3077  0.0191
22446W        W38580   1.070  10.732  15.209  0.0977 -0.2243 -0.1095
22447W        W38581   2.446   0.129  14.265 -0.1191 -0.2843 -0.0371
22448W        W38582   6.526  17.983  11.140 -0.1259 -0.0066 -0.0172
22449W        W38583  11.707   9.406   2.931  0.0541  0.2767 -0.1211
22450W        W38584   9.705  10.945   0.542 -0.0116  0.1898  0.1281
22451W        W38585   8.813  12.237  13.430 -0.1623  0.2372 -0.1055
22452W        W38586   0.771   8.536   1.651  0.3302  0.0253 -0.0397
22453W        W38587   0.333  11.481   4.270  0.2564 -0.0569  0.2039
22454W        W38588  18.550  14.345  14.180  0.1135  0.0142 -0.1996
22455W        W38589  10.129  17.493  15.203  0.0232 -0.4441 -0.0922
22456W        W38590  18.495   7.306   2.658 -0.0056  0.3743 -0.0420
22457W        W38591  17.333   0.229   5.528  0.0301  0.0716 -0.0292
22458W        W38592   3.073   6.991   2.639 -0.0248 -0.1553  0.0109
22459W        W38593   4.769  16.438   5.152 -0.0303  0.0972  0.0161
22460W        W38594   1.110   4.310   0.419 -0.2498 -0.2305 -0.2555
22461W        W38595   7.170   9.496   0.141 -0.2439 -0.1255  0.1675
22462W        W38596   2.069  18.045  12.973  0.1494  0.0016  0.0299
22463W        W38597  17.678  17.343  11.643 -0.0767 -0.0023 -0.0094
22464W        W38598  14.659  16.806  11.627 -0.1164  0.0097  0.1208
22465W        W38599  11.143   7.175   5.423 -0.1574 -0.3240 -0.0411
22466W        W38600  16.137   9.058   0.149  0.1313 -0.0442  0.3665
22467W        W38601  18.528  11.224   2.342  0.0616  0.0891  0.1261
22468W        W38602  12.722   0.272   4.269  0.1285  0.0417 -0.2652
22469W        W38603  11.834   7.859  12.808 -0.1809  0.0831  0.2114
22470W        W38604   7.462  16.742   0.855  0.1347 -0.0999  0.1292
22471W        W38605  17.100  11.371  13.978  0.1626 -0.1260  0.1547
22472W        W38606  16.099   6.951   2.105  0.1618 -0.0657  0.0739
22473W        W38607  15.446  17.646   4.938 -0.2051  0.1428 -0.1895
22474W        W38608   9.065   5.905   3.554 -0.2889 -0.2463  0.1839
22475W        W38609   7.681  10.525   1.827 -0.0718 -0.4762 -0.1028
22476W        W38610   1.048  17.629  10.850  0.1785 -0.0197  0.0409
22477W        W38611   4.196   0.720  10.885 -0.1531 -0.1995  0.2418
22478W        W38612   2.939   7.784   4.157 -0.1369  0.1426 -0.1217
22479W        W38613  15.138  12.933   4.196 -0.0446  0.0929  0.1649
22480W        W38614  18.692  13.513   5.554  0.1411 -0.0201  0.4557
22481W        W38615   8.771   6.767  15.016  0.1302 -0.1564  0.2387
22482W        W38616  10.536  15.380  11.806  0.1816  0.0503  0.3418
22483W        W38617  11.495  17.163  12.397  0.3184  0.2910  0.0166
22484W        W38618  16.045   5.135   4.952 -0.3141 -0.0350 -0.1142
22485W        W38619   7.949   8.273   1.463  0.0524 -0.1363 -0.0314
22486W        W38620   3.340   3.968  13.774 -0.1406  0.0495 -0.2035
22487W        W38621   3.232  17.140   1.071  0.2691  0.4004 -0.0409
22488W        W38622  16.073   3.423  13.871 -0.2045  0.4967 -0.2497
22489W        W38623  13.905   3.001  12.949 -0.1943 -0.2274 -0.0625
22490W        W38624   5.862   9.132  15.036  0.2406 -0.4451 -0.2388
22491W        W38625  15.453  17.541   0.396 -0.1090 -0.0305  0.1153
22492W        W38626  17.333   4.174  11.740  0.0041 -0.1792  0.1656
22493W        W38627   9.275  10.594   2.777  0.0129  0.2378  0.0493
22494W        W38628  14.131   3.092  10.019  0.0480  0.0138 -0.1854
22495W        W38629   4.947  11.058  10.918  0.1887  0.1374  0.0884
22496W        W38630  17.262   5.899  14.479  0.0720  0.2749 -0.2981
22497W        W38631   7.603   1.660  14.890  0.0957 -0.1815  0.0248
22498W        W38632   0.166   5.356  13.790 -0.1517  0.1220  0.1040
22499W        W38633   6.486   8.616  12.439  0.2554  0.0892  0.0463
22500W        W38634  12.648   9.926   0.846 -0.0712  0.0227 -0.3574
22501W        W38635  18.114   1.648   4.712 -0.1342 -0.2196  0.2637
22502W        W38636  13.282   9.040   0.503  0.0399  0.1843  0.2410
22503W        W38637   6.028   7.262   0.355  0.3564  0.1009 -0.0073
22504W        W38638  18.145   5.920  11.830  0.0707 -0.1498 -0.1263
22505W        W38639  12.669   4.940   1.654 -0.0856  0.5030  0.0034
22506W        W38640  15.751   8.454   1.815  0.2623  0.3400 -0.4626
22507W        W38641  12.861   1.814   0.491 -0.2909  0.2876 -0.0237
22508W        W38642   9.337  12.881   3.548  0.0121 -0.0100  0.0825
22509W        W38643  15.553   8.732  13.163 -0.0989  0.2065 -0.2645
22510W        W38644  16.562  14.788   5.202 -0.1619 -0.0251 -0.2987
22511W        W38645  17.836   5.472  15.562  0.0577  0.2046 -0.1906
22512W        W38646  11.520   9.691   5.072  0.1472  0.1487 -0.1161
22513W        W38647  10.626  15.854   3.624 -0.1914 -0.3995  0.1492
22514W        W38648  14.261  15.627   2.658 -0.0071  0.0036  0.0471
22515W        W38649   4.044   9.658  12.304 -0.0371 -0.4018 -0.0085
22516W        W38650   5.919  11.806   3.540  0.0307 -0.0879  0.5470
22517W        W38651   2.793  13.464  12.587  0.0760  0.0213  0.4204
22518W        W38652   4.298   0.436  14.145  0.1347 -0.0701 -0.2315
22519W        W38653   7.861  13.386  14.672 -0.1724  0.0919 -0.1708
22520W        W38654  16.425   6.409   2.765 -0.0232  0.2088 -0.2641
22521W        W38655  18.316   2.466  14.063  0.2034  0.1188  0.1815
22522W        W38656  12.693   7.322  13.435  0.1578  0.0596 -0.0429
22523W        W38657   4.514  12.937   4.124 -0.0848 -0.2184  0.1196
22524W        W38658  15.941  10.534  14.662  0.0545  0.1013  0.2121
22525W        W38659  18.292   6.278  14.311 -0.0611 -0.1959  0.0652
22526W        W38660   3.717  14.305  12.433  0.1783  0.1282  0.0770
22527W        W38661   9.702  11.802   0.430 -0.0940  0.0372  0.1109
22528W        W38662  15.435  15.909  11.932  0.3028 -0.1581 -0.1246
22529W        W38663   6.433  15.552   1.522  0.3994  0.0354  0.0522
22530W        W38664   3.587  17.658  12.271 -0.0736 -0.3350 -0.0565
22531W        W38665   3.755   6.407  12.776  0.1193 -0.3618 -0.2801
22532W        W38666   2.943  17.832  11.081 -0.1664 -0.0367  0.2937
22533W        W38667  13.010   0.455  14.089  0.1237 -0.0169  0.1305
22534W        W38668  12.938   0.727   3.448  0.1831 -0.0749  0.1837
22535W        W38669   1.952   5.682   2.819  0.0421  0.3098  0.1756
22536W        W38670   4.414  15.726   5.906 -0.3360 -0.0138 -0.5678
22537W        W38671   2.073   3.420   5.469 -0.3103  0.0447 -0.1221
22538W        W38672   8.798   7.230   4.244 -0.1031 -0.2564 -0.0767
22539W        W38673   9.370   6.063   1.102 -0.2748 -0.1624 -0.0508
22540W        W38674  13.287   0.050  14.056 -0.1730  0.1905 -0.1267
22541W        W38675   9.440  13.316   0.733 -0.3545 -0.0568 -0.1853
22542W        W38676   7.627   5.378  14.589 -0.0097  0.1823  0.0410
22543W        W38677  12.271  14.421   9.732 -0.0421 -0.0988  0.3233
22544W        W38678   3.702   5.823  11.835 -0.0694 -0.0190  0.1892
22545W        W38679   0.943  12.167   0.642  0.0943 -0.2992  0.1810
22546W        W38680   4.116  11.510   2.464  0.1525 -0.2521  0.1300
22547W        W38681  14.157   3.567   5.210 -0.1152  0.3245 -0.0173
22548W        W38682   6.560  11.560   5.063  0.1018 -0.1355  0.1299
22549W        W38683  16.609   4.293  11.077 -0.2034 -0.1045  0.3952
22550W        W38684  10.317  14.167  12.098  0.0209  0.0123  0.2159
22551W        W38685  10.956  15.897  15.185 -0.0998  0.1089 -0.1522
22552W        W38686  15.412   3.181  14.650 -0.0798  0.3656 -0.0245
22553W        W38687  13.025   3.282   4.775  0.0296 -0.2442  0.1685
22554W        W38688   3.007   3.371  15.181  0.1323 -0.1195  0.2919
22555W        W38689   3.267   3.219  15.557  0.1531 -0.2089 -0.0833
22556W        W38690  14.661  14.668  12.924 -0.2997  0.1054  0.0793
22557W        W38691   2.956  14.633   0.035  0.1226  0.0976 -0.0894
22558W        W38692  11.007  12.330  14.003 -0.1582 -0.1955  0.2123
22559W        W38693  10.023  13.198   3.626  0.0963  0.1292  0.1074
22560W        W38694  16.859   9.214   2.915  0.1005  0.0847 -0.0740
22561W        W38695  17.280  12.759   3.412 -0.4937 -0.0495 -0.0375
22562W        W38696   8.486   1.706   4.945 -0.3925 -0.0564  0.3240
22563W        W38697   4.734  15.918  10.694 -0.1736  0.0222 -0.0760
22564W        W38698  14.228   5.552  14.800 -0.0806  0.2001  0.0613
22565W        W38699  15.389  12.104  10.860  0.0366 -0.0172 -0.1052
22566W        W38700  14.107   4.992   3.513 -0.0775  0.1287  0.0587
22567W        W38701  11.683   4.819   2.338  0.0909 -0.1412  0.0008
22568W        W38702   5.349   7.234  10.593  0.0312 -0.1057  0.4311
22569W        W38703  12.065  11.073   3.937 -0.1336  0.1100 -0.0906
22570W        W38704   1.308   2.165   1.126 -0.2079 -0.1550  0.1357
22571W        W38705  18.283   4.236   1.740 -0.0625 -0.1213 -0.0820
22572W        W38706  16.625   7.678  14.875 -0.0690 -0.1499 -0.1109
22573W        W38707  14.012  15.482   2.119 -0.1014  0.0598 -0.0089
22574W        W38708   4.652  13.733  11.744  0.0548 -0.1352 -0.2295
22575W        W38709   8.498   6.077   0.678  0.2075  0.1625 -0.0247
22576W        W38710   3.379  14.057   0.526 -0.1062  0.3608 -0.0529
22577W        W38711   8.979  15.531  11.309  0.1607 -0.0542 -0.0318
22578W        W38712  16.645  12.245  13.091  0.0495  0.2009 -0.2750
22579W        W38713   2.912   0.224   5.670 -0.2042 -0.0560  0.0139
22580W        W38714   2.698   0.625  12.941 -0.1928  0.0432 -0.1780
22581W        W38715  16.087   1.581  11.018 -0.2798  0.0582 -0.2603
22582W        W38716  14.791   9.698   0.044 -0.4470  0.0350 -0.2564
22583W        W38717   2.095  11.500   1.618 -0.1315  0.0081 -0.3677
22584W        W38718  18.568  14.358   2.900 -0.1646  0.1524 -0.0705
22585W        W38719  15.636  17.402   2.353 -0.1572  0.2235 -0.3079
22586W        W38720   6.525   8.600   5.614  0.0466 -0.0414 -0.2911
22587W        W38721   7.406  17.241   4.181 -0.2273 -0.1018  0.1151
22588W        W38722   0.821   0.165  10.062  0.0750  0.0006  0.2927
22589W        W38723   8.625   8.448   5.319  0.4070  0.0964 -0.1435
22590W        W38724   4.545   8.119   4.174  0.2065 -0.2598 -0.0671
22591W        W38725  13.534  15.028  15.280 -0.0815  0.2660  0.2073
22592W        W38726  14.180   2.811  13.639  0.0176 -0.2559 -0.0894
22593W        W38727   7.624  15.749   0.908  0.0545  0.0393  0.1077
22594W        W38728  15.315  17.720   3.125  0.1442 -0.1549  0.0295
22595W        W38729   7.243  18.394  10.765 -0.1711 -0.1235 -0.1973
22596W        W38730   4.138   2.463   0.432 -0.4723 -0.0633  0.2371
22597W        W38731   2.581   8.104   3.918 -0.1961 -0.1313 -0.0280
22598W        W38732   9.900  16.788   4.934 -0.0951 -0.1248 -0.0476
22599W        W38733  10.158  16.204   4.957 -0.0373 -0.2607  0.0512
22600W        W38734   7.521  10.428   5.110 -0.3409 -0.0358  0.1260
22601W        W38735  18.169  16.353   3.874  0.2926  0.2861 -0.2834
22602W        W38736   7.107  14.190  11.292 -0.1471  0.1572 -0.3716
22603W        W38737  14.482  16.933   5.282  0.0922 -0.0894 -0.0291
22604W        W38738  14.680  10.324  15.268  0.0047 -0.4545  0.0905
22605W        W38739   0.823  15.055  13.602 -0.1694  0.0838  0.3039
22606W        W38740   7.555  17.640   0.243  0.0560  0.1283 -0.3119
22607W        W38741   0.468  15.132  10.800  0.1211 -0.1114  0.2333
22608W        W38742   0.823  13.876   2.569 -0.0939  0.0303 -0.1794
22609W        W38743   3.974   4.693   0.544 -0.0650 -0.1487  0.1731
22610W        W38744   6.252   9.980   0.915  0.0447  0.1025 -0.1923
22611W        W38745   9.421  13.423   5.122  0.1240 -0.4464 -0.0110
22612W        W38746  13.042   9.703  10.677 -0.2167  0.1121  0.1680
22613W        W38747   1.375   0.471  13.150 -0.0287 -0.0453  0.1757
22614W        W38748  17.494   8.945   0.236 -0.0227  0.0296 -0.0092
22615W        W38749   1.582  13.171  12.697 -0.0998  0.1342  0.0784
22616W        W38750   5.677  17.344  15.519  0.1064 -0.0632 -0.1460
22617W        W38751   7.346  11.725   4.649  0.1190 -0.1998 -0.0396
22618W        W38752   3.038  13.019  12.346  0.1810  0.2819 -0.2817
22619W        W38753  17.315  12.806   4.506  0.0706  0.1068  0.1769
22620W        W38754   3.645  11.335  11.212 -0.0856 -0.3004  0.1625
22621W        W38755  13.276   8.832   2.496  0.2270 -0.2889 -0.1609
22622W        W38756  12.529  15.836  13.569  0.1715  0.0058  0.1320
22623W        W38757  14.510  13.356  15.155  0.3104  0.4235 -0.1574
22624W        W38758   2.016  14.365  12.399  0.0384 -0.0749  0.0502
22625W        W38759   5.863   2.491   3.665 -0.1418 -0.0037  0.2321
22626W        W38760   3.853   2.542  13.889 -0.2914 -0.2684 -0.0946
22627W        W38761  13.128  16.337  11.367  0.1004 -0.0870 -0.0419
22628W        W38762   3.072  10.266  10.796 -0.0909 -0.2662  0.0711
22629W        W38763  13.684  18.475   4.003  0.1513  0.0378  0.2855
22630W        W38764   7.351   7.179  12.694  0.2958  0.0858  0.1905
22631W        W38765   6.740   9.446   1.332 -0.0976 -0.0035  0.0985
22632W        W38766  14.837   4.763   5.027  0.1416  0.1789  0.1348
22633W        W38767  17.109   6.135  13.394  0.1515 -0.0936  0.1618
22634W        W38768  13.478  10.986  11.345  0.1205  0.1608  0.0490
22635W        W38769  17.839   0.305   3.302  0.2428  0.1000 -0.0160
22636W        W38770   3.402   6.276  11.094 -0.3180  0.0578 -0.3190
22637W        W38771  14.575   5.076  13.599 -0.0519 -0.1184 -0.0395
22638W        W38772  11.274  10.300  12.301 -0.1573 -0.0891  0.1700
22639W        W38773  17.824   5.156   2.309  0.0184 -0.0231 -0.0304
22640W        W38774  17.609  17.468  12.162 -0.2201  0.0436 -0.4498
22641W        W38775  14.663  15.197   0.881  0.1416  0.0413  0.0167
22642W        W38776  11.771   6.925  15.548 -0.4587 -0.1357  0.0646
22643W        W38777  14.318   8.671   5.437  0.1644 -0.1451 -0.1319
22644W        W38778  17.910  10.234  13.337  0.3777 -0.2892 -0.1503
22645W        W38779  15.416  11.275  12.286  0.0822 -0.0083  0.4011
22646W        W38780   8.998   4.605   5.264  0.1286 -0.0765 -0.2529
22647W        W38781  13.938   4.542  15.162 -0.0422  0.1677 -0.1651
22648W        W38782  14.413   2.853   3.809 -0.0580 -0.0468  0.0960
22649W        W38783   4.342   6.959   4.806 -0.1409  0.2355  0.4401
22650W        W38784  10.519  18.454   2.542 -0.0607 -0.0850  0.2274
22651W        W38785   6.390  14.496   2.486  0.0051 -0.1075 -0.1355
22652W        W38786  11.232  15.620  11.039  0.2277  0.0868 -0.3022
22653W        W38787  11.727   5.171   1.459  0.2390  0.0074  0.0073
22654W        W38788  14.450  14.054  11.213  0.2195  0.1101 -0.2816
22655W        W38789  12.283  13.687  12.056 -0.2293  0.2883  0.1233
22656W        W38790  17.704   9.470  11.711  0.0650 -0.3343  0.1996
22657W        W38791   4.937  11.604  10.659 -0.0696 -0.2272  0.0393
22658W        W38792   3.129  14.834   0.927  0.0167  0.0787  0.0979
22659W        W38793   1.423  16.034  12.025 -0.0690  0.2324 -0.0662
22660W        W38794  12.276  11.688  11.861 -0.0747 -0.2154 -0.1837
22661W        W38795  10.395   2.585  12.258  0.0716 -0.3494 -0.0433
22662W        W38796   0.799   9.055  11.813 -0.3682  0.2696  0.1184
22663W        W38797  15.313  17.207  12.373  0.1902  0.1473 -0.0536
22664W        W38798   1.143  17.921  14.566  0.1613 -0.1584 -0.3544
22665W        W38799   0.330   4.791   2.896 -0.2060  0.0651 -0.0347
22666W        W38800   1.393   7.633  13.633  0.1502  0.0026 -0.0478
22667W        W38801   1.794   7.538   2.753 -0.2615 -0.0501  0.0156
22668W        W38802  14.757  12.493  13.687  0.3940 -0.3004  0.0277
22669W        W38803   2.120   1.748  14.781 -0.1095  0.1549  0.0511
22670W        W38804  15.939   2.813   2.878  0.3101 -0.0979 -0.0500
22671W        W38805   8.320  18.234   1.180  0.1515 -0.0349  0.1120
22672W        W38806   6.248  18.054   5.189 -0.0580  0.0678  0.1870
22673W        W38807  16.583  18.347  12.974 -0.2993 -0.1514 -0.0259
22674W        W38808   9.976   7.958   5.422  0.1068 -0.0981 -0.0611
22675W        W38809  10.751  14.699   1.879 -0.0350  0.0582 -0.1323
22676W        W38810   0.985   0.101   0.757 -0.3371 -0.0772  0.0106
22677W        W38811  14.546   0.284  12.827 -0.2845  0.1434  0.1882
22678W        W38812  10.375   7.791   1.942  0.1979  0.0794 -0.0464
22679W        W38813   3.661   1.582  13.913  0.2019 -0.0464  0.3701
22680W        W38814   2.621  17.672  13.849 -0.2621 -0.2103 -0.2843
22681W        W38815   6.377  12.120   3.725  0.8006  0.2202 -0.2045
22682W        W38816   0.495  11.950   3.040  0.0543  0.1496 -0.0759
22683W        W38817  15.619   8.101   3.837  0.1375  0.0945  0.2096
22684W        W38818  14.742   0.751  10.833 -0.3543 -0.1670  0.0199
22685W        W38819   6.586   4.715  11.437 -0.0373 -0.4468 -0.0078
22686W        W38820  15.992   3.143   0.555 -0.0351 -0.1781  0.0387
22687W        W38821  17.521  13.567   0.889 -0.2331  0.1794  0.1714
22688W        W38822   8.609   2.745  13.637 -0.0899 -0.2008 -0.2212
22689W        W38823  12.495   1.492   2.021 -0.3095 -0.0401  0.4375
22690W        W38824   3.556   2.126   1.334 -0.3642  0.0202 -0.1025
22691W        W38825   6.999  18.621   1.011  0.0462 -0.2355  0.3941
22692W        W38826  10.950   8.614  10.302  0.0550 -0.2339 -0.0874
22693W        W38827   9.355   0.928   1.584 -0.1350  0.2045 -0.3592
22694W        W38828  18.057   7.630  13.143 -0.2082  0.1651  0.0729
22695W        W38829   9.602  11.076  14.009 -0.2810  0.1116 -0.2181
22696W        W38830   2.125   8.813   2.985 -0.1167 -0.0049  0.3474
22697W        W38831   7.671  16.187   4.019  0.1205 -0.3841 -0.2534
22698W        W38832   0.064  11.111   2.724 -0.3399  0.0980  0.1320
22699W        W38833   5.986  16.077  12.945  0.1999  0.0987  0.1794
22700W        W38834  12.376  13.728   1.239  0.0100 -0.1129 -0.2145
22701W        W38835   1.009   7.230   1.080  0.0780 -0.0792  0.4247
22702W        W38836   6.285  15.105   1.778  0.0022 -0.3039 -0.2419
22703W        W38837   6.685   7.662   4.080 -0.2717  0.0072  0.0592
22704W        W38838   2.589  18.428   0.409 -0.2485 -0.2117 -0.0504
22705W        W38839   6.796   4.200  11.511  0.1136  0.0760 -0.1333
22706W        W38840   9.330  12.196  13.035 -0.0419  0.0622  0.2550
22707W        W38841  11.900   5.952  13.888  0.0361 -0.5882 -0.0238
22708W        W38842  17.018  18.368  13.980  0.1854 -0.0857  0.0203
22709W        W38843   2.358   3.840  11.767  0.2701  0.0848 -0.0956
22710W        W38844   4.496  16.191   3.203  0.1919  0.3587  0.1211
22711W        W38845   9.507  11.235  14.518 -0.1363  0.0466  0.0029
22712W        W38846   5.981  12.727   3.104  0.0105  0.1439 -0.5541
22713W        W38847   3.336  10.592   0.340 -0.1005 -0.0959  0.3079
22714W        W38848  10.482   8.690   3.269 -0.2190  0.3522  0.0873
22715W        W38849   4.222  18.030   5.667  0.3522 -0.1422 -0.1781
22716W        W38850  17.720  11.572  14.769 -0.3314 -0.1343 -0.1229
22717W        W38851   0.255   3.749  13.144 -0.2836  0.1593 -0.0205
22718W        W38852  17.058  18.401   1.244 -0.3227 -0.0015  0.2171
22719W        W38853   3.738   5.084  15.342 -0.1880 -0.3841  0.0606
22720W        W38854   5.983   2.105  15.267 -0.0218  0.4112  0.0863
22721W        W38855  18.088  11.357  12.630  0.0531 -0.1290  0.0869
22722W        W38856  17.373   8.654   1.234 -0.2692  0.0312  0.1920
22723W        W38857   1.978   1.866   1.221  0.3064 -0.0341 -0.0227
22724W        W38858   7.475   6.077   3.905  0.1204 -0.0976 -0.4049
22725W        W38859   5.084   1.051   4.781  0.0799 -0.1829 -0.0513
22726W        W38860  14.857  18.401   4.420 -0.2674  0.2600 -0.0702
22727W        W38861  13.399  14.702  12.455  0.3587  0.2951  0.1047
22728W        W38862   7.274  14.300  14.517  0.1296  0.1854  0.3732
22729W        W38863  11.801   4.745   1.854  0.0518 -0.2191 -0.1676
22730W        W38864   3.381   1.785   3.372 -0.1426 -0.1721  0.1276
22731W        W38865   3.733  17.273   5.664  0.0859 -0.0771 -0.1894
22732W        W38866  12.736  16.596   4.177 -0.0458  0.1190  0.0557
22733W        W38867  10.823   8.069   3.701  0.0658  0.0571 -0.3085
22734W        W38868  14.431   7.842  11.449  0.1928  0.3325  0.2723
22735W        W38869  11.971  15.564  10.078 -0.0610 -0.1436  0.0188
22736W        W38870   0.909   1.946   0.461  0.2898 -0.1998  0.3890
22737W        W38871   0.708   5.217  13.128  0.0025 -0.2135 -0.2591
22738W        W38872   8.656  14.814   3.531 -0.0320  0.2770  0.0035
22739W        W38873  10.798  14.880  14.952  0.3330 -0.0075  0.0511
22740W        W38874  11.172   9.121   0.185 -0.4036 -0.1003  0.0988
22741W        W38875  10.233  11.700  13.916 -0.3401 -0.0219  0.1023
22742W        W38876  13.460   1.888  11.548  0.2498 -0.1587  0.0309
22743W        W38877   8.547  12.217  12.265  0.1457 -0.2065  0.0592
22744W        W38878  13.766   4.527   4.156  0.0600 -0.0237  0.1750
22745W        W38879   2.395   7.230  10.099  0.0897  0.1769 -0.2131
22746W        W38880   0.919   9.412  12.927 -0.0529 -0.1816  0.1057
22747W        W38881   9.543  11.340  13.582  0.2562 -0.1569 -0.1603
22748W        W38882  16.421   0.017  14.511  0.3317  0.0053  0.1244
22749W        W38883  10.289   1.009  11.272  0.2431 -0.2553 -0.0108
22750W        W38884   6.338   1.571   2.696 -0.0317  0.2919  0.2604
22751W        W38885  18.357  12.889  13.228  0.0258  0.0691 -0.0393
22752W        W38886  17.021  18.199  11.614 -0.1679  0.1916 -0.0708
22753W        W38887  17.899   8.484  14.715  0.1649 -0.1582 -0.0923
22754W        W38888   1.057  14.752   1.545 -0.1524 -0.1106  0.1261
22755W        W38889   2.777   3.951   5.122 -0.1584  0.3962 -0.0822
22756W        W38890   6.868   5.561  11.472  0.3713  0.2083 -0.2802
22757W        W38891   5.008   6.128  10.588 -0.4883 -0.1953  0.2800
22758W        W38892  15.633  11.824  12.671  0.1498 -0.1243 -0.1690
22759W        W38893   1.264  16.406  13.464 -0.1094  0.0033 -0.0773
22760W        W38894   9.034   8.000  15.363  0.2966 -0.1484  0.0079
22761W        W38895   8.648   8.919  15.170  0.2680 -0.0950  0.1635
22762W        W38896   5.954   6.242   5.836  0.2452 -0.2046  0.2791
22763W        W38897  12.762   8.596  12.871  0.2778  0.0737  0.1856
22764W        W38898   2.108   1.757  12.127 -0.0921 -0.0739  0.1525
22765W        W38899   7.719   3.464  12.846 -0.3270  0.2221  0.2392
22766W        W38900  18.273   7.221  14.466  0.0674 -0.1919  0.1764
22767W        W38901   6.488   4.123   5.585 -0.0449  0.0630 -0.1198
22768W        W38902   1.886   3.529   5.893 -0.2771  0.1398 -0.0066
22769W        W38903  14.420  16.371   3.074  0.0408  0.2825 -0.2216
22770W        W38904   6.485   5.480  11.888  0.3328 -0.1175 -0.2446
22771W        W38905  10.544  14.789  12.627 -0.1497  0.0430  0.2895
22772W        W38906  16.043   3.825  12.990 -0.2321  0.0208  0.0670
22773W        W38907   9.450   8.536  11.946  0.0904  0.2415 -0.0880
22774W        W38908   8.518  15.777  11.057  0.4708  0.1278  0.0099
22775W        W38909   3.092  12.934   1.058  0.0038 -0.1212 -0.0194
22776W        W38910  14.644  15.043  14.602 -0.6875  0.2425  0.1423
22777W        W38911  10.766  16.173  13.397 -0.1084 -0.0981  0.2849
22778W        W38912   2.664  17.987   0.611  0.1955  0.0707  0.0253
22779W        W38913  17.194   4.157   5.090  0.3083 -0.0813 -0.0361
22780W        W38914  11.814  15.663   4.894  0.0729 -0.0645  0.3551
22781W        W38915   1.902   8.731  11.629  0.0653  0.3412 -0.2919
22782W        W38916   3.857  13.998   5.543 -0.2815  0.0462 -0.2862
22783W        W38917   1.380  16.000   4.960  0.0702  0.1006 -0.1357
22784W        W38918   5.735  13.472  13.253 -0.0031 -0.2907  0.2343
22785W        W38919   0.795   1.273  12.108  0.2430  0.0839  0.1848
22786W        W38920   3.813   8.443   1.082  0.3434 -0.0204 -0.0527
22787W        W38921  17.134   9.652  11.787  0.0457  0.3663 -0.0736
22788W        W38922   1.585   7.839   4.532 -0.0636  0.0794 -0.0378
22789W        W38923   4.892  15.158   1.830 -0.1549  0.2497  0.1344
22790W        W38924   6.557   2.921  11.525  0.0907  0.0533  0.1162
22791W        W38925   1.240   1.722   0.185 -0.2578  0.0658 -0.3666
22792W        W38926  17.543  10.843  15.273 -0.0085 -0.2065 -0.1779
22793W        W38927   8.802  17.522   2.807  0.1908  0.1534 -0.2248
22794W        W38928   1.176   5.105  11.151 -0.2751 -0.0067  0.2863
22795W        W38929   4.581  13.165  12.955 -0.1339  0.0377  0.0510
22796W        W38930   5.864  13.793   4.440  0.0866 -0.0546  0.1154
22797W        W38931  14.262   0.482   5.941  0.1444 -0.2363  0.3197
22798W        W38932   6.290  14.551   1.852 -0.0947  0.2892 -0.2586
22799W        W38933  15.836  18.255   4.489 -0.3717  0.2187 -0.0444
22800W        W38934  12.020   2.141   1.403  0.0861  0.0646  0.2573
22801W        W38935   6.220  13.134   1.863  0.2730 -0.3150 -0.0209
22802W        W38936  12.766  16.258   1.638 -0.0977  0.0728  0.0203
22803W        W38937  13.912   8.922  10.983  0.0479  0.0039  0.3185
22804W        W38938   8.327   0.747  13.154 -0.0692  0.1184  0.3407
22805W        W38939  10.577   7.674   1.481 -0.0454 -0.0823  0.0428
22806W        W38940  16.868   6.572  11.650  0.1301 -0.0707 -0.1560
22807W        W38941  11.116   1.696  13.390 -0.1613 -0.1899 -0.3946
22808W        W38942  17.723   7.214  15.063 -0.0683 -0.1360 -0.0396
22809W        W38943   6.880   9.112  14.108 -0.2064  0.1415 -0.0374
22810W        W38944   2.411  13.199   1.684 -0.0839 -0.2570 -0.2069
22811W        W38945  14.574   1.307   4.605 -0.2216 -0.3698 -0.0470
22812W        W38946  11.959  16.822   3.266 -0.2758 -0.3063 -0.0569
22813W        W38947   2.937  18.542  11.939  0.0385 -0.1821 -0.0397
22814W        W38948  15.867   5.473  13.504 -0.1282 -0.1175  0.1788
22815W        W38949   6.303   6.732   3.832 -0.1506  0.2562  0.3616
22816W        W38950   1.497  16.953   5.953  0.0499  0.1809 -0.1613
22817W        W38951  15.764  18.718   2.214  0.1026 -0.0814  0.0226
22818W        W38952   4.434   4.933   5.362  0.2363 -0.2532 -0.1025
22819W        W38953  13.333   9.017  15.532  0.0849 -0.0677 -0.0112
22820W        W38954   2.061   8.772   2.120 -0.1684 -0.2201  0.1442
22821W        W38955  11.728   3.693   3.102 -0.0553  0.4071  0.0424
22822W        W38956  16.417   1.290   5.118  0.0187  0.0471  0.6057
22823W        W38957   4.731  12.595  15.130  0.1489 -0.2143  0.0808
22824W        W38958  17.329  14.261  15.105  0.0258  0.2599 -0.0052
22825W        W38959   3.359  17.905  10.852  0.0396 -0.1119 -0.0479
22826W        W38960   0.591   6.498  14.222  0.2803  0.2335 -0.0524
22827W        W38961   4.510  10.654   2.095  0.3329 -0.2641 -0.2094
22828W        W38962  15.898   0.856  11.902  0.0130 -0.3443 -0.2629
22829W        W38963   2.278  17.232   1.602  0.0408 -0.1478 -0.2302
22830W        W38964   1.738  18.496   1.010  0.5062 -0.0090  0.0998
22831W        W38965  13.559  10.356   3.999 -0.1424  0.0505 -0.1702
22832W        W38966   9.872  12.204   1.466 -0.1992 -0.1196  0.3081
22833W        W38967  11.751  12.933  14.942 -0.0762  0.1333  0.0292
22834W        W38968  17.929   6.740   5.427 -0.0712  0.1114 -0.1661
22835W        W38969   0.983   1.263   9.761  0.2316 -0.3986 -0.0045
22836W        W38970  16.328   7.229   0.756 -0.0812  0.1118 -0.0896
22837W        W38971  17.251  14.577   5.320 -0.1642  0.0847  0.2422
22838W        W38972   6.688   6.795  11.056 -0.2418  0.2182 -0.0145
22839W        W38973   6.541  13.684   2.338 -0.2253  0.1113  0.1689
22840W        W38974  17.914  17.232  14.030 -0.2471 -0.3462  0.3577
22841W        W38975  15.992  14.014   0.870 -0.0243 -0.1734 -0.0022
22842W        W38976   6.722   0.614   2.148  0.1377 -0.1418  0.1591
22843W        W38977  17.429  11.158   5.115 -0.2456 -0.0622 -0.1928
22844W        W38978  14.431  16.151  15.501 -0.2660 -0.2553  0.1375
22845W        W38979  18.603   4.038   5.565 -0.1423 -0.1936 -0.0886
22846W        W38980   4.077   0.149  13.688 -0.0865 -0.0289  0.0147
22847W        W38981  16.628  16.902   3.686  0.2722  0.1798 -0.0622
22848W        W38982   8.023   0.637   0.570 -0.0747 -0.0269  0.0462
22849W        W38983   5.304   3.567  10.627  0.0451  0.3993 -0.0135
22850W        W38984   8.507  12.205   4.372 -0.3044  0.0917 -0.3180
22851W        W38985   1.147  15.183   2.907 -0.1647 -0.1397  0.0288
22852W        W38986   8.078  18.163   0.760  0.0883  0.0108 -0.0387
22853W        W38987   7.442  10.528   0.129 -0.0326 -0.0762  0.0224
22854W        W38988  17.548  17.911  14.515 -0.1268 -0.1303  0.2856
22855W        W38989   4.809   7.070  14.513 -0.2194  0.0523  0.0355
22856W        W38990  17.867   9.713  13.166 -0.2503  0.2111  0.0842
22857W        W38991  16.065  14.219  11.969  0.2371  0.0515  0.0938
22858W        W38992   8.212   1.359  10.054 -0.2199 -0.1588  0.0908
22859W        W38993  14.302  12.005  10.611 -0.1824  0.1241  0.4644
22860W        W38994   8.090   3.794   4.010  0.1278  0.3666  0.2238
22861W        W38995   3.196  14.215   1.077 -0.0136  0.1526 -0.0990
22862W        W38996   1.480  11.435   0.268  0.0724  0.0069  0.0224
22863W        W38997   0.139   4.091   4.101  0.0270 -0.3479 -0.0749
22864W        W38998   9.520  15.763  15.251  0.4545  0.4288  0.3397
22865W        W38999   7.410   2.749   0.004  0.0468 -0.0394  0.1905
22866W        W39000  15.032  10.970  10.973  0.0828  0.1991  0.4426
22867W        W39001  18.306   9.932   2.773  0.1076 -0.0263 -0.1129
22868W        W39002   8.479  16.264  14.286  0.4086  0.1672  0.2691
22869W        W39003   2.126   2.638  13.644  0.1192 -0.1572 -0.1066
22870W        W39004   2.046  11.095  14.027  0.2380  0.0447 -0.0187
22871W        W39005   1.826  16.986   5.219 -0.2314 -0.1283 -0.3304
22872W        W39006   2.514   0.249   5.389 -0.0744 -0.0308  0.1737
22873W        W39007  11.437  15.031   3.226  0.2893  0.0305  0.1116
22874W        W39008   7.070   6.813   1.462  0.3626  0.1826 -0.2749
22875W        W39009  17.686  12.435  10.944 -0.5690  0.4002 -0.2353
22876W        W39010   3.436  12.973   0.045  0.0740 -0.1711 -0.3438
22877W        W39011  16.088   5.209  13.988  0.0864  0.0193 -0.0476
22878W        W39012  14.094  12.972  10.690  0.2083  0.0861 -0.0736
22879W        W39013  11.784  10.781   0.300 -0.1463  0.2184  0.2753
22880W        W39014   5.163   2.456   4.297  0.2491 -0.1060 -0.1016
22881W        W39015   9.827   2.431  15.132  0.0833  0.1779 -0.0120
22882W        W39016   3.139  16.763  13.518  0.2181 -0.0506  0.2138
22883W        W39017   6.781   0.859  11.835 -0.1867  0.0292  0.3014
22884W        W39018  18.582   3.700   9.866 -0.0804 -0.3605 -0.0904
22885W        W39019   9.509   4.783   2.285  0.0029 -0.3307 -0.2331
22886W        W39020   0.053   3.520  13.513 -0.1267  0.0256  0.2823
22887W        W39021   7.340  17.441  12.199  0.1438  0.0693 -0.0452
22888W        W39022   5.604   6.928   0.040  0.0324  0.0195 -0.0825
22889W        W39023   4.869  15.682   0.245  0.1265 -0.1440  0.0029
22890W        W39024   8.590  15.473   0.810 -0.0742  0.4896  0.0629
22891W        W39025  12.671  17.868  15.366  0.3497 -0.1423  0.1313
22892W        W39026   5.383  14.991  11.306  0.1017  0.0902  0.0744
22893W        W39027  15.390   0.500   1.994  0.0744 -0.1124 -0.0354
22894W        W39028  10.139  16.939   2.737 -0.1555 -0.0418 -0.0096
22895W        W39029   1.206   1.390  14.730  0.0390 -0.0548  0.1300
22896W        W39030   8.902  13.529   2.374 -0.2921  0.0424 -0.2379
22897W        W39031   9.491   3.324  10.479 -0.2932 -0.2861  0.2727
22898W        W39032   0.278   0.015   5.160 -0.1775  0.0002 -0.0856
22899W        W39033   3.161   2.546   3.115  0.1401  0.3205  0.1735
22900W        W39034  15.864   4.950  10.844  0.1372  0.1188  0.1190
22901W        W39035  10.104   6.089  14.356  0.1092  0.1171  0.0653
22902W        W39036  18.382   3.923   4.649 -0.1790  0.0429  0.0423
22903W        W39037   8.493  13.107   3.110  0.3680 -0.1113 -0.3269
22904W        W39038  11.156  13.446   1.589  0.1711  0.0290 -0.1393
22905W        W39039  11.530  13.998   4.567  0.1057 -0.1466  0.2236
22906W        W39040  16.086   2.368  14.200 -0.0161 -0.0976 -0.0294
22907W        W39041  14.765   9.991  13.533  0.4461 -0.1342 -0.3543
22908W        W39042   5.707   7.692   0.488 -0.0457  0.1854  0.0893
22909W        W39043   8.919  10.201  10.252 -0.0416 -0.0115 -0.3281
22910W        W39044  16.871   3.152   5.493  0.2273 -0.4985 -0.0867
22911W        W39045  16.184   4.745  12.645 -0.4001 -0.0137  0.1587
22912W        W39046  16.822   7.624  12.785 -0.0862 -0.0429  0.1686
22913W        W39047  13.371   6.008  14.303  0.1804 -0.1273 -0.2337
22914W        W39048  15.681  12.595   2.002  0.0831 -0.0917  0.0392
22915W        W39049   7.800   7.402   4.824  0.1680  0.1586 -0.2206
22916W        W39050  14.745  10.895  15.490 -0.0497  0.1520  0.0873
22917W        W39051  10.054   2.486  11.293 -0.0837 -0.1058 -0.2127
22918W        W39052   1.525   3.554   5.213 -0.2944  0.0310 -0.1640
22919W        W39053  15.195   8.409  15.081 -0.1143  0.2246 -0.2348
22920W        W39054   1.713   7.935  12.163  0.2368 -0.3572  0.1034
22921W        W39055  12.836   8.264  14.245  0.1585 -0.2053 -0.1320
22922W        W39056   4.704  11.020  12.737 -0.2707  0.2297  0.2413
22923W        W39057  16.849   6.065  14.274  0.3914  0.0441 -0.0523
22924W        W39058  18.180   3.772   3.688 -0.0434  0.1165 -0.0643
22925W        W39059   8.250   1.498   2.836 -0.0080 -0.1457  0.0867
22926W        W39060  11.204  13.372   2.522 -0.0635  0.1728  0.0150
22927W        W39061   1.671  13.082   0.000  0.1245  0.1706 -0.0673
22928W        W39062  11.131  18.625   1.747  0.1041 -0.0207  0.0291
22929W        W39063  15.630   2.682  11.376  0.1215  0.0722 -0.0633
22930W        W39064  16.335  17.556   2.282  0.2074 -0.0981  0.1465
22931W        W39065   8.889   0.626  13.371  0.3376 -0.1425 -0.0338
22932W        W39066   8.010  10.079  13.601 -0.0020  0.1064  0.0366
22933W        W39067   7.160  15.924  15.513  0.3084 -0.2535  0.3259
22934W        W39068  15.215  11.595   1.985  0.0700  0.0247  0.0035
22935W        W39069  10.752  10.402   1.959  0.5823  0.0241 -0.0454
22936W        W39070   4.199   5.699  11.745 -0.1596  0.1815  0.0537
22937W        W39071  10.989  18.426  11.822  0.1000  0.2620 -0.0020
22938W        W39072  14.683   1.550   2.876 -0.0366  0.0656 -0.1532
22939W        W39073  15.585  16.708   1.082  0.1150  0.1053 -0.0177
22940W        W39074   3.212  18.098   0.770  0.0335  0.0094 -0.1184
22941W        W39075   3.428   8.768  11.258  0.0245  0.0301  0.2582
22942W        W39076  18.452   7.616  12.852  0.1828 -0.0466  0.1506
22943W        W39077   2.007  13.437   1.840  0.1058  0.1412 -0.2376
22944W        W39078   5.163  17.036   3.204 -0.2813  0.2047 -0.2295
22945W        W39079  15.163  14.862   4.375 -0.0371 -0.0371 -0.1186
22946W        W39080  14.361   8.796   3.697 -0.3143 -0.1408 -0.1572
22947W        W39081   8.265  13.448  14.266 -0.1152 -0.1251  0.2235
22948W        W39082  12.058  16.847  13.605  0.4017 -0.0039  0.1521
22949W        W39083   3.509   4.844   5.026 -0.0386  0.1735  0.0011
22950W        W39084   8.315   4.045   1.946  0.3767 -0.3712 -0.3050
22951W        W39085  18.221  14.733  14.415  0.0608 -0.1195  0.0027
22952W        W39086   8.963  15.645   0.111 -0.3544  0.1912 -0.1161
22953W        W39087   2.322   4.184  10.951  0.2387  0.2859  0.1401
22954W        W39088   6.492   1.471   3.382  0.2171 -0.3122  0.2103
22955W        W39089  12.808   7.494   3.101 -0.0147  0.0852  0.2163
22956W        W39090  15.575   1.424  13.107 -0.1435  0.1169 -0.0209
22957W        W39091   9.711  18.607  12.249 -0.1800 -0.4836 -0.2528
22958W        W39092   2.395  18.585  14.884  0.0418  0.2157  0.1678
22959W        W39093   9.964  11.456   3.072  0.1287  0.1555 -0.1068
22960W        W39094  12.990  15.222   1.064 -0.1484  0.1600 -0.1227
22961W        W39095  10.797  12.461   5.514 -0.2820 -0.0726  0.0466
22962W        W39096   1.151   7.027  15.317 -0.1370 -0.2136 -0.0857
22963W        W39097   5.224   7.500   1.796 -0.1644  0.0628 -0.0751
22964W        W39098  14.552   4.353  15.374  0.0682  0.0166  0.2291
22965W        W39099  16.175   2.754   2.282 -0.0209  0.0097  0.1676
22966W        W39100   5.188   8.571  14.488  0.2007 -0.1235 -0.3601
22967W        W39101   8.459   3.882  12.348 -0.1303 -0.4766  0.1719
22968W        W39102   0.749   4.660   0.471  0.0782 -0.0123 -0.0656
22969W        W39103  14.786   7.047  14.503 -0.0915  0.3101 -0.1281
22970W        W39104  14.167  12.845  12.348 -0.0114 -0.2703 -0.0570
22971W        W39105   5.607  17.058  14.772  0.0703  0.0181  0.1556
22972W        W39106  12.416   9.785  13.145 -0.1346 -0.0051  0.2594
22973W        W39107   8.770  15.715   2.688  0.2378  0.0547  0.0320
22974W        W39108   2.020   6.283   4.560 -0.0709 -0.1282 -0.0254
22975W        W39109  17.929   7.897   3.510 -0.1637 -0.1429 -0.0694
22976W        W39110  11.894  18.337   3.719  0.0002 -0.0297 -0.0761
22977W        W39111  12.478  11.527  13.806  0.1565 -0.1217 -0.0910
22978W        W39112  18.665   8.994   3.341  0.0795 -0.1458  0.0872
22979W        W39113   9.798   1.525   1.260  0.3634 -0.2238  0.0128
22980W        W39114  10.650   8.760  13.601 -0.0044 -0.2293 -0.1079
22981W        W39115  13.672  11.025   2.533 -0.2792 -0.1374  0.1379
22982W        W39116  14.362   1.006  11.089  0.1139  0.2173 -0.1221
22983W        W39117   1.923   4.349   3.910 -0.0854  0.0283  0.1764
22984W        W39118  18.618   9.692   0.838  0.1651  0.3299 -0.4095
22985W        W39119  16.811   4.344   1.916 -0.0041 -0.1449  0.1676
22986W        W39120   0.502   1.260   4.280 -0.1199 -0.0870 -0.3132
22987W        W39121  15.814  16.706  11.383 -0.2654 -0.2718 -0.0676
22988W        W39122   6.965  13.998  14.345  0.2032 -0.1772 -0.1817
22989W        W39123   8.592  16.500   3.877 -0.0380  0.3730  0.0275
22990W        W39124   3.507  14.612   4.647  0.1638 -0.2939  0.0724
22991W        W39125   1.206   3.066  13.779  0.1725 -0.0582  0.2631
22992W        W39126  12.612  11.043   5.033 -0.3544  0.1004 -0.2334
22993W        W39127   5.627   6.463   0.210 -0.0701  0.1936  0.1574
22994W        W39128   0.681   6.869  11.420 -0.0025  0.0386  0.0559
22995W        W39129   5.439   7.981   3.336 -0.0058 -0.1295  0.1806
22996W        W39130   5.621  17.145  13.801 -0.1222 -0.0383  0.0725
22997W        W39131   3.120  12.480   4.768  0.0739 -0.0627 -0.2185
22998W        W39132   9.813  14.057   0.221  0.4759 -0.0842  0.1210
22999W        W39133  18.384   8.496  11.799  0.0314  0.1436 -0.0518
23000W        W39134   4.696  16.829  12.709  0.0917 -0.1037  0.1287
23001W        W39135  15.277   9.430  15.565  0.1773 -0.1153  0.2574
23002W        W39136   6.071  12.320   1.759  0.0384 -0.1979 -0.1361
23003W        W39137  15.224  10.578   1.390 -0.1439  0.1414 -0.0489
23004W        W39138   3.475  12.848   3.575 -0.3193 -0.1411 -0.2807
23005W        W39139   2.135  11.522   3.136  0.1480  0.1291 -0.1181
23006W        W39140   4.607   8.568   4.519  0.1873 -0.1730  0.2080
23007W        W39141   5.191  16.959  12.631  0.1383 -0.1082  0.0973
23008W        W39142  14.882  13.306   2.389  0.0163  0.0401  0.2559
23009W        W39143  12.431   0.182  10.861 -0.0869 -0.2324  0.1134
23010W        W39144  13.420   3.968  12.965 -0.1224  0.0797 -0.1250
23011W        W39145   6.236  12.883   3.985 -0.0277  0.0232 -0.1215
23012W        W39146   9.781  17.708   4.804  0.2017  0.1473  0.6253
23013W        W39147  10.550   9.089   0.274  0.1480 -0.0442 -0.0556
23014W        W39148   7.619  13.332   2.474  0.0465 -0.2014 -0.0291
23015W        W39149   6.862   2.994  12.775 -0.0204  0.0351 -0.3359
23016W        W39150  16.673   2.214  11.720 -0.1189 -0.0556 -0.1487
23017W        W39151  12.116  16.937   5.296 -0.1817  0.1923  0.1451
23018W        W39152   4.771   0.531   1.363 -0.2323  0.2483  0.0212
23019W        W39153  10.632   3.966  12.275  0.1895 -0.0169 -0.1397
23020W        W39154   4.226  12.078   5.674  0.3423  0.1003 -0.0487
23021W        W39155   0.150  13.958   3.743 -0.0922  0.3235  0.1103
23022W        W39156   0.003   7.262  14.976  0.0032  0.1413 -0.2168
23023W        W39157  10.706   6.584   4.585 -0.2369 -0.1648  0.1518
23024W        W39158  18.494   4.126  11.808 -0.3457 -0.1053  0.3281
23025W        W39159   1.660   4.614   0.560 -0.1486 -0.1822 -0.0568
23026W        W39160  15.290   1.345   0.148  0.0882 -0.0026 -0.0886
23027W        W39161  10.753   5.773   4.943 -0.1264 -0.1261  0.3510
23028W        W39162   0.513  16.964  13.964 -0.0941 -0.1461 -0.0781
23029W        W39163   4.749   2.549   5.122 -0.2865 -0.0107 -0.2476
23030W        W39164   1.822  14.075  12.813 -0.4158 -0.1506 -0.0276
23031W        W39165  14.301  10.196  12.660 -0.0064  0.1209  0.2090
23032W        W39166  13.849   3.517  10.938 -0.0637  0.0264  0.0963
23033W        W39167   0.186   0.117  12.687 -0.0988 -0.3333 -0.1274
23034W        W39168  14.724   1.829   4.525 -0.1153  0.1244  0.0827
23035W        W39169  12.603  10.394   3.034  0.5226  0.0032  0.1687
23036W        W39170   2.452  18.474  11.325  0.2162  0.0531 -0.0740
23037W        W39171   4.746   2.620  14.851  0.2795 -0.0026  0.0263
23038W        W39172  16.088  18.426   2.010  0.0256  0.1462 -0.0061
23039W        W39173   9.622  18.647   3.595 -0.0031  0.1213 -0.1246
23040W        W39174  15.006   6.075  14.375 -0.0919 -0.2171  0.0291
23041W        W39175   5.512  16.043  10.182  0.0902 -0.1684  0.0294
23042W        W39176  16.530  14.126   0.210 -0.3738 -0.1393  0.2522
23043W        W39177   9.554  12.431  10.548  0.1591  0.2362  0.0387
23044W        W39178  13.896  17.080  14.326 -0.3363  0.0889 -0.2850
23045W        W39179   8.856   3.295   5.555 -0.0655 -0.1502 -0.0754
23046W        W39180  14.602  15.107   2.553  0.3094 -0.1377  0.0842
23047W        W39181   0.457   2.760   5.997  0.1845 -0.2535  0.0101
23048W        W39182  11.276   8.594   4.725 -0.2597  0.0143  0.2014
23049W        W39183  13.204   4.063  14.020 -0.2686 -0.3082  0.0911
23050W        W39184  15.346   3.984   4.248 -0.2083 -0.0206  0.1015
23051W        W39185   2.903   4.575  14.427  0.0781  0.2501 -0.2006
23052W        W39186  14.400   3.350  12.996  0.0617  0.1033  0.2489
23053W        W39187   0.445   9.884  12.540 -0.1241  0.0279 -0.3460
23054W        W39188   0.029  17.031   4.205 -0.0030  0.1562  0.0519
23055W        W39189   6.690   4.599  12.849  0.2452  0.0049 -0.1051
23056W        W39190   5.850  16.159  12.421  0.0331 -0.1153 -0.0536
23057W        W39191   9.814  15.368  14.040  0.1634 -0.1360  0.2919
23058W        W39192  10.461   3.507  10.328  0.0314 -0.0412  0.1241
23059W        W39193   3.651   0.831  14.552  0.1872  0.2168  0.1013
23060W        W39194  18.172   9.223   3.932 -0.1762 -0.4647 -0.1546
23061W        W39195   3.779  14.274   3.716  0.2794 -0.1424 -0.1589
23062W        W39196  18.536   6.692   1.519 -0.5301 -0.1444  0.1332
23063W        W39197  14.537   0.050   4.294  0.0930  0.0382 -0.1045
23064W        W39198   8.994   2.133  12.796  0.0295  0.0393  0.2014
23065W        W39199   6.789  13.573   4.455 -0.1184 -0.1616  0.0228
23066W        W39200   5.362  17.919  11.986  0.0321  0.0383 -0.3084
23067W        W39201   8.304  16.897  12.136 -0.3064 -0.0594 -0.2283
23068W        W39202   1.803   8.636   1.740 -0.1780  0.3516  0.1523
23069W        W39203   0.697   6.747  14.942 -0.1097 -0.1449  0.0365
23070W        W39204   6.527   2.444  14.066 -0.2014  0.5372 -0.1945
23071W        W39205   4.951   6.874  10.812  0.1603 -0.2149 -0.0884
23072W        W39206  16.616  12.761  11.178 -0.1722 -0.1324 -0.0386
23073W        W39207   1.522  15.604   1.105 -0.2794  0.0330  0.0399
23074W        W39208   3.768   3.319   4.515  0.0601  0.0093 -0.1219
23075W        W39209  12.989  12.808  14.101 -0.0026 -0.0246  0.0135
23076W        W39210   4.828  11.544   1.969 -0.0157  0.2890  0.0284
23077W        W39211   6.270   9.323  15.317  0.2074 -0.0328  0.1392
23078W        W39212   0.609  17.408  14.120 -0.0948 -0.0228 -0.0984
23079W        W39213   0.809  11.305  11.368  0.2148  0.0935  0.1464
23080W        W39214   1.569  10.701  12.204 -0.2975 -0.1360 -0.1260
23081W        W39215  16.991   3.426   3.594 -0.0907  0.4241 -0.0800
23082W        W39216  15.850  15.541  12.976  0.0163 -0.0788  0.0995
23083W        W39217  11.123  17.455  14.219 -0.1011  0.1113 -0.1338
23084W        W39218   5.945   5.238   3.229  0.4468 -0.0476  0.1791
23085W        W39219  15.938   3.182   2.571  0.2190 -0.3235 -0.0419
23086W        W39220  15.319  10.234  15.492 -0.1686  0.1831 -0.2775
23087W        W39221  14.052   5.966   4.923 -0.1359  0.1334  0.3024
23088W        W39222   7.867   6.842  14.776 -0.2678 -0.2742  0.0635
23089W        W39223   1.532   2.844  11.714  0.0669  0.2561  0.1084
23090W        W39224   0.097   2.887   1.289  0.1348  0.1239  0.1265
23091W        W39225  12.024   0.296  14.998  0.0003 -0.0395 -0.0508
23092W        W39226  17.433   7.268  15.446 -0.1096 -0.2581 -0.1017
23093W        W39227  16.983   4.882   3.168  0.3077  0.0216 -0.0735
23094W        W39228   7.494   9.853   2.974  0.0379 -0.0690  0.0693
23095W        W39229   6.901  17.570  11.282 -0.0513 -0.2581 -0.2330
23096W        W39230   5.450  13.046  13.150  0.4036 -0.1376  0.0976
23097W        W39231   3.498  13.965  13.540 -0.2287 -0.1953 -0.0508
23098W        W39232  11.994  16.025   4.267 -0.0393 -0.2137  0.2204
23099W        W39233  10.222  12.271  14.607 -0.2767 -0.0604 -0.0102
23100W        W39234   3.640  10.350  15.522  0.1228  0.3660  0.1726
23101W        W39235  14.525  14.314   0.857 -0.1631 -0.0444  0.1610
23102W        W39236  14.991  17.294   4.881 -0.3466 -0.1474  0.0673
23103W        W39237  11.599  15.592  11.886  0.1750  0.0507  0.0287
23104W        W39238  16.459   8.447   3.408 -0.0065  0.0022 -0.0921
23105W        W39239   3.430  11.547   1.235  0.1552 -0.0752  0.4195
23106W        W39240   2.727  14.274   2.510 -0.2109  0.1395 -0.2293
23107W        W39241   1.414   5.686  13.553  0.0754  0.2673  0.3677
23108W        W39242  18.563   0.167  15.023  0.0240  0.0031  0.0106
23109W        W39243   9.133  14.077   0.055 -0.2223  0.1974  0.0580
23110W        W39244   8.009   9.852   4.209  0.1693  0.0318 -0.2947
23111W        W39245   6.287   2.856   2.708 -0.0287  0.1259  0.1329
23112W        W39246   3.682   8.429   1.923 -0.1763 -0.0587  0.0469
23113W        W39247  14.987   8.701  11.153 -0.0694  0.2424  0.2331
23114W        W39248   2.315  18.435  13.213 -0.0601 -0.2439  0.0454
23115W        W39249   1.998  15.624   4.581  0.1482  0.1856  0.0646
23116W        W39250  12.779   7.504   1.558  0.1125  0.0412 -0.2099
23117W        W39251   7.530  14.684  13.269  0.0742  0.3491  0.0876
23118W        W39252  11.719  11.448   0.600  0.2835 -0.2234 -0.5189
23119W        W39253  10.339   6.402  14.673 -0.3272  0.0055  0.3240
23120W        W39254   7.661  17.247  15.544  0.0128 -0.0413 -0.2184
23121W        W39255   6.518  10.710  15.107  0.1298  0.0134 -0.0577
23122W        W39256  17.057   0.135   1.110 -0.3703  0.3745  0.0190
23123W        W39257  14.585  10.190   1.819 -0.0589  0.2291  0.1802
23124W        W39258  16.506  15.255  12.278  0.0354 -0.1197 -0.0707
23125W        W39259   5.194  14.063   4.033 -0.1765  0.0935  0.0683
23126W        W39260   7.082   9.256  12.714  0.1901 -0.2220  0.0965
23127W        W39261  11.606   7.110   5.454  0.0415 -0.0890 -0.0416
23128W        W39262  14.477  15.780  12.287  0.0006  0.1091 -0.3128
23129W        W39263  13.055   2.140  11.350  0.2185  0.4355 -0.0594
23130W        W39264   6.263   5.195  12.229  0.0873 -0.1310  0.3414
23131W        W39265  13.279  17.098   3.310 -0.1099  0.0033  0.1680
23132W        W39266   2.905   2.480  14.087  0.0140  0.0623  0.2375
23133W        W39267   5.314   3.213  15.288  0.1709  0.3439 -0.0587
23134W        W39268  17.049   7.087   4.342 -0.0218  0.0706 -0.0655
23135W        W39269   3.193  17.183  10.278  0.0224 -0.2605 -0.2848
23136W        W39270   7.480   2.074   4.117  0.0471  0.1974  0.0096
23137W        W39271  13.691   4.887   2.631 -0.2999  0.2665  0.0955
23138W        W39272  15.265  10.035  11.245  0.1705 -0.1138  0.0293
23139W        W39273  12.469   4.221   3.628  0.1972 -0.0870  0.0202
23140W        W39274  17.587   5.157   4.250  0.0036  0.0830  0.1701
23141W        W39275   0.146  18.433  12.427 -0.0085 -0.1445 -0.3228
23142W        W39276  14.005   6.598   0.137 -0.1986 -0.0839 -0.1668
23143W        W39277  12.056   3.072   1.743  0.0829 -0.0046 -0.2093
23144W        W39278   0.839   2.529   0.228  0.1897 -0.3150  0.2360
23145W        W39279  17.567  17.166   5.573 -0.2817 -0.1412 -0.0329
23146W        W39280   2.125   4.888  15.366  0.3037 -0.0108  0.1880
23147W        W39281   2.909   3.006   0.878 -0.1015  0.0640  0.2919
23148W        W39282  15.503  18.648  12.891  0.0767 -0.0596 -0.1275
23149W        W39283  17.596  16.760   3.783  0.2369  0.0111 -0.0487
23150W        W39284  13.820   0.880   3.515  0.0970  0.3169 -0.2891
23151W        W39285  10.804  15.791   0.095 -0.5018  0.2520  0.3160
23152W        W39286   8.015   9.879  10.926 -0.1548 -0.2834  0.2686
23153W        W39287  15.791   1.466  13.634  0.2693 -0.1844 -0.1095
23154W        W39288   8.466   0.412  11.252 -0.2060 -0.0278 -0.0850
23155W        W39289  11.412   8.434  12.559 -0.2299  0.1411  0.0936
23156W        W39290  18.245  13.182  11.747  0.2365  0.0109  0.2873
23157W        W39291   2.347  15.517  14.514  0.3907  0.1244 -0.2829
23158W        W39292   9.224   8.506   3.139  0.0842  0.3866  0.2837
23159W        W39293  12.296   5.363   2.662  0.2594 -0.1632  0.0125
23160W        W39294   8.428   4.970   4.693  0.2164  0.3129 -0.1393
23161W        W39295  10.971   8.738   1.352  0.0132  0.0744  0.0993
23162W        W39296  13.651   0.045  12.647  0.3104 -0.1821  0.0397
23163W        W39297   1.031   3.150   5.530 -0.0612 -0.2935  0.3088
23164W        W39298   7.288   0.687  15.224 -0.0320  0.1495 -0.1793
23165W        W39299  15.216  18.548  11.226 -0.0657  0.2131  0.1358
23166W        W39300   4.520   6.757   2.969 -0.2082 -0.1163 -0.1779
23167W        W39301   9.274   8.435   9.972  0.0449 -0.3021 -0.1685
23168W        W39302  15.483  13.254   4.451  0.1819  0.0359 -0.1441
23169W        W39303   7.512   4.410  13.145 -0.4727 -0.0218  0.0090
23170W        W39304  16.870   1.202  11.474  0.2681 -0.0996 -0.0129
23171W        W39305  18.048  11.466   2.719  0.1549 -0.0125  0.3733
23172W        W39306   9.481   0.523   4.591 -0.0929  0.0496 -0.3472
23173W        W39307  16.210   5.410  12.626 -0.1814  0.0939 -0.1101
23174W        W39308   1.645   0.930  14.718  0.2539 -0.2346  0.2279
23175W        W39309  11.387   7.647   0.087 -0.0578 -0.0056  0.0056
23176W        W39310  14.090  12.880   1.269 -0.0052  0.1141  0.1231
23177W        W39311   6.036   9.675  14.723 -0.3732 -0.0306 -0.1965
23178W        W39312   4.513  16.812   5.344 -0.1115  0.1396  0.0677
23179W        W39313   8.013   4.362  12.002 -0.3417 -0.1971  0.0866
23180W        W39314   2.059   6.588  11.260 -0.2362 -0.0260  0.1681
23181W        W39315  10.273  18.091   1.861 -0.1528 -0.1121 -0.1669
23182W        W39316  11.648   3.127   3.461  0.0359 -0.2120 -0.2964
23183W        W39317  17.945  15.951   3.312 -0.1265 -0.1593  0.1759
23184W        W39318   8.857  17.692   3.741  0.0644 -0.0565 -0.0545
23185W        W39319   8.262  18.728   4.099  0.0823  0.1405  0.0943
23186W        W39320  16.703  11.492  15.420  0.1521 -0.0328  0.0123
23187W        W39321   3.360  11.784  13.692 -0.0764 -0.2271  0.0354
23188W        W39322  13.233   4.874   4.383  0.0273 -0.0619  0.0879
23189W        W39323  12.076  11.423  11.235  0.1396 -0.0481  0.1833
23190W        W39324   1.823  13.920  14.415  0.0399 -0.1518  0.0061
23191W        W39325   8.097  18.433  10.503  0.0628 -0.0898  0.0406
23192W        W39326   7.979  16.871   4.880 -0.0757 -0.0357 -0.1585
23193W        W39327  12.444   1.750   0.144  0.0597  0.2249 -0.2099
23194W        W39328   1.121   7.373  14.127 -0.1667  0.1099  0.3655
23195W        W39329   3.755   5.663   4.391 -0.1839 -0.0193  0.3253
23196W        W39330  10.886  13.234  11.308  0.0416 -0.0169  0.0022
23197W        W39331  17.898   4.282  12.386  0.0654 -0.3554 -0.2506
23198W        W39332  17.084  15.783  14.231  0.0376  0.0674  0.0018
23199W        W39333   9.477   7.496  11.608  0.1622 -0.2456 -0.1597
23200W        W39334  13.076  10.720  13.515 -0.0699  0.1687  0.1701
23201W        W39335  14.200  14.010  14.074  0.1074 -0.1341 -0.0718
23202W        W39336  11.438   3.776   1.603  0.1158  0.2968 -0.0852
23203W        W39337  17.767   4.697  12.993 -0.1854  0.0416 -0.0541
23204W        W39338  13.380  11.741  12.254 -0.1785  0.0554  0.0613
23205W        W39339   2.430   4.221  12.729  0.0361  0.1816  0.2924
23206W        W39340  12.998   5.046   2.518  0.3146  0.0159  0.0665
23207W        W39341   9.603  10.730  10.870  0.0628 -0.0080 -0.2203
23208W        W39342  13.192  11.059   2.628  0.0759 -0.5714  0.2376
23209W        W39343  16.275   9.071   5.748  0.0395 -0.1425 -0.1488
23210W        W39344   5.363   0.482  14.212 -0.0658 -0.3804  0.3118
23211W        W39345  15.428   4.421  12.940 -0.1021 -0.0274 -0.1578
23212W        W39346   1.812   8.460  13.032 -0.0253  0.0236  0.1966
23213W        W39347   8.713  15.392   1.818 -0.0200 -0.0191 -0.1504
23214W        W39348   7.357  12.827  11.036 -0.0894  0.0364 -0.1692
23215W        W39349  15.165  18.678   0.832  0.0592  0.1633 -0.0510
23216W        W39350   7.380  10.812  14.412 -0.1816 -0.3188  0.0371
23217W        W39351   5.135   2.645   2.791 -0.3274  0.0681  0.2345
23218W        W39352   6.168  15.187   3.209 -0.0017 -0.1320  0.0592
23219W        W39353  12.627  13.682   2.893 -0.1223  0.2639 -0.4605
23220W        W39354   5.695  13.254  14.627 -0.1407 -0.1148 -0.1127
23221W        W39355   2.734   2.625   3.875 -0.0171  0.0674  0.4318
23222W        W39356   6.729  10.228   1.660  0.1005  0.1577  0.0574
23223W        W39357  14.291   8.860  14.192 -0.1227 -0.1077 -0.0620
23224W        W39358   2.174   8.267   1.711 -0.3559 -0.0646 -0.0787
23225W        W39359  10.882  13.006  11.998 -0.0213 -0.0134 -0.1313
23226W        W39360  10.601  10.957   1.083 -0.1557  0.1314  0.3923
23227W        W39361  11.987   8.414  10.574  0.0462 -0.4043 -0.0849
23228W        W39362   4.167  14.317   0.887  0.1845  0.3051  0.0787
23229W        W39363   6.199   2.266   3.933  0.0828  0.2000 -0.1070
23230W        W39364   8.705  11.139   0.554 -0.1392 -0.0052  0.0348
23231W        W39365   1.498  10.746  11.295  0.2839 -0.2218  0.0619
23232W        W39366   5.819   2.024  11.702  0.0815 -0.0495 -0.1092
23233W        W39367   6.918  11.952  10.967 -0.3183 -0.0192 -0.1258
23234W        W39368   1.104   7.928  10.904  0.0013  0.1007 -0.0455
23235W        W39369   8.974  11.717  14.799 -0.0759  0.1295  0.0785
23236W        W39370   4.152  11.524  11.864  0.1882 -0.2584  0.0607
23237W        W39371  11.960  14.885   1.108  0.1180  0.0008 -0.0464
23238W        W39372   8.331  16.103  11.381  0.0553 -0.0750 -0.1942
23239W        W39373  17.916  14.585   1.786 -0.2049 -0.3549 -0.0541
23240W        W39374  15.831   2.231   2.394  0.0998 -0.0882 -0.4296
23241W        W39375   9.674   0.990   1.221  0.1897 -0.1981  0.0759
23242W        W39376   6.914  11.391  13.295  0.1690 -0.1215  0.0985
23243W        W39377  15.163   0.387  15.231  0.2243  0.2237  0.0386
23244W        W39378  15.797  13.227  10.939 -0.1540  0.3052 -0.3388
23245W        W39379   4.392   4.614   4.891  0.0311  0.0066 -0.0566
23246W        W39380   5.318  16.160   2.929 -0.0893 -0.1485  0.1036
23247W        W39381   6.664   6.972  12.684  0.2577  0.4626 -0.0510
23248W        W39382   9.707  14.442   4.037 -0.5012 -0.2201  0.0227
23249W        W39383   4.597  14.202  14.384 -0.2179 -0.1261  0.2512
23250W        W39384  16.491   0.308  15.182 -0.0072  0.0138 -0.0959
23251W        W39385   9.170   9.841  12.524  0.1756  0.1851 -0.1284
23252W        W39386   9.508   4.827  15.378  0.0092 -0.1107  0.2710
23253W        W39387   0.430   2.902  14.175  0.0644  0.4253  0.1422
23254W        W39388   6.002   8.549   1.499 -0.1851 -0.2684  0.0217
23255W        W39389  13.907   0.858  14.829 -0.2531  0.0543 -0.0418
23256W        W39390  13.621   6.160   5.540  0.1056 -0.0755 -0.1360
23257W        W39391   7.153   6.311   1.628 -0.0452  0.1647  0.1358
23258W        W39392   4.581  15.787  11.924 -0.1489 -0.2039 -0.2822
23259W        W39393   9.513  11.090  10.574 -0.3318  0.0605  0.1564
23260W        W39394   2.921  15.822   0.633 -0.1318 -0.1090  0.1318
23261W        W39395  12.935  14.393  13.030  0.1673  0.0138  0.0142
23262W        W39396  12.541   5.923   1.934 -0.1773 -0.0996 -0.0217
23263W        W39397   3.844   4.421  14.238  0.0671 -0.1511 -0.0562
23264W        W39398  14.304  11.904  13.415 -0.0299  0.1924  0.3080
23265W        W39399  16.376  17.114   1.934  0.0429  0.3492 -0.1769
23266W        W39400   6.461   0.067  10.834 -0.2189  0.2326 -0.2561
23267W        W39401  10.251   6.874   2.028  0.1626  0.0882  0.0859
23268W        W39402   6.990   4.845   0.368 -0.2132  0.2324 -0.3142
23269W        W39403  18.344  11.212   5.779  0.0543  0.1260  0.1848
23270W        W39404  11.691   0.688   3.253 -0.0185  0.1275 -0.1949
23271W        W39405  11.764   6.667   5.197 -0.0820 -0.0257 -0.1841
23272W        W39406  10.126   0.959   4.878 -0.1700 -0.1629 -0.1026
23273W        W39407   7.906   9.388  10.717  0.2529 -0.0800  0.0408
23274W        W39408   8.151   6.241   4.583 -0.0328 -0.0757 -0.1525
23275W        W39409  12.562  17.235   1.466 -0.2313 -0.0989 -0.2046
23276W        W39410  13.618  12.974   1.008 -0.1395 -0.1082 -0.1096
23277W        W39411   7.862  12.614   2.227 -0.3440  0.1091 -0.0687
23278W        W39412   2.248   6.222   6.292  0.2475  0.0001 -0.1167
23279W        W39413   5.140   0.029  13.407 -0.2668  0.1975 -0.0123
23280W        W39414   8.231   1.966   3.042 -0.2333 -0.2418  0.1183
23281W        W39415  16.631   8.029  13.732  0.2079 -0.1278  0.1433
23282W        W39416   4.849   6.253  11.383 -0.0085 -0.2762  0.1727
23283W        W39417   6.535  10.326  14.807  0.2228 -0.0535 -0.1570
23284W        W39418   6.302  11.070   3.896 -0.1817  0.1096 -0.0848
23285W        W39419  12.934   2.715   5.463 -0.0512  0.0415  0.0013
23286W        W39420  18.293  16.399  13.708  0.1096 -0.0364  0.3877
23287W        W39421   2.639   1.580   2.632 -0.1135  0.1203  0.1458
23288W        W39422   5.237   8.744  10.473  0.0933  0.0627  0.1614
23289W        W39423   2.834   6.235   5.612 -0.3514  0.1027 -0.4451
23290W        W39424   0.472   3.359  13.274 -0.0119 -0.2667 -0.0493
23291W        W39425  10.492  17.655  11.509  0.2790  0.1815  0.0623
23292W        W39426   3.444   2.874   3.393 -0.1165 -0.1453  0.3093
23293W        W39427   9.354  16.063  10.462  0.1816  0.0776  0.4120
23294W        W39428  11.536  16.701  13.754 -0.0735  0.2215 -0.0254
23295W        W39429  17.692  15.487  14.741 -0.3282 -0.6187  0.0276
23296W        W39430  13.638   5.108   3.346  0.1530 -0.1015  0.0052
23297W        W39431   3.673   7.679   2.385  0.1577 -0.0950  0.3493
23298W        W39432  18.049  11.148  10.297 -0.0368  0.0011 -0.0283
23299W        W39433  16.068   0.957   4.366 -0.1766 -0.0346  0.1816
23300W        W39434  16.072  11.922  14.699 -0.0361  0.1609 -0.1118
23301W        W39435  16.323  13.541   4.656  0.0961  0.1253  0.1768
23302W        W39436  13.775  17.260  13.546  0.1371  0.2354 -0.0598
23303W        W39437   6.212  11.009  12.208 -0.1552 -0.2024  0.2286
23304W        W39438   6.817  12.017  11.538 -0.3298  0.2787 -0.2165
23305W        W39439   1.648  14.157   1.203  0.0379  0.0620 -0.0967
23306W        W39440   4.624  12.650   0.414  0.1028 -0.1610 -0.2637
23307W        W39441   0.778   1.649  11.573  0.0679  0.0942  0.1749
23308W        W39442  17.215   8.059   1.353 -0.0731  0.2488  0.0865
23309W        W39443   3.863   1.731   2.113 -0.0658  0.1961  0.2100
23310W        W39444  17.257  12.196   1.248  0.0285 -0.2388  0.0812
23311W        W39445  15.801   8.255  12.326 -0.0999  0.1234  0.1041
23312W        W39446  17.025  10.527  12.925  0.0068  0.3822  0.0558
23313W        W39447  16.645   5.819  12.202  0.2779 -0.1235 -0.0064
23314W        W39448  15.439  13.445   0.587 -0.1009 -0.1552  0.2758
23315W        W39449   6.653  13.537  10.116 -0.1432 -0.0667  0.1163
23316W        W39450   2.844  10.953   0.586  0.1243  0.1357 -0.0299
23317W        W39451  17.322  11.562   4.836 -0.0350 -0.0467  0.0465
23318W        W39452   1.744  13.322  10.956 -0.1035 -0.2204  0.0536
23319W        W39453  10.412  12.702  12.770 -0.1214 -0.0951  0.1255
23320W        W39454   6.102  17.602  15.291 -0.0895 -0.1804  0.4626
23321W        W39455  10.367  18.442  13.580 -0.1538 -0.1488  0.0060
23322W        W39456  11.083   9.995   1.107 -0.0843  0.2928  0.1434
23323W        W39457   6.404  16.282  15.156  0.1394  0.0660 -0.2211
23324W        W39458   5.759  10.902  10.896 -0.1477 -0.0164 -0.3369
23325W        W39459  14.983   0.249  13.618  0.2186  0.1309  0.2176
23326W        W39460   9.593  16.654  14.848 -0.1806  0.0507 -0.0410
23327W        W39461   4.917  10.903   3.842  0.1014 -0.3477  0.3243
23328W        W39462  11.386  16.502  11.352  0.2093 -0.1920 -0.0002
23329W        W39463   4.710  13.587  13.285  0.0209 -0.2304 -0.2580
23330W        W39464   6.086   5.813   3.270 -0.0561 -0.3816  0.2808
23331W        W39465  14.761   0.886  12.434  0.1493 -0.0844 -0.1363
23332W        W39466   8.712   1.710   2.864 -0.2053  0.2309  0.0117
23333W        W39467   3.530   0.199   0.404 -0.0714  0.1203 -0.1212
23334W        W39468  16.228  17.280   4.442 -0.1914  0.3266  0.3119
23335W        W39469   6.912   3.009   0.084 -0.0377 -0.1009  0.1506
23336W        W39470   3.557  17.402  10.675 -0.2724  0.0590  0.2043
23337W        W39471   4.466   1.359  14.628  0.1097 -0.1188  0.1931
23338W        W39472   0.853   5.108  14.936  0.2667  0.0972  0.1286
23339W        W39473   8.494   3.290   1.340  0.0775 -0.0676 -0.1955
23340W        W39474  15.016   8.441  11.738 -0.0666 -0.0917  0.2525
23341W        W39475  11.547  18.682  11.361 -0.2941 -0.0649 -0.0831
23342W        W39476  14.457  11.387  12.364  0.0131 -0.0235  0.0567
23343W        W39477   9.807   1.526   4.531 -0.0136  0.1623  0.2256
23344W        W39478  17.993  10.266  14.535  0.2529  0.0877 -0.2044
23345W        W39479  12.991  16.953   5.585 -0.2547 -0.1537 -0.0008
23346W        W39480  11.604  15.959  14.467  0.0395  0.1321  0.2620
23347W        W39481   5.052  12.271   4.203 -0.1397 -0.0920 -0.1084
23348W        W39482  13.136  10.331   1.586 -0.1196 -0.3980  0.1457
23349W        W39483   5.939   0.765   2.012  0.2477 -0.1614 -0.3625
23350W        W39484  14.143  15.946   3.024 -0.1832 -0.2355 -0.1706
23351W        W39485  17.014   6.555  14.271  0.2909 -0.2993 -0.5098
23352W        W39486   9.797  13.116   0.010  0.0139 -0.0056  0.0679
23353W        W39487  11.104  17.554   1.612  0.2861 -0.2333 -0.0920
23354W        W39488  13.025  13.390  10.949 -0.1070 -0.1150 -0.1859
23355W        W39489   3.709   3.032  12.060 -0.2161  0.0018  0.2068
23356W        W39490  16.207  13.415  13.747 -0.0860  0.1858 -0.1939
23357W        W39491  13.795  18.556   1.554  0.1996 -0.3493  0.0507
23358W        W39492   9.845   2.596  12.110  0.0013  0.2693  0.3663
23359W        W39493  15.149   3.235   3.444  0.1575 -0.0400  0.3325
23360W        W39494  16.339   3.567   3.461  0.1946  0.3419  0.1767
23361W        W39495   6.869  13.395   1.432 -0.2303  0.0514 -0.1899
23362W        W39496   3.171  10.555  15.379  0.0472 -0.5155  0.0826
23363W        W39497   1.818   8.658   3.369  0.0490  0.1394  0.0400
23364W        W39498   9.976   5.067   3.393 -0.1793 -0.2910  0.2851
23365W        W39499  15.224   7.752  12.179 -0.1320 -0.2299 -0.1893
23366W        W39500  11.004  10.660   1.420  0.1655 -0.1091  0.2590
23367W        W39501   0.042  15.456   3.293 -0.1465  0.1567  0.1521
23368W        W39502   5.946   4.593   0.608  0.0948 -0.3450 -0.2829
23369W        W39503   9.015   7.311  12.659  0.1086  0.2049 -0.0517
23370W        W39504   9.987  11.032   3.424 -0.0606  0.4084  0.2272
23371W        W39505   4.433   8.850   0.499 -0.0363 -0.3650  0.0977
23372W        W39506   8.044   8.119  15.042 -0.3594 -0.4546  0.0951
23373W        W39507  11.903  17.221  15.251 -0.0196  0.0250 -0.1820
23374W        W39508  15.036   1.542  11.854  0.1267 -0.1894  0.0575
23375W        W39509   9.424  13.480  13.259  0.3135 -0.1220 -0.3960
23376W        W39510   6.327  11.001   2.547 -0.1547  0.1521 -0.2596
23377W        W39511  16.472   7.660  15.366  0.0888 -0.1009 -0.0189
23378W        W39512  15.770  14.685  10.992 -0.0714 -0.0895  0.0137
23379W        W39513   5.079  12.105  15.033  0.0080 -0.0626 -0.2904
23380W        W39514   8.071  16.465   0.684 -0.0519  0.0492 -0.0730
23381W        W39515   5.357  11.632   3.770 -0.0370 -0.0778 -0.2630
23382W        W39516   1.209   0.130   4.892 -0.1789 -0.0249  0.1492
23383W        W39517   1.613  16.281  11.557  0.2034  0.2618 -0.2137
23384W        W39518  11.667   6.729   3.168  0.2651  0.2824 -0.1711
23385W        W39519   5.688   9.247  11.258  0.0484  0.2315  0.2585
23386W        W39520  12.462  16.143  14.080  0.0771  0.1409  0.1904
23387W        W39521   8.636  14.442  11.479  0.0903 -0.0248  0.1224
23388W        W39522   1.348  13.005   5.339 -0.0617  0.3570 -0.0539
23389W        W39523   0.669   6.586   4.487  0.2691 -0.0652  0.1331
23390W        W39524   9.778   2.176  11.573 -0.3808 -0.0136  0.0681
23391W        W39525   3.449   5.576   1.026  0.3711 -0.2163  0.0277
23392W        W39526   6.020   0.255  15.015  0.1361  0.1145  0.0030
23393W        W39527  16.641   3.591   5.329  0.1163 -0.4151 -0.2594
23394W        W39528  17.010   0.767  13.495 -0.0124  0.0687  0.1930
23395W        W39529  14.708   5.421   4.275 -0.0170  0.0639  0.0728
23396W        W39530  14.415   8.635  13.219 -0.1628  0.0372  0.1025
23397W        W39531  15.080   4.150  13.305  0.0604 -0.1040 -0.1116
23398W        W39532   4.096   8.226   4.416 -0.2728  0.0651 -0.1600
23399W        W39533   4.455  14.279   0.327 -0.2595 -0.2627 -0.2093
23400W        W39534  11.170  16.343   5.215  0.0658  0.0668 -0.3178
23401W        W39535   9.249  17.296   3.921 -0.1824 -0.0965 -0.1160
23402W        W39536  15.121   7.434   4.510  0.1906 -0.2191  0.2466
23403W        W39537  12.812  13.372  12.445 -0.1133  0.0073  0.0010
23404W        W39538  12.658   8.306   5.050  0.1332 -0.1276 -0.0070
23405W        W39539   7.614  17.683   2.776  0.3625  0.1599  0.1649
23406W        W39540  10.911   5.224  13.053  0.1218  0.0684 -0.0865
23407W        W39541   3.756   9.336   5.178 -0.1671 -0.0544  0.0270
23408W        W39542  17.421   7.270  14.618  0.2070  0.4456 -0.2190
23409W        W39543   0.417  13.254   1.110  0.0258  0.1947  0.0171
23410W        W39544   2.461   8.035   2.959  0.3237  0.1427 -0.0615
23411W        W39545   8.925   3.770  14.208 -0.1259  0.3372  0.0550
23412W        W39546  10.089   2.368  14.176  0.0828 -0.1076  0.1932
23413W        W39547  16.878   8.259   3.789  0.0521  0.4251 -0.1146
23414W        W39548  10.438   9.296  12.756  0.2867 -0.2579 -0.1879
23415W        W39549   3.862  14.646  12.918 -0.1216 -0.0801  0.2320
23416W        W39550   7.485   8.367   1.091 -0.3436  0.4038  0.0392
23417W        W39551  17.496   3.474   0.275  0.0067 -0.0773  0.0242
23418W        W39552  17.013  16.743   1.867  0.0939  0.0208 -0.1378
23419W        W39553   6.172  11.778  15.390 -0.0298  0.3067  0.5449
23420W        W39554   8.985   5.880   4.096  0.1039  0.2500 -0.1411
23421W        W39555  15.963  16.270  14.878 -0.2777  0.3257 -0.1735
23422W        W39556   1.697  16.819   2.707 -0.2340 -0.0394 -0.0025
23423W        W39557   4.091   6.565   4.498  0.0481  0.1372 -0.1222
23424W        W39558  15.424  11.700   4.588 -0.0668  0.1128 -0.1783
23425W        W39559   6.025   0.094   4.597 -0.0956  0.1115 -0.2990
23426W        W39560  13.982   2.499  15.196 -0.1122 -0.1419 -0.0246
23427W        W39561   2.044  17.540   1.210  0.0348  0.1581 -0.1513
23428W        W39562  11.300  12.920   2.667 -0.2010 -0.0302  0.2003
23429W        W39563  12.522  18.369  14.595 -0.0165  0.0339 -0.1153
23430W        W39564   7.395  11.620  12.961  0.3779 -0.0606  0.3168
23431W        W39565  14.157  11.798   2.995  0.0536 -0.2139  0.2157
23432W        W39566   1.360  16.108   3.502  0.1927 -0.1003 -0.1411
23433W        W39567   5.800   7.521   3.998  0.0755 -0.2069 -0.0642
23434W        W39568   7.851   3.553  13.304 -0.1018  0.0338  0.0645
23435W        W39569   5.558  18.439  11.325  0.2659  0.0295  0.0592
23436W        W39570   0.405  14.721  14.907 -0.2664 -0.1210  0.0402
23437W        W39571   2.489  15.428   1.319 -0.1331  0.0583 -0.1409
23438W        W39572   3.680   0.017  14.917 -0.1546 -0.2978 -0.2855
23439W        W39573   0.200  13.188  15.463  0.0836  0.1114  0.0408
23440W        W39574   6.232   0.676  13.071 -0.0212  0.0098  0.0085
23441W        W39575   9.481  14.142   2.416 -0.1264  0.0531  0.0101
23442W        W39576  13.132   4.354  10.205  0.0419 -0.2225 -0.0032
23443W        W39577  17.824  11.656  13.659 -0.2981  0.0357 -0.0977
23444W        W39578  12.907   4.588   0.002  0.1149 -0.0985  0.2008
23445W        W39579  10.496   9.128   5.462  0.2982  0.0362 -0.3800
23446W        W39580  12.048  17.414  13.220  0.0344  0.1661  0.1253
23447W        W39581   1.555   6.985  10.910  0.3097 -0.1278  0.0867
23448W        W39582   9.084   8.657  11.078  0.0014 -0.1599 -0.3489
23449W        W39583   9.355  14.511   1.714 -0.0509  0.2426 -0.2090
23450W        W39584  17.787  10.457   5.937 -0.3913 -0.0162  0.1285
23451W        W39585   7.712   4.024   3.838  0.1213  0.0251  0.1557
23452W        W39586   3.879  11.580   2.050 -0.2295  0.1207 -0.0723
23453W        W39587  10.798  16.838  15.148  0.1393 -0.1012  0.2141
23454W        W39588   3.476  12.231  15.028  0.1520 -0.0354 -0.1828
23455W        W39589  10.083   5.960  12.221  0.2854  0.0984  0.0377
23456W        W39590  10.000  11.937   2.982 -0.0485  0.1061  0.1610
23457W        W39591   8.670   5.447   5.502  0.0055  0.1023 -0.2238
23458W        W39592   3.989  13.951   1.392 -0.2337  0.4061 -0.0496
23459W        W39593  18.029  12.719   0.749  0.0543  0.3687  0.0382
23460W        W39594  13.330  12.991   1.366  0.1293 -0.5540  0.1139
23461W        W39595   2.579   7.954   2.474 -0.0461  0.1532  0.0197
23462W        W39596   9.880   0.920   1.748 -0.1092  0.5173 -0.3457
23463W        W39597  10.742  11.520   4.668  0.1788 -0.0143  0.0324
23464W        W39598   3.141   0.223   3.526 -0.0092 -0.1808  0.0459
23465W        W39599  14.180   7.217   2.731 -0.1257  0.0024  0.3276
23466W        W39600   6.688  16.160   0.872  0.1507 -0.1699  0.0053
23467W        W39601   9.772   3.962  14.979  0.0869 -0.3315  0.0867
23468W        W39602   9.015  10.368  14.174 -0.1134  0.0311 -0.1765
23469W        W39603  17.615  16.301  12.417  0.1597  0.1089  0.0635
23470W        W39604  16.197   9.522   0.660  0.2781  0.0542  0.0378
23471W        W39605  10.283  11.891  10.947  0.5175 -0.0730  0.1495
23472W        W39606  12.195  10.645  14.085 -0.0576 -0.1298 -0.1032
23473W        W39607  14.926   7.119  10.190 -0.3006  0.2613 -0.1157
23474W        W39608   1.295  12.293  13.399 -0.1484  0.2567  0.0552
23475W        W39609   9.531   1.723  11.728  0.1876  0.0677 -0.0893
23476W        W39610  13.741   3.517  15.279  0.1054 -0.2951  0.1210
23477W        W39611  15.487  18.238   3.210 -0.0647 -0.1241  0.1276
23478W        W39612  18.132   9.767  11.592  0.2055 -0.1598 -0.2096
23479W        W39613  18.443   6.541  13.954 -0.0328  0.2251 -0.2082
23480W        W39614  15.801   4.549   2.013 -0.1140  0.0051 -0.0371
23481W        W39615  11.322  16.241  12.284  0.3757 -0.0076 -0.2497
23482W        W39616  12.846  16.933   3.703 -0.0134 -0.1918 -0.0507
23483W        W39617   1.884  14.486   4.255  0.2472  0.1187  0.0952
23484W        W39618   0.556  14.093   1.328 -0.1814 -0.2212 -0.1458
23485W        W39619   2.480  15.625   4.620 -0.1361 -0.0991 -0.0718
23486W        W39620   8.161   5.395   5.623  0.0819  0.1366 -0.3805
23487W        W39621  11.912  15.376  12.548  0.0424 -0.1132  0.0729
23488W        W39622  16.758  18.314   4.036  0.1581 -0.3540 -0.3411
23489W        W39623   1.430  13.261   2.656  0.0936  0.3867  0.1267
23490W        W39624   8.996   7.123   0.199 -0.0535 -0.3320 -0.1253
23491W        W39625   8.847  17.608   0.624  0.1297  0.1975  0.0258
23492W        W39626   3.368   0.684   0.911 -0.2143  0.1255  0.2832
23493W        W39627   0.232  11.348   3.795 -0.0912  0.1345  0.2927
23494W        W39628   5.058  16.699   4.786  0.2471 -0.0171  0.0542
23495W        W39629   1.333   2.000   3.195  0.0290  0.1560  0.0987
23496W        W39630   3.584   5.056   0.893  0.1014 -0.0903 -0.2170
23497W        W39631   2.869  11.454   4.719 -0.1743  0.2196 -0.1108
23498W        W39632   3.990   6.927  13.593 -0.1242  0.1866 -0.1025
23499W        W39633  12.406  14.622   3.166 -0.0200 -0.1946 -0.2204
23500W        W39634   6.853   2.594  15.343  0.2406  0.0257  0.0739
23501W        W39635   9.509   5.880   3.008  0.0669  0.1857  0.1003
23502W        W39636  16.261   0.352  14.180  0.1894 -0.0108  0.0703
23503W        W39637   8.700  10.504   3.382 -0.0858 -0.0862 -0.0907
23504W        W39638   4.908  13.106   5.298 -0.0956 -0.0809  0.1420
23505W        W39639   9.961   3.705  12.267  0.3451  0.1020  0.2032
23506W        W39640   9.369  17.067  13.957 -0.2020 -0.6103  0.1475
23507W        W39641   3.207   1.814  12.768 -0.0632  0.1598  0.1518
23508W        W39642   3.470  10.876   3.886  0.1491  0.0007  0.1052
23509W        W39643  12.915  17.248  12.455  0.1560 -0.1404  0.3838
23510W        W39644  12.421   9.824   9.958 -0.1699  0.2102  0.1146
23511W        W39645   7.570   9.829  11.553  0.3506  0.1000 -0.1075
23512W        W39646   7.113  14.649  15.440 -0.4438 -0.0353 -0.2191
23513W        W39647  18.724   4.668   5.091  0.0591  0.0949 -0.2333
23514W        W39648  15.444  18.462  11.644 -0.0424  0.0992  0.2219
23515W        W39649   5.875   2.517  13.537 -0.2147  0.2802 -0.0686
23516W        W39650  12.200  18.568  14.948 -0.0072  0.1322 -0.0180
23517W        W39651   6.643  12.355  11.126  0.0417 -0.2591  0.0343
23518W        W39652   0.770  13.542   3.437 -0.0315  0.0980  0.0454
23519W        W39653   6.127   4.479  13.657 -0.0930  0.0594  0.1768
23520W        W39654   6.562   1.227  15.293 -0.1400  0.3117 -0.1800
23521W        W39655  16.762  14.335   2.708 -0.1125  0.3113  0.0482
23522W        W39656  10.080   0.676   1.414 -0.0836 -0.2745  0.0186
23523W        W39657  12.140  10.232   4.898  0.0289 -0.0266 -0.1893
23524W        W39658  16.613   0.883   1.251  0.1054  0.0122 -0.0883
23525W        W39659  12.093  14.474  10.789  0.0860  0.1934 -0.0688
23526W        W39660  10.791   1.242  13.985  0.0220  0.2489 -0.1981
23527W        W39661   6.729  13.747  11.612 -0.2566 -0.0878  0.0385
23528W        W39662  16.610  11.310  11.824  0.2094 -0.2798 -0.1155
23529W        W39663   3.887   9.892   0.725 -0.0583  0.1404 -0.4198
23530W        W39664   2.167  15.530  12.974  0.2528  0.0479 -0.0469
23531W        W39665  18.533  18.351  13.550 -0.0101 -0.5354  0.2148
23532W        W39666   8.787  10.913   3.745  0.0137  0.2045  0.0856
23533W        W39667   1.129  13.862   3.319  0.1185  0.1268 -0.0430
23534W        W39668   1.912   3.427   1.322 -0.0303 -0.0500 -0.1912
23535W        W39669   4.747  18.567  10.976 -0.0335 -0.1447  0.0018
23536W        W39670  16.824  11.117   0.744  0.1121  0.1852 -0.0042
23537W        W39671  10.641  18.398   1.592 -0.2832 -0.0338 -0.1850
23538W        W39672  12.066   9.481   2.071 -0.3282 -0.1016  0.0237
23539W        W39673  11.554   1.663  11.193 -0.0501 -0.0002  0.0437
23540W        W39674   3.351   1.214   2.436  0.1487  0.0419 -0.1522
23541W        W39675  12.184   1.722  13.896 -0.3961 -0.3980  0.1050
23542W        W39676   7.657  14.727   1.557 -0.4484 -0.2118  0.1531
23543W        W39677   8.538   0.934   4.538  0.0408 -0.1226  0.0623
23544W        W39678   7.236  11.208  14.039  0.1041  0.1038 -0.5183
23545W        W39679   3.319  15.621  11.529 -0.1029 -0.1184  0.0429
23546W        W39680  15.370  13.510  13.289  0.0698  0.0232 -0.2273
23547W        W39681  11.743   5.267  14.603 -0.2104  0.0966 -0.0382
23548W        W39682   0.583  14.880  11.346 -0.0058 -0.2932 -0.2127
23549W        W39683   5.370   7.454  12.955 -0.2202 -0.1014  0.1096
23550W        W39684  14.996  13.626  14.156  0.2948  0.0111  0.3166
23551W        W39685   6.775   2.727   5.705  0.0130 -0.0191  0.0745
23552W        W39686   6.538  12.162  13.120  0.1797  0.1064  0.0075
23553W        W39687  17.857   1.145  11.120  0.3126  0.1806 -0.0356
23554W        W39688   2.286  15.113  14.278  0.2918 -0.2787  0.0572
23555W        W39689   7.646   3.817  14.313  0.2765 -0.0738 -0.0734
23556W        W39690  15.543   6.347  11.395  0.1417  0.0578 -0.0756
23557W        W39691  13.960  17.992   4.281  0.0506 -0.0557  0.3844
23558W        W39692   4.967   9.129   4.829  0.0619 -0.3130 -0.0069
23559W        W39693   3.666  16.550  11.081 -0.1213  0.0326  0.1192
23560W        W39694   2.748  10.292  15.474 -0.1065  0.0748 -0.1057
23561W        W39695  18.287   3.740   5.112 -0.0538 -0.1030  0.0223
23562W        W39696  10.378   2.557  12.816 -0.4289  0.4342 -0.0738
23563W        W39697  16.753   0.884  12.352 -0.0284  0.2501 -0.0173
23564W        W39698   9.513   9.506  12.644  0.1976 -0.1983 -0.0843
23565W        W39699  10.331   2.755   5.539 -0.0434 -0.4076  0.0619
23566W        W39700   0.457   0.102   0.934  0.0022 -0.1509  0.0366
23567W        W39701   1.620   6.580  12.389  0.0283  0.0470 -0.1151
23568W        W39702   5.254  16.062  14.226 -0.3794 -0.0444 -0.2049
23569W        W39703   6.405   8.887   5.249 -0.2513 -0.0850  0.0182
23570W        W39704   9.851  16.496   2.948 -0.0501 -0.0019 -0.0143
23571W        W39705   0.352   2.532   0.882 -0.1634 -0.1745  0.3121
23572W        W39706   4.580   9.352   3.022 -0.2741 -0.2740  0.3170
23573W        W39707   1.765  12.477  13.770 -0.2921 -0.0029  0.4010
23574W        W39708  12.303   2.726   0.329 -0.1570  0.0919  0.0044
23575W        W39709   9.346   3.937  11.618  0.0768 -0.1543  0.1555
23576W        W39710  15.082   4.706   0.453  0.2432 -0.4501 -0.1038
23577W        W39711  17.535  15.259  11.722 -0.1811 -0.1808 -0.0811
23578W        W39712  18.708  16.439   0.787  0.1711  0.2647 -0.2005
23579W        W39713   5.408  16.290  13.634 -0.2889 -0.2411 -0.1994
23580W        W39714   3.984   3.440  13.425 -0.0318  0.4214  0.1989
23581W        W39715   5.876   4.173   2.319  0.3480 -0.1027  0.0850
23582W        W39716  15.923   6.791   1.220  0.1879  0.1364  0.0053
23583W        W39717   1.408  17.513  11.624 -0.1993 -0.2346  0.1244
23584W        W39718  11.515   3.530   4.772 -0.0162  0.3226 -0.2517
23585W        W39719   7.993  16.784   2.155  0.1145 -0.1017  0.1243
23586W        W39720   5.352   7.588   2.271 -0.3566 -0.2765  0.0709
23587W        W39721  10.996   2.212   2.352 -0.1257  0.0500 -0.0126
23588W        W39722   2.423   9.516   2.582  0.2987 -0.1499 -0.1525
23589W        W39723   5.681   2.634  14.617  0.4092  0.0075 -0.0204
23590W        W39724  11.902  17.738  10.652  0.0698 -0.0315  0.3318
23591W        W39725  18.558   2.502   1.512 -0.0519 -0.0588  0.1581
23592W        W39726  15.796  11.861   3.367  0.0558 -0.1201  0.1800
23593W        W39727   4.792  10.062   5.611  0.1985  0.0183 -0.1566
23594W        W39728   9.652   9.365   4.263 -0.4046 -0.5336  0.0547
23595W        W39729   6.089  11.290  14.232 -0.0358 -0.0617 -0.0276
23596W        W39730   4.730  14.251   1.576  0.0991  0.0960 -0.2061
23597W        W39731   0.744   8.953   3.401 -0.4602 -0.0855  0.1135
23598W        W39732  11.840  15.193  11.612  0.1221  0.0567  0.1424
23599W        W39733   2.049   6.503  12.054  0.1834  0.1277 -0.3106
23600W        W39734   9.813   4.633  14.578 -0.0262  0.0901 -0.1650
23601W        W39735  15.650  17.429  15.122 -0.0276 -0.3233 -0.2953
23602W        W39736  13.318  12.949   2.363  0.0947 -0.1799  0.3025
23603W        W39737  14.065   0.990  10.191  0.4755 -0.1746  0.1132
23604W        W39738  14.209  12.396  13.441  0.0270 -0.0895  0.0233
23605W        W39739   7.855  18.497   3.886 -0.4068 -0.0007  0.0001
23606W        W39740   0.494  10.033  15.290  0.0944  0.0733  0.2456
23607W        W39741   5.447  16.262   9.615  0.1959  0.0448 -0.0830
23608W        W39742   5.536  14.865  14.555 -0.0183 -0.0253  0.0598
23609W        W39743  13.517   8.392   3.410 -0.0854 -0.2148  0.0043
23610W        W39744  18.358   5.220   4.049 -0.2370 -0.0116  0.2953
23611W        W39745  12.715   2.858  13.806 -0.1818  0.2952 -0.0850
23612W        W39746  12.468  12.506   0.870  0.3036  0.0450  0.1165
23613W        W39747  13.195  18.182  11.820 -0.1367  0.1151  0.0353
23614W        W39748  14.256   4.103  10.066  0.1626 -0.0078 -0.0028
23615W        W39749   0.088  18.700  11.570 -0.0103  0.0130 -0.0057
23616W        W39750  13.890  14.249   3.700  0.0622 -0.0160  0.0225
23617W        W39751  13.582   4.383   2.347 -0.1715 -0.0930 -0.0549
23618W        W39752  15.033  16.900  11.991 -0.3575 -0.0990 -0.1929
23619W        W39753   7.449  18.199  11.176  0.0670  0.2938 -0.3354
23620W        W39754  13.131  16.482   3.896  0.1327 -0.3258  0.0437
23621W        W39755  13.667   8.369   2.033  0.0893  0.2020  0.3100
23622W        W39756  13.857   9.949  10.518  0.1042 -0.0464  0.0615
23623W        W39757   4.759   2.385  11.114  0.1358 -0.1650 -0.1986
23624W        W39758   7.823  11.837  10.568 -0.2449  0.2171  0.1205
23625W        W39759  10.950  15.040  11.753  0.0696  0.1607 -0.0525
23626W        W39760   7.766  15.141   1.342 -0.1481  0.1667  0.3489
23627W        W39761   2.146  11.637  15.059 -0.4209 -0.1693  0.2419
23628W        W39762   1.592   5.233  13.422  0.1852  0.1150  0.2335
23629W        W39763  16.583   0.089   0.999 -0.0623  0.0508  0.0409
23630W        W39764   1.853   7.556   0.868  0.0126  0.2665 -0.0677
23631W        W39765   8.884  16.127   0.774  0.0794  0.2039  0.0882
23632W        W39766  12.123  14.965  10.803  0.0097 -0.0699 -0.3236
23633W        W39767   9.655  16.247  11.364 -0.0365 -0.3878 -0.2431
23634W        W39768  17.857   9.606  15.042  0.0670 -0.0839 -0.1417
23635W        W39769  18.361  16.364   3.056  0.2332 -0.1444 -0.1012
23636W        W39770   6.192  14.736   4.435  0.2041 -0.3205 -0.3217
23637W        W39771   5.166   8.311   1.117  0.0473 -0.0991  0.2300
23638W        W39772  11.216  16.674  14.135  0.1062 -0.1322  0.1139
23639W        W39773   7.709  11.957  14.272 -0.1044 -0.1459  0.0085
23640W        W39774  16.396   6.517   3.617  0.1046  0.0734  0.1019
23641W        W39775   2.477   5.750  12.369 -0.3063  0.1693 -0.1738
23642W        W39776   7.644   0.347   3.223  0.3722 -0.2540 -0.1084
23643W        W39777  12.160   7.851  14.769  0.1825  0.0817  0.0890
23644W        W39778   8.391   6.581   6.118  0.1819 -0.2522  0.2539
23645W        W39779   4.690   9.286   5.265 -0.0347 -0.1412 -0.0818
23646W        W39780   1.625   7.143   0.515 -0.3764  0.0835 -0.1045
23647W        W39781  10.413   7.425  15.316  0.1734 -0.1176  0.0820
23648W        W39782   7.299   4.010   2.927 -0.1153  0.0973  0.1561
23649W        W39783  14.504  10.561   4.051  0.0470 -0.1435  0.0346
23650W        W39784   4.599   6.156  14.003  0.0138  0.2701 -0.1462
23651W        W39785   1.828   2.266   1.477 -0.0659 -0.0938  0.0533
23652W        W39786  15.588  16.337  13.308 -0.1865 -0.0158  0.2351
23653W        W39787  18.722  17.349   1.201 -0.1416  0.0356 -0.0218
23654W        W39788   9.088  11.963  11.052 -0.0681  0.0663  0.0112
23655W        W39789  10.278  17.146  13.173 -0.0453  0.1082 -0.3242
23656W        W39790  17.120  17.038   1.419 -0.3038  0.4315  0.1988
23657W        W39791   0.335  16.097   0.343  0.0501  0.0438  0.2292
23658W        W39792  18.661  17.416   2.078  0.0596  0.0592  0.1933
23659W        W39793  14.350   8.649  14.764 -0.0155 -0.0462 -0.1020
23660W        W39794   4.556   5.748   2.171  0.3105 -0.0224  0.0517
23661W        W39795  18.470  15.597  14.765 -0.1282  0.1264 -0.2382
23662W        W39796  15.493  16.491   3.719  0.1692  0.3904  0.2467
23663W        W39797   8.119  14.224  11.602 -0.1497  0.0360 -0.0029
23664W        W39798  10.678   0.246   0.778  0.3901  0.1698  0.3277
23665W        W39799   8.299   5.549   5.112  0.1338 -0.0470  0.2473
23666W        W39800  14.575   7.624   3.078 -0.0292  0.0130  0.0517
23667W        W39801   5.248  12.742  15.371 -0.0490 -0.0225  0.3058
23668W        W39802   5.691   3.553   3.156  0.2308  0.1765  0.0466
23669W        W39803   9.300   9.722  14.531  0.1186  0.1377 -0.1348
23670W        W39804   3.405  15.735   4.087 -0.4339 -0.1740 -0.0975
23671W        W39805  10.636  13.275   4.407  0.0927  0.2974 -0.0525
23672W        W39806   4.955  18.465  12.988  0.0695 -0.2562  0.1456
23673W        W39807  12.322   0.227  14.597 -0.1212  0.0928  0.1707
23674W        W39808  14.257  15.176   0.188 -0.1296 -0.0093  0.0189
23675W        W39809  10.041   6.379   6.335  0.0670  0.0099 -0.1368
23676W        W39810  16.170   9.327  11.890 -0.1046 -0.1576  0.0385
23677W        W39811   6.147  15.655  15.401  0.2703  0.0555  0.2339
23678W        W39812   5.342  11.638  14.803  0.2492 -0.1115  0.0097
23679W        W39813  10.168   5.020   4.392 -0.0048 -0.0895  0.4273
23680W        W39814   5.109  17.331   3.713 -0.1572  0.1321  0.2063
23681W        W39815   8.022  10.358   4.859 -0.0061  0.0490 -0.1227
23682W        W39816   8.506  14.026   5.579 -0.2413 -0.5446  0.1981
23683W        W39817   3.018   6.819   4.402  0.0799 -0.2061 -0.1751
23684W        W39818  15.233   0.786  15.516 -0.2416 -0.2365  0.0133
23685W        W39819  12.591  15.667  11.230 -0.1640  0.0590  0.0296
23686W        W39820  17.591   1.885   2.403 -0.2200 -0.0607 -0.1397
23687W        W39821   0.060  17.009  12.540  0.1012 -0.1705  0.1664
23688W        W39822   3.470   9.639   0.893 -0.0868 -0.0957  0.0864
23689W        W39823   0.680   6.798   4.997  0.2366 -0.1048 -0.1250
23690W        W39824   4.050   1.970   4.228 -0.0722  0.0564 -0.2375
23691W        W39825  10.354   8.442  14.933  0.0170 -0.0125  0.1474
23692W        W39826  15.679   5.895   0.017 -0.3589  0.1109  0.1847
23693W        W39827  11.341  17.515   3.315 -0.0945  0.0408  0.0586
23694W        W39828   4.717   6.591  13.810 -0.2079 -0.0559 -0.2662
23695W        W39829  10.439   9.546   4.663  0.0500 -0.0921 -0.0969
23696W        W39830  14.376   2.911  13.208 -0.2332 -0.1039 -0.0533
23697W        W39831   3.588  16.752   1.084  0.2628  0.1358  0.1874
23698W        W39832  14.703   0.477   0.450 -0.1861  0.1436  0.0791
23699W        W39833  18.374   7.513   2.185 -0.0808 -0.2674  0.0833
23700W        W39834   0.679  13.527   4.720  0.3292 -0.0340 -0.2020
23701W        W39835   0.759  15.339  11.199  0.1020 -0.1209 -0.3112
23702W        W39836   1.427  10.775   2.859  0.2696  0.2358  0.0995
23703W        W39837  13.575   4.125   4.757 -0.0195  0.1311 -0.3330
23704W        W39838  11.269   0.385  13.055  0.1777  0.0138  0.2269
23705W        W39839   1.772  13.125   2.139  0.0872  0.0586  0.0717
23706W        W39840   7.953   9.125  11.620 -0.3754  0.2127 -0.0572
23707W        W39841   4.805  12.278   9.496 -0.3008  0.2038 -0.1271
23708W        W39842  15.768   4.096  13.275 -0.2869  0.1628 -0.0864
23709W        W39843  10.171  12.024  12.917 -0.0983 -0.2460  0.0007
23710W        W39844   6.292  13.050  12.513  0.2403 -0.0691  0.0365
23711W        W39845  12.726   9.425  13.395 -0.1880 -0.0483  0.0641
23712W        W39846  16.682   0.823   5.153  0.3109  0.2733 -0.1559
23713W        W39847   8.813   8.642  13.651 -0.0554  0.1790  0.1151
23714W        W39848   9.267  17.274  13.495  0.1307  0.0549  0.3048
23715W        W39849   9.845  17.111   3.154 -0.2874  0.0100  0.1387
23716W        W39850   8.044   3.676  15.137  0.0554  0.0684 -0.0465
23717W        W39851   3.913  13.380   0.366 -0.1250 -0.0506  0.0998
23718W        W39852   1.691  18.152   5.541  0.1446 -0.0202  0.3127
23719W        W39853   7.599   0.413  12.868 -0.1278 -0.2221  0.1457
23720W        W39854   0.623  11.095   5.415  0.2309 -0.0431 -0.0163
23721W        W39855   6.292   4.464  14.157  0.1594 -0.2798  0.0147
23722W        W39856   0.423   3.150  11.486  0.0118 -0.1001  0.2152
23723W        W39857   7.140   4.742   3.680 -0.0298 -0.2490 -0.1107
23724W        W39858   3.340  11.474   2.899 -0.2970 -0.1328  0.2281
23725W        W39859   8.033   2.494   1.742  0.0767 -0.0220 -0.0146
23726W        W39860   3.319  11.122   0.377 -0.3281 -0.1241  0.3656
23727W        W39861   7.511  15.780   4.349 -0.0137 -0.0266 -0.0242
23728W        W39862  14.109   7.980  13.281  0.2149  0.2219 -0.2195
23729W        W39863   8.215  15.849  12.502 -0.2640 -0.1012 -0.0279
23730W        W39864   1.757   8.753   2.699 -0.3159  0.2754 -0.0189
23731W        W39865   5.517  18.304   0.021  0.3650 -0.3647  0.0626
23732W        W39866   9.482   5.353  14.624  0.0465  0.0052  0.2856
23733W        W39867   2.239   6.500   0.789  0.0082 -0.2148 -0.1345
23734W        W39868   9.236  17.219   3.065  0.1737  0.3980  0.0076
23735W        W39869  14.794   2.537  11.467  0.1423  0.0005 -0.0030
23736W        W39870   8.863   3.542   3.858 -0.1616  0.2052 -0.0018
23737W        W39871   9.285   9.503   2.862 -0.4347 -0.1546 -0.0638
23738W        W39872   6.202  15.713   0.953  0.1636  0.0454  0.0037
23739W        W39873   1.518  15.147  14.912  0.1785  0.0904  0.0148
23740W        W39874  11.761   4.311  11.552 -0.2224 -0.1079  0.0849
23741W        W39875   9.278   9.910   3.252  0.2121  0.1832  0.1655
23742W        W39876   3.220   2.932   3.880  0.1148  0.0327 -0.1898
23743W        W39877  11.204   3.391   2.094 -0.2007  0.1645  0.0962
23744W        W39878  14.831   1.383  12.700 -0.2931 -0.1552  0.1750
23745W        W39879   1.038  10.004   4.246  0.1624  0.2736  0.0181
23746W        W39880  15.558  15.208   4.213 -0.2015 -0.1051 -0.0883
23747W        W39881   7.441  15.141  13.343 -0.2539  0.2558 -0.0126
23748W        W39882   7.619  16.288  13.816  0.1368  0.2829 -0.1461
23749W        W39883  18.013   9.970  12.064 -0.2497  0.0393  0.2701
23750W        W39884  13.237  15.428   4.503 -0.3318 -0.1672 -0.0511
23751W        W39885  10.060   1.226   0.905  0.1353 -0.2854 -0.3990
23752W        W39886   0.473  12.035   0.754 -0.3328 -0.2277 -0.0477
23753W        W39887   8.950  14.470  10.874 -0.2061 -0.2342  0.3551
23754W        W39888   5.939  16.625   0.420  0.0953 -0.2498 -0.0858
23755W        W39889  13.427   3.658   5.079  0.4174 -0.3408 -0.0675
23756W        W39890   1.727   4.538   1.858  0.1602  0.0760  0.1103
23757W        W39891  11.774  16.318   5.204  0.3847  0.0996  0.1335
23758W        W39892   9.054   5.704   3.030 -0.1564 -0.2433 -0.0602
23759W        W39893  13.256  13.752  12.000  0.2042  0.2067 -0.0052
23760W        W39894   4.524  18.296  13.079  0.1847  0.2070  0.2438
23761W        W39895   7.231  16.679  14.828  0.3225  0.0185  0.0907
23762W        W39896  17.304  16.786  12.937 -0.2568 -0.0921  0.3454
23763W        W39897   0.989   3.524   2.866  0.0854 -0.0277  0.0810
23764W        W39898   4.669   6.865   6.027  0.0879 -0.3272  0.0639
23765W        W39899  12.657  14.133   0.093 -0.1111 -0.1003  0.1413
23766W        W39900  15.604  12.462  15.327 -0.0412 -0.0017 -0.1083
23767W        W39901   5.418   7.530   3.071  0.1178 -0.0863 -0.0309
23768W        W39902   3.222   3.290   1.400  0.2417  0.1519  0.1102
23769W        W39903   6.251   1.288  10.469  0.1485  0.1162  0.0873
23770W        W39904  18.494   7.985   5.149  0.2395  0.0309 -0.1083
23771W        W39905   4.215  14.145  14.933 -0.1785 -0.0745  0.0760
23772W        W39906  13.237  15.909  14.313  0.0082  0.2313  0.1332
23773W        W39907  15.626   8.067  15.171 -0.0222  0.3052  0.1919
23774W        W39908  18.131  10.897  13.630 -0.4659 -0.3836  0.0798
23775W        W39909   8.683   7.655  12.784 -0.1379  0.2513  0.0660
23776W        W39910   7.524   4.484   3.041 -0.1299 -0.0131 -0.2236
23777W        W39911  13.692  13.708  10.677  0.2069 -0.1068 -0.2135
23778W        W39912   6.027   3.538   4.842  0.1174  0.0021 -0.0950
23779W        W39913   5.435   1.701  13.723 -0.2402 -0.2126 -0.3860
23780W        W39914  12.273   5.322  13.563  0.3858 -0.2493  0.4481
23781W        W39915   3.516  10.704   3.383 -0.2686 -0.2230  0.1350
23782W        W39916  15.639  17.211  14.361  0.2394  0.0989 -0.0757
23783W        W39917  16.500   4.123  13.417  0.3439  0.1796  0.0865
23784W        W39918   7.594  15.125   2.430 -0.0408 -0.1915 -0.2067
23785W        W39919   6.327   7.982  14.841 -0.4534  0.0536 -0.2022
23786W        W39920   5.887   1.043   3.842 -0.2275 -0.1079 -0.0791
23787W        W39921  11.693   5.516   4.561 -0.2402  0.3744  0.2027
23788W        W39922   7.608  11.770  15.493 -0.1413  0.1614 -0.1924
23789W        W39923  17.113   4.420  14.277  0.3157  0.1267 -0.0026
23790W        W39924   9.485  16.035  12.826  0.0490 -0.0034 -0.0713
23791W        W39925   6.060   3.148   4.091 -0.2696 -0.0110 -0.0999
23792W        W39926   6.856   6.697  12.339 -0.1681  0.3050 -0.0352
23793W        W39927   1.947   7.493  15.468 -0.4148  0.1744  0.1722
23794W        W39928   5.024   4.525  12.467 -0.0763 -0.1378  0.1467
23795W        W39929  11.725  17.865   4.630  0.1987 -0.0382  0.1974
23796W        W39930   9.613  17.708   1.526 -0.0496  0.0237  0.0020
23797W        W39931   3.757   5.647  14.140 -0.2954  0.0160 -0.2298
23798W        W39932   1.671   0.432   5.067 -0.0088 -0.1560  0.0456
23799W        W39933   1.746   7.974  15.526 -0.4104 -0.2503  0.2587
23800W        W39934   3.584  12.740  11.175  0.1825 -0.0632 -0.0081
23801W        W39935  14.106   1.701   0.724  0.1065 -0.3590 -0.0015
23802W        W39936  15.236  13.078   1.782  0.3672  0.1254 -0.3572
23803W        W39937  13.310   8.420   4.516 -0.1976  0.1703 -0.0691
23804W        W39938  17.784  10.950  12.705  0.1565 -0.1586  0.0020
23805W        W39939   4.997  17.529   3.157  0.3034 -0.1120  0.0315
23806W        W39940  12.607   2.684  11.408 -0.0432 -0.0385  0.1868
23807W        W39941   9.652   6.184   1.972  0.1875 -0.0366  0.3022
23808W        W39942  17.374   2.256  12.616  0.1588  0.1616  0.0624
23809W        W39943   1.257  14.723   0.648 -0.1385 -0.3351  0.0111
23810W        W39944   1.299   8.599   1.762 -0.1859  0.1562  0.3786
23811W        W39945   6.147   0.565   4.793  0.1295  0.0902  0.0791
23812W        W39946   7.498   9.067   1.748  0.0052  0.1263  0.0054
23813W        W39947   5.362   1.689  11.975 -0.0820  0.1392 -0.1311
23814W        W39948   4.347   7.665   0.997 -0.2701  0.0625  0.0512
23815W        W39949  17.622   4.001  14.330  0.0364 -0.0306  0.0940
23816W        W39950   6.884  17.725  13.089 -0.0134  0.0093 -0.1640
23817W        W39951  13.933   5.038   1.111 -0.1006  0.0560 -0.1615
23818W        W39952  17.194   5.037  11.363  0.1213 -0.2815 -0.0910
23819W        W39953   0.824   7.686  11.728 -0.0128  0.1525 -0.1969
23820W        W39954   3.777  10.781   0.516 -0.1584 -0.0237  0.2583
23821W        W39955   8.557  16.637  11.455 -0.0694 -0.0226 -0.1213
23822W        W39956   6.655   5.184   4.846  0.0488  0.1732  0.0122
23823W        W39957  14.791  18.195   5.498 -0.0824 -0.1373  0.0168
23824W        W39958   3.692  13.380   4.117  0.2917  0.1642 -0.3769
23825W        W39959  16.700  17.448   0.603 -0.0682  0.1641  0.0561
23826W        W39960   5.080  11.128   5.133 -0.1147 -0.0669  0.0892
23827W        W39961   6.349   7.892   2.795 -0.0956  0.2510 -0.2840
23828W        W39962  10.959  12.720   1.055 -0.0408 -0.3702  0.1964
23829W        W39963  15.290   7.220   4.927  0.2390 -0.0100 -0.0864
23830W        W39964   7.449   6.805   2.955 -0.0868  0.1302  0.3577
23831W        W39965  17.756  10.601   2.668  0.0820 -0.2432 -0.2032
23832W        W39966  17.900  13.743  14.506 -0.0964  0.0686  0.1425
23833W        W39967   3.443  11.451   1.798 -0.3497 -0.0598  0.2337
23834W        W39968   6.838  15.273   4.986  0.0254 -0.1110  0.3259
23835W        W39969  17.379   0.288  11.671 -0.0858  0.1493 -0.0814
23836W        W39970   9.388  18.628  13.219 -0.1791  0.1938  0.0519
23837W        W39971   2.139   3.684   2.178  0.0364 -0.1356  0.2811
23838W        W39972   1.203  14.717   2.936  0.0589  0.0028 -0.0738
23839W        W39973  14.568  14.670   1.727 -0.1347  0.0265  0.0781
23840W        W39974   5.852  17.501   0.555 -0.0130  0.1544 -0.3919
23841W        W39975  11.345   4.501   3.195 -0.1165 -0.0031 -0.0530
23842W        W39976  16.082  17.049  11.079 -0.1979 -0.0450 -0.0559
23843W        W39977   8.454   4.560   5.153 -0.1092 -0.1348  0.0264
23844W        W39978   0.733  13.156   5.910 -0.1127 -0.2315  0.4143
23845W        W39979  12.007   1.652   3.291 -0.0083 -0.2029 -0.1312
23846W        W39980   4.074   9.858  14.022  0.1055  0.0665  0.0493
23847W        W39981   6.100  13.810   5.087 -0.1572 -0.0669 -0.2381
23848W        W39982   7.781   8.957  11.173  0.1446  0.0436  0.3995
23849W        W39983   5.663  15.276   0.564  0.0006  0.2543  0.1282
23850W        W39984   0.842  14.635   3.771  0.0582  0.5395  0.0821
23851W        W39985   9.273   3.692   1.001  0.1453  0.1045 -0.0997
23852W        W39986  16.378  11.897   5.362 -0.4422 -0.0574  0.0718
23853W        W39987   3.037   0.449  13.782  0.3812  0.0819  0.0990
23854W        W39988   7.574   5.071  10.901  0.1228 -0.1285  0.0859
23855W        W39989  15.365   0.908  11.941 -0.1559 -0.0699  0.0115
23856W        W39990  14.243   2.683   2.698 -0.2395 -0.0978 -0.1599
23857W        W39991   9.459   4.836  12.652 -0.0867 -0.2796  0.0084
23858W        W39992   3.012  12.568   5.360  0.1732  0.2347 -0.1315
23859W        W39993   7.898   9.409   4.615 -0.2150 -0.1285 -0.0369
23860W        W39994  10.140  18.525  12.610  0.2307  0.1001 -0.1438
23861W        W39995   3.793   8.005  10.814 -0.1177  0.4462 -0.0574
23862W        W39996   2.089   4.400   4.788 -0.1925  0.0087  0.2623
23863W        W39997  17.529  11.809   2.497  0.1496  0.0516 -0.2838
23864W        W39998  10.245  11.561  11.865 -0.4279  0.1130 -0.2414
23865W        W39999  18.726   6.177  12.350 -0.2139  0.3391  0.5383
23866W        W40000   1.243   0.513   5.227 -0.1924 -0.0767 -0.1357
23867W        W40001   5.510   0.845  15.372  0.0602 -0.0253 -0.4940
23868W        W40002   9.758   9.104  11.609  0.0899  0.1078  0.0910
23869W        W40003  13.992   5.016  15.449  0.2653 -0.2850  0.2487
23870W        W40004   1.793   9.415   1.397  0.1104  0.0494  0.1318
23871W        W40005  17.885  15.215  15.420  0.1828 -0.0853  0.0084
23872W        W40006   5.693   8.803  13.084 -0.0161 -0.3072 -0.0224
23873W        W40007  11.305   9.449   9.958  0.0187 -0.1798  0.3250
23874W        W40008  11.661  16.282  14.044  0.0164  0.3186  0.0502
23875W        W40009  14.684  14.295  11.657  0.0507 -0.0742 -0.1577
23876W        W40010  14.770   5.576   5.146  0.1139 -0.0079  0.1644
23877W        W40011  17.166   7.218  12.617  0.0854 -0.3094  0.0174
23878W        W40012   9.791   4.766   5.117  0.1188 -0.0556 -0.0187
23879W        W40013  10.397   4.817   1.695  0.0537 -0.1040  0.1639
23880W        W40014  12.516  18.567  12.979 -0.4624  0.0454  0.1576
23881W        W40015   5.387  18.282   1.048  0.2617 -0.0023 -0.1374
23882W        W40016   2.884  11.231  14.044 -0.3104  0.2863  0.0698
23883W        W40017   1.074   2.038   5.307 -0.1219 -0.0251 -0.0818
23884W        W40018  12.963   9.422   3.947  0.2783 -0.0278  0.4844
23885W        W40019   1.604  12.085   4.297 -0.0749  0.0068 -0.1618
23886W        W40020   9.258  16.970   4.353 -0.1058  0.1358 -0.1693
23887W        W40021  12.709   9.231  12.812  0.1462  0.2357  0.2231
23888W        W40022   1.389   7.777   4.063  0.0925 -0.2735  0.2632
23889W        W40023   8.949  10.059  11.119  0.1275  0.0694  0.3305
23890W        W40024  13.063  13.007   0.885 -0.0115 -0.5592  0.0787
23891W        W40025   5.598   4.549  11.337  0.1085  0.2868  0.1227
23892W        W40026  11.131   8.862  12.395  0.0853 -0.2112  0.0861
23893W        W40027  13.326  16.817  11.518  0.2824 -0.2280  0.1658
23894W        W40028  16.870   7.221  14.861  0.0791  0.2442 -0.0956
23895W        W40029   9.450   4.765   1.754  0.1773  0.0407  0.1245
23896W        W40030  15.927   1.436   3.545  0.1904 -0.1727  0.1366
23897W        W40031  12.412  11.418   4.050 -0.3779  0.0520  0.0357
23898W        W40032   8.064   1.354   9.533  0.2595 -0.1593 -0.1976
23899W        W40033   4.654   7.737  10.944  0.1331 -0.1465 -0.2359
23900W        W40034  13.926   5.676   1.693 -0.0610  0.1141  0.0628
23901W        W40035  12.816   9.690  11.898 -0.1905  0.2182  0.0617
23902W        W40036   9.612   3.851   2.595  0.2460 -0.0479 -0.0478
23903W        W40037  11.104  10.317   9.655  0.3410  0.1011 -0.2826
23904W        W40038   5.740  18.278  14.112 -0.0653  0.0090 -0.3465
23905W        W40039  11.784   1.053  10.622  0.2431 -0.2107 -0.2874
23906W        W40040   0.345   7.420   0.471  0.0112 -0.2587  0.0146
23907W        W40041  13.194  17.511  14.946 -0.2172 -0.1076  0.0138
23908W        W40042   2.811   4.565  13.382  0.2564 -0.0542 -0.3293
23909W        W40043   7.782  15.509   1.706  0.2212 -0.0998 -0.1155
23910W        W40044  15.483   4.622   0.151  0.0016 -0.0291  0.0814
23911W        W40045   7.262   8.217   1.991 -0.1175  0.1013  0.4132
23912W        W40046   9.484   5.288  11.849  0.1457 -0.2270 -0.2749
23913W        W40047   6.158  10.392   3.348 -0.0986  0.0313  0.2311
23914W        W40048   7.015  16.989   5.008  0.2254  0.0609 -0.1143
23915W        W40049  15.894   6.352   0.046 -0.4307  0.1922  0.0914
23916W        W40050   5.114   7.337   4.386 -0.0834 -0.1457 -0.2906
23917W        W40051  10.894   6.304   2.381  0.0383  0.0570  0.0705
23918W        W40052   0.823  16.867   2.644  0.0147 -0.2604 -0.0912
23919W        W40053   9.203   0.697   3.519 -0.0408  0.0069  0.1182
23920W        W40054  11.095   3.899  12.154  0.0741  0.0239 -0.0116
23921W        W40055   2.571   1.807   0.323 -0.0366  0.1630 -0.0968
23922W        W40056  14.552  15.872   5.248  0.0415  0.2889  0.0643
23923W        W40057  10.773  17.586   0.321  0.3962  0.1515  0.1555
23924W        W40058   5.853  13.572  12.545 -0.1817  0.2258  0.1197
23925W        W40059  14.387   0.478  14.133 -0.1026  0.5114 -0.0557
23926W        W40060   2.958  11.114   3.002 -0.0215 -0.0609 -0.1921
23927W        W40061  13.453   4.324  15.347 -0.1911  0.1718 -0.1969
23928W        W40062   8.225  18.488   1.603  0.1246  0.0686 -0.1613
23929W        W40063   3.475   2.260   0.373  0.1912 -0.1780 -0.1019
23930W        W40064  18.202  14.248   0.456 -0.1077 -0.0315 -0.1581
23931W        W40065   8.682  12.986   0.126  0.0414  0.1301  0.4018
23932W        W40066  16.318  12.539   4.127  0.0482  0.0637 -0.0546
23933W        W40067   0.712   2.642  12.777 -0.2837  0.0561  0.0715
23934W        W40068   3.248  17.103   4.228 -0.0713 -0.1220  0.2226
23935W        W40069   4.665  16.065  15.502  0.2445  0.3798  0.0416
23936W        W40070  18.038  12.969   3.230 -0.1352  0.0010  0.1186
23937W        W40071  14.754  14.125  12.905  0.2595  0.0060 -0.2301
23938W        W40072   5.587  18.069   0.536  0.1653 -0.2904 -0.2749
23939W        W40073  16.865  12.069   0.321 -0.3875  0.2666 -0.0190
23940W        W40074  14.544  10.779  10.751  0.0095 -0.1011  0.1685
23941W        W40075  15.764   9.493   0.901 -0.1693 -0.0401 -0.2165
23942W        W40076   9.240   7.451  12.147 -0.0322  0.0594  0.0975
23943W        W40077  11.600  14.462  14.807 -0.1909 -0.0540 -0.1981
23944W        W40078   7.764   3.156   4.196 -0.0634  0.0689  0.1778
23945W        W40079   0.038  10.820   4.999 -0.1997  0.1739 -0.3167
23946W        W40080   0.544  18.490  11.355  0.1953 -0.2019 -0.0191
23947W        W40081  13.046  17.843   4.074  0.1946 -0.1316  0.1791
23948W        W40082  10.603  14.044   3.697  0.1078  0.0506 -0.1920
23949W        W40083   9.574  11.558   3.998  0.1846 -0.1840  0.0216
23950W        W40084  13.525  16.632   4.278  0.1617 -0.2960  0.0875
23951W        W40085   0.671  10.736  14.018  0.1827  0.0286 -0.2261
23952W        W40086  10.647   3.444   0.020  0.1277 -0.0696  0.3045
23953W        W40087  17.750   4.596  15.285  0.2214  0.1290 -0.2327
23954W        W40088  12.766   8.400   4.542 -0.0908  0.1620 -0.2021
23955W        W40089  13.930  12.515  12.044 -0.2378  0.1019 -0.0981
23956W        W40090   5.672   1.210   1.875  0.1568 -0.1063 -0.0423
23957W        W40091  11.167  11.219  12.130  0.1399  0.1024 -0.2151
23958W        W40092   5.176   5.455  14.739 -0.0165 -0.0267 -0.3227
23959W        W40093   8.997  15.265  12.554  0.2992  0.0226 -0.1590
23960W        W40094   4.498  15.792   2.457  0.2210 -0.0315  0.0158
23961W        W40095  14.503  15.383   2.109  0.3094  0.2489  0.0212
23962W        W40096   5.130   9.034   1.845  0.4097  0.2002 -0.0061
23963W        W40097   3.956   4.464   3.689 -0.0420  0.1443  0.0538
23964W        W40098  13.974   1.870  11.156  0.0036 -0.0874 -0.5969
23965W        W40099  18.375   0.548  13.409  0.0051  0.1438  0.0373
23966W        W40100  13.229   6.319  11.274 -0.1851  0.2993 -0.2273
23967W        W40101  12.131  16.291  11.406  0.1081 -0.1177 -0.1966
23968W        W40102   7.786   2.057  10.843 -0.1405 -0.1724  0.2427
23969W        W40103  17.116  15.886  12.417 -0.1635  0.1543 -0.0297
23970W        W40104  10.294   6.891  14.982 -0.1206 -0.1500  0.0809
23971W        W40105   5.404   9.674  10.870  0.0237 -0.1553  0.1690
23972W        W40106  17.176  11.535  12.682  0.1500 -0.1491 -0.0319
23973W        W40107  17.190   7.823   3.806  0.2429 -0.2775  0.2415
23974W        W40108  14.671  10.231   2.400 -0.0995  0.1799 -0.0491
23975W        W40109  17.670  11.064   4.426 -0.1188 -0.0148  0.3055
23976W        W40110   9.228  12.478   4.993 -0.0850 -0.2568  0.1633
23977W        W40111  18.144   1.806   1.270  0.1472  0.4524 -0.2482
23978W        W40112   5.562  16.437  14.083  0.1647  0.0571  0.2034
23979W        W40113   8.153  10.595  13.751  0.0016 -0.0346 -0.0638
23980W        W40114  13.187  10.141   0.425 -0.1482  0.2203  0.1611
23981W        W40115  10.105  15.773  14.021 -0.2857  0.0041 -0.2675
23982W        W40116   3.752   6.001   1.018 -0.0140  0.0266 -0.3041
23983W        W40117  17.594   2.301  11.413 -0.0907  0.0654 -0.2862
23984W        W40118  11.116  11.451   3.314  0.1069  0.0198  0.0512
23985W        W40119   1.461  14.350  13.528  0.0699  0.3465  0.0347
23986W        W40120   8.067  16.691  12.607 -0.0507 -0.3141 -0.1629
23987W        W40121   8.547   1.520   2.426  0.2226 -0.1008  0.0041
23988W        W40122   7.973  16.398   9.777  0.0520 -0.0899 -0.1890
23989W        W40123   3.770  12.080  13.547  0.0899 -0.1147  0.1090
23990W        W40124   8.669   7.958  11.543 -0.1454 -0.1671  0.0761
23991W        W40125  10.601   8.161  11.211 -0.0305  0.3801 -0.2113
23992W        W40126  18.418   2.597  12.052  0.0205  0.2356  0.1767
23993W        W40127  13.783  15.749  10.257 -0.2106 -0.3032 -0.0406
23994W        W40128  15.418   1.635   5.061  0.3152 -0.0965 -0.1714
23995W        W40129  15.786   5.394  11.560 -0.1656 -0.2105 -0.0628
23996W        W40130  15.033  13.546   1.320 -0.1567 -0.2428  0.0899
23997W        W40131   7.055   8.007   4.973 -0.0672  0.2162 -0.0666
23998W        W40132   9.120   3.590  13.790  0.4075  0.0543  0.1459
23999W        W40133   2.322  10.082   0.376 -0.0883 -0.2249 -0.2626
24000W        W40134   6.173  12.336  10.935 -0.0861  0.1957 -0.1044
24001W        W40135   2.392   9.334  13.737  0.1483 -0.0013 -0.0327
24002W        W40136   9.764   9.474   1.804 -0.1062 -0.0568 -0.0099
24003W        W40137  11.580   3.406  10.514 -0.1136  0.3622  0.1465
24004W        W40138   9.258   6.350  11.054 -0.0169  0.0633 -0.1525
24005W        W40139  15.299  14.356   0.647  0.0532 -0.1712  0.3045
24006W        W40140   0.341  16.750   3.905 -0.0373 -0.1479 -0.0011
24007W        W40141  17.904   9.285  13.877  0.0950  0.1914 -0.0551
24008W        W40142  14.275  11.211   4.218  0.2177  0.1082 -0.1634
24009W        W40143   6.205  12.659  13.331  0.0474  0.1932 -0.3060
24010W        W40144   8.127  15.578  15.204 -0.2587 -0.3836  0.2276
24011W        W40145  13.243  16.659  13.812  0.3406 -0.2061 -0.4471
24012W        W40146  13.720  13.545  11.988  0.1541  0.1261  0.2096
24013W        W40147  10.083   9.586   3.105  0.0792 -0.1022  0.1443
24014W        W40148  10.713   0.311  11.493 -0.1381 -0.0968 -0.2299
24015W        W40149   7.875  10.820  14.656 -0.4606 -0.1599  0.1747
24016W        W40150   2.309  17.673  14.540 -0.2129 -0.0106 -0.2390
24017W        W40151  15.549   8.024   5.723 -0.1089  0.0713 -0.2446
24018W        W40152  15.447  18.660  14.394 -0.0924  0.1005 -0.0646
24019W        W40153   9.369  18.285  14.934 -0.2339 -0.2157  0.5013
24020W        W40154   6.271  11.956   3.210  0.0274  0.1115  0.3543
24021W        W40155   3.987   3.005  11.598 -0.2395 -0.0034 -0.0500
24022W        W40156   2.073   8.025  13.124 -0.0068  0.1413  0.0953
24023W        W40157  12.354   5.575  12.583  0.2195 -0.1539  0.0150
24024W        W40158   3.689   3.204   1.317 -0.1062 -0.0875  0.0264
24025W        W40159  13.526  16.099  10.697  0.1634 -0.1870 -0.0556
24026W        W40160   7.287   7.658   1.202  0.1432 -0.3079 -0.0088
24027W        W40161  17.217   5.570  13.025 -0.1348  0.0619 -0.0503
24028W        W40162   7.360   5.163   1.326  0.2118  0.1738 -0.0196
24029W        W40163   3.941  15.060   3.662 -0.0636 -0.3109 -0.0809
24030W        W40164   8.774   2.504  13.053 -0.0962  0.0504  0.3054
24031W        W40165  17.864   5.426  13.229 -0.1455 -0.2567 -0.1345
24032W        W40166   4.406  10.119   0.267 -0.0423  0.0546 -0.0851
24033W        W40167  15.521  13.471   1.609  0.0882  0.0250 -0.0267
24034W        W40168   3.036   1.420  11.491  0.2369 -0.0150 -0.0938
24035W        W40169   2.798  14.594   3.961  0.0375  0.0186 -0.3360
24036W        W40170   4.281   9.334  14.757  0.1337  0.0111  0.3928
24037W        W40171  17.169  15.296   0.117  0.0131  0.0588 -0.0762
24038W        W40172   0.470   4.333   2.811  0.2106  0.0020  0.2220
24039W        W40173   9.650  15.871  11.699 -0.2797 -0.0311  0.2613
24040W        W40174  17.210   5.468  13.520 -0.0567 -0.0810 -0.3496
24041W        W40175  11.917  13.675   0.560 -0.2262  0.1043 -0.1932
24042W        W40176   4.267  15.621  12.235  0.1711  0.3437  0.1682
24043W        W40177   5.206  11.864   1.441 -0.0667  0.3689 -0.0394
24044W        W40178   1.691   5.322   3.029  0.0266  0.1009 -0.0653
24045W        W40179   5.980   1.600  14.500  0.0242 -0.2607 -0.0950
24046W        W40180  16.682   7.693  14.098  0.2163 -0.1189 -0.0318
24047W        W40181   6.030   8.313   0.763  0.1676  0.0515 -0.0827
24048W        W40182  15.446  15.750   4.175 -0.1585 -0.1224  0.0300
24049W        W40183  17.510   4.809  12.571  0.1783 -0.1627 -0.2692
24050W        W40184   5.590  12.050   3.275  0.0934  0.0383  0.2727
24051W        W40185   0.545   9.890   4.111 -0.2963  0.0613  0.0824
24052W        W40186  16.914   7.019   0.187 -0.0336 -0.0470 -0.3675
24053W        W40187   9.152   9.056   1.594 -0.3520  0.2558  0.2662
24054W        W40188  13.878  17.839  12.933 -0.1977 -0.1477 -0.2661
24055W        W40189   3.300  10.104  11.693 -0.0906  0.0743 -0.1596
24056W        W40190  14.362  13.180   2.445 -0.3667 -0.2432 -0.0496
24057W        W40191  13.354   7.933  13.062 -0.2409  0.0829 -0.0883
24058W        W40192  10.209   8.351  13.564 -0.0833  0.0710  0.1708
24059W        W40193  16.087   0.507   2.631 -0.3744  0.1086 -0.3114
24060W        W40194   7.524   1.077  12.048  0.0421 -0.3514  0.0547
24061W        W40195  15.322   1.063   4.720 -0.1485  0.0009 -0.0496
24062W        W40196   1.982  16.080  13.826  0.0069  0.1668  0.0015
24063W        W40197  17.910   1.803   1.996 -0.0538  0.1997 -0.0378
24064W        W40198   2.331   0.637  11.499  0.4490 -0.4187  0.0177
24065W        W40199   6.267   6.830  12.343  0.0852 -0.1430  0.2365
24066W        W40200   4.155   7.042   4.249  0.0629 -0.0591 -0.0775
24067W        W40201   7.175   5.968  13.932  0.3767 -0.3818 -0.2422
24068W        W40202   7.188  18.220  14.936 -0.3005  0.4389 -0.2044
24069W        W40203   8.602  10.668  15.369 -0.1344 -0.2624  0.0081
24070W        W40204  18.043  10.563  12.882  0.3653  0.1519 -0.0080
24071W        W40205   0.905   9.961  12.987  0.0075  0.3715  0.3069
24072W        W40206   8.327  12.698   2.334 -0.5591  0.1994  0.0859
24073W        W40207  13.621  14.430   2.589  0.2029  0.1156 -0.0468
24074W        W40208  14.889   9.584   3.853 -0.2168 -0.0504 -0.1788
24075W        W40209   0.961   1.284  12.558 -0.3499 -0.1943 -0.1688
24076W        W40210   6.670  16.668  10.173  0.0680 -0.1062 -0.0601
24077W        W40211  11.683   9.700  10.235  0.3620 -0.1775  0.0924
24078W        W40212  14.879   0.961   0.381  0.1846 -0.1357 -0.1882
24079W        W40213   3.302  10.193   2.272  0.0910 -0.1060 -0.0994
24080W        W40214   0.460   0.386   5.393 -0.0661  0.1515  0.1818
24081W        W40215  15.004   2.084  13.569 -0.3318  0.3798 -0.2758
24082W        W40216  15.875   1.250  15.537  0.2935  0.1894 -0.1575
24083W        W40217   7.861  17.695  13.231  0.0564  0.0579  0.0795
24084W        W40218   8.497  18.504  14.795 -0.1328 -0.1328 -0.2452
24085W        W40219  15.357   5.614  10.778 -0.0810 -0.0271 -0.1151
24086W        W40220   9.564  16.792  13.520  0.2190 -0.1316 -0.0354
24087W        W40221   2.053   5.392   4.911 -0.1042  0.1849  0.0910
24088W        W40222   0.247   6.996  11.125 -0.0576 -0.0631 -0.0794
24089W        W40223  14.101  17.077   2.004 -0.2073  0.0846 -0.1037
24090W        W40224  16.800   8.990  12.651  0.0482  0.2318  0.2721
24091W        W40225  15.886  11.113  15.402 -0.0604 -0.1368 -0.2190
24092W        W40226   8.978  13.166  11.595  0.1042 -0.0572 -0.1091
24093W        W40227   9.386  12.308  12.372 -0.0807  0.0735  0.1102
24094W        W40228   9.483  12.778  12.786  0.0790 -0.3353 -0.0764
24095W        W40229   7.703  15.796  13.981 -0.1002 -0.0730  0.1226
24096W        W40230  14.730  18.268   4.867 -0.0068 -0.1324  0.1656
24097W        W40231  13.731   6.150   3.475  0.0432 -0.1054 -0.0427
24098W        W40232   8.791   0.879   0.068 -0.0815 -0.0891 -0.0141
24099W        W40233   1.869  15.513  12.146 -0.1140 -0.0668  0.0631
24100W        W40234  15.222   5.571   0.477 -0.0903 -0.3907 -0.1779
24101W        W40235  12.253  17.300  14.746  0.3494  0.1282  0.0839
24102W        W40236   6.371   4.988   3.482  0.0014 -0.0264 -0.0810
24103W        W40237  18.619  17.652  11.370  0.2260  0.1144 -0.2302
24104W        W40238   8.030  16.663  13.102 -0.4013 -0.0883 -0.0631
24105W        W40239  17.525   8.142   3.598  0.1541  0.1182 -0.4907
24106W        W40240  17.206   2.216  11.716 -0.0758 -0.0313  0.0004
24107W        W40241  14.550   5.340  15.128  0.0766  0.1387 -0.1680
24108W        W40242  15.064   8.114   4.502 -0.1952  0.0038 -0.0158
24109W        W40243  15.047   3.461  13.115 -0.0296 -0.0176 -0.0614
24110W        W40244   7.139  16.871  15.492 -0.0316 -0.2431 -0.3790
24111W        W40245   5.951   1.481   3.019 -0.4163  0.0774  0.1214
24112W        W40246  11.122  12.062  10.859 -0.1542  0.0290 -0.0264
24113W        W40247   0.771   0.495  11.700  0.1415  0.0254 -0.3153
24114W        W40248   7.868  11.711   4.843  0.2316  0.3275  0.0432
24115W        W40249   7.684  17.131   2.564  0.0720 -0.0972  0.0993
24116W        W40250   5.753   8.320  13.823  0.0642  0.1840 -0.1536
24117W        W40251  14.990   2.393   4.716 -0.1330  0.1773 -0.2207
24118W        W40252  13.712  15.334   5.300  0.0626  0.0767 -0.1898
24119W        W40253   6.384  15.728  13.938 -0.2167  0.2377 -0.0185
24120W        W40254  14.805  12.139  10.823  0.0025  0.2972  0.1261
24121W        W40255  12.596   9.835   0.085  0.1612 -0.2582 -0.3325
24122W        W40256   2.430   2.102  14.405 -0.1275 -0.0618 -0.0088
24123W        W40257   0.749   2.108  11.760  0.0751 -0.1706  0.2310
24124W        W40258  18.256  16.132   4.790 -0.3990  0.4364 -0.4372
24125W        W40259  14.961   5.271  10.957 -0.0037  0.0906  0.0880
24126W        W40260   7.714   4.056  14.910  0.0809  0.0086  0.0556
24127W        W40261  16.011   2.827   4.510 -0.0623 -0.0905  0.1137
24128W        W40262  10.725   2.545   1.621 -0.2130 -0.3532  0.0655
24129W        W40263   8.944  16.094   9.613  0.2475 -0.0023 -0.1531
24130W        W40264   2.067  11.137   1.179  0.0325 -0.0553 -0.1219
24131W        W40265   5.688  18.093   3.915 -0.2028 -0.1757  0.2058
24132W        W40266   4.650  13.536  12.517 -0.0927  0.3127  0.2411
24133W        W40267   5.687  12.968  14.026 -0.2307  0.0649  0.1653
24134W        W40268  12.946   3.777   1.229  0.1911 -0.3935 -0.0139
24135W        W40269  11.520   0.363  11.111 -0.1039  0.0783 -0.2358
24136W        W40270   3.618  16.843   3.499 -0.2146 -0.0088 -0.0073
24137W        W40271  16.217   3.868   1.291 -0.1836 -0.0677 -0.0063
24138W        W40272  12.308  16.047   5.840 -0.2176  0.1342  0.2253
24139W        W40273  14.457  13.912   0.453 -0.1687 -0.0541 -0.0359
24140W        W40274  17.072   5.649  11.371  0.2761  0.0734  0.0318
24141W        W40275  18.299   2.943  14.262 -0.1645 -0.1341  0.0108
24142W        W40276   8.648   6.656  14.188  0.0427  0.0118 -0.2054
24143W        W40277  11.398  13.051  13.387 -0.0394 -0.3194  0.0291
24144W        W40278   3.505   3.483  15.197  0.3214 -0.1553  0.2318
24145W        W40279  13.176  13.842   9.997 -0.0510 -0.2054  0.0559
24146W        W40280   8.062  16.110  15.184  0.0653 -0.0469  0.0836
24147W        W40281   0.658  14.306   0.868  0.0777 -0.2621 -0.2509
24148W        W40282   8.452  13.300   1.522 -0.2243 -0.0074 -0.1937
24149W        W40283  15.474   0.160   1.307 -0.0826 -0.1061  0.1830
24150W        W40284   4.671  17.979   1.026  0.0140 -0.0081 -0.3296
24151W        W40285   7.888   4.210  15.400 -0.0443  0.0860  0.1159
24152W        W40286  10.907   7.521   3.642  0.1221 -0.0956 -0.2108
24153W        W40287  13.343  10.635  10.516  0.2684 -0.2205  0.1498
24154W        W40288   0.454   8.997   1.262 -0.0152  0.3045  0.1762
24155W        W40289   2.806   1.379  10.462  0.2191  0.0171 -0.0678
24156W        W40290   3.178   4.201   3.941 -0.4737  0.0393 -0.1163
24157W        W40291  10.223  17.712   4.614  0.1491 -0.0882 -0.1305
24158W        W40292  14.180   0.845   1.646 -0.0467 -0.0360  0.3467
24159W        W40293  11.802   8.113   3.441  0.1549  0.1933 -0.2835
24160W        W40294   9.492   0.229  11.471 -0.0016  0.1716  0.0514
24161W        W40295   6.263  16.602   2.851  0.0331 -0.0426  0.1059
24162W        W40296   1.202  12.522  11.469 -0.2011 -0.4389  0.1598
24163W        W40297  12.143  17.711   3.127 -0.2607 -0.1582  0.2439
24164W        W40298  10.487  18.027   2.297  0.1535  0.1342 -0.0197
24165W        W40299  14.833   0.348   0.924 -0.1676  0.0720 -0.2202
24166W        W40300  16.319   6.331   4.135 -0.0084  0.1870  0.0830
24167W        W40301   5.469   5.002   3.922 -0.3152  0.0791  0.1031
24168W        W40302  15.592   1.167   4.318  0.0867 -0.0485 -0.0802
24169W        W40303   8.405  14.617  13.071  0.1577 -0.2166 -0.0206
24170W        W40304  10.748  15.310  14.472  0.0809  0.1054 -0.1115
24171W        W40305  11.009   6.595   1.536 -0.1570  0.0300 -0.0003
24172W        W40306   0.444   1.599  11.155 -0.0920  0.0200 -0.0520
24173W        W40307  15.471  12.851  11.953 -0.1152  0.1715  0.0468
24174W        W40308   6.544  13.276  11.853 -0.0076  0.0820 -0.0554
24175W        W40309  12.002  10.306  11.531 -0.3026 -0.0032 -0.2032
24176W        W40310  17.918  12.217  14.549 -0.1609  0.2165 -0.1757
24177W        W40311  11.627   3.850   0.158 -0.1775 -0.2377  0.3028
24178W        W40312  11.002   4.891  14.275 -0.3799 -0.0412 -0.1894
24179W        W40313   2.709   5.120  11.793 -0.0299  0.0849 -0.1407
24180W        W40314  16.280   8.608   0.360  0.1561  0.2076 -0.2027
24181W        W40315   9.295   2.824  13.850  0.0803  0.1380 -0.2510
24182W        W40316  16.489   6.928  15.446  0.1515  0.2379  0.0240
24183W        W40317  18.359  12.601   1.991 -0.0580  0.0169  0.1576
24184W        W40318   8.540   6.638  12.854 -0.1278 -0.0861  0.0792
24185W        W40319  18.604   1.026  10.558  0.0992  0.0122 -0.0716
24186W        W40320  16.380  17.526  14.064  0.0908  0.3343 -0.2445
24187W        W40321   4.552  13.699  14.204 -0.0676 -0.0766 -0.0837
24188W        W40322  15.070   0.500  12.156  0.0634  0.1864  0.0277
24189W        W40323   1.971   5.450   1.878 -0.3438  0.0800 -0.1112
24190W        W40324   8.928   4.247  14.129  0.4638  0.1997 -0.2824
24191W        W40325   2.719   7.076   0.410  0.1995 -0.2852 -0.0340
24192W        W40326   7.853  13.228   0.461  0.0366  0.2809 -0.0322
24193W        W40327   9.305  15.105  13.919 -0.0454  0.1049 -0.2461
24194W        W40328  12.375  17.099  15.330 -0.0859  0.1151 -0.0264
24195W        W40329  16.080   7.521  11.884  0.1651  0.0576 -0.0918
24196W        W40330  11.469  14.702  13.559  0.3499 -0.0644 -0.0183
24197W        W40331   4.797   7.120   3.057 -0.0056 -0.1007 -0.0581
24198W        W40332   1.015  16.009  13.620 -0.0055  0.2462  0.2524
24199W        W40333   7.186   1.760  13.283  0.0683 -0.0276  0.1545
24200W        W40334  16.177   5.935   1.365  0.1391 -0.0410 -0.0915
24201W        W40335   4.572   4.050   4.257 -0.1162  0.2489  0.1311
24202W        W40336   9.330  16.300  11.763 -0.1633  0.0732  0.2654
24203W        W40337   5.386  15.202   1.027 -0.1293 -0.0391  0.0531
24204W        W40338  12.976  15.104   4.258 -0.2876 -0.0433 -0.0334
24205W        W40339  16.272   7.838   2.178 -0.3923  0.0267 -0.2566
24206W        W40340   9.265   9.731  10.992  0.0995  0.0181 -0.4023
24207W        W40341   2.260  10.531   3.354 -0.0895  0.1264 -0.1385
24208W        W40342   8.698  10.331   5.610 -0.0529 -0.1542 -0.0261
24209W        W40343   8.098  11.786   2.239 -0.3263 -0.0770 -0.0765
24210W        W40344   1.059   9.298  12.474  0.0118 -0.2571  0.0440
24211W        W40345   8.477  12.524   3.734 -0.3989 -0.1862  0.0530
24212W        W40346   5.607   1.431  12.346  0.3205  0.1193 -0.0473
24213W        W40347   7.802   0.842  13.188 -0.0066  0.1043 -0.3377
24214W        W40348  15.168  11.023   1.606  0.2688 -0.0979  0.0001
24215W        W40349   1.706  11.792   3.356 -0.1434 -0.2000 -0.1141
24216W        W40350   8.700  17.195   2.194 -0.1383 -0.3061  0.1579
24217W        W40351   9.108  14.238  13.528  0.0077  0.2154 -0.0739
24218W        W40352  12.814  13.352   1.152 -0.2519 -0.2977 -0.1653
24219W        W40353   7.833   9.526   3.166 -0.0793 -0.0772 -0.0319
24220W        W40354  13.984  13.483  13.304 -0.3858  0.1168 -0.0437
24221W        W40355   1.256  17.018  12.472  0.0820 -0.0822 -0.2988
24222W        W40356  14.013  18.271  13.313 -0.0794 -0.0563 -0.0188
24223W        W40357   0.506   0.863   3.436 -0.0567  0.2748  0.0091
24224W        W40358   5.162  13.168  13.881 -0.0332  0.2112  0.2981
24225W        W40359   4.084   6.447   1.719 -0.2592 -0.2327  0.1359
24226W        W40360  17.402   2.272   6.464 -0.1295  0.1829 -0.0589
24227W        W40361  12.517   8.959  11.017 -0.2246 -0.0139  0.1473
24228W        W40362  15.064  14.171   1.988  0.3208  0.2303 -0.1205
24229W        W40363   8.513   8.394   0.943 -0.1265 -0.0766  0.1135
24230W        W40364  18.401  14.931   4.132 -0.1208 -0.0270  0.0511
24231W        W40365   3.320   8.767  13.076  0.1599 -0.0878  0.1391
24232W        W40366  16.613  13.295  15.459 -0.0322  0.0675 -0.0719
24233W        W40367   6.335  18.488   4.373  0.1741 -0.1480  0.2849
24234W        W40368  18.382  14.797   1.688 -0.1173  0.0963 -0.0091
24235W        W40369  10.337   9.375  11.863 -0.0491  0.0450  0.1291
24236W        W40370  12.449   1.271  13.560 -0.0143  0.0001 -0.2637
24237W        W40371   5.463   4.345   0.998 -0.0568  0.0745 -0.2833
24238W        W40372   6.551  18.521  14.225  0.1734  0.0703  0.0398
24239W        W40373   7.007  17.423  15.275  0.1831  0.0900 -0.0795
24240W        W40374   8.020   6.085  13.385 -0.0852  0.0013 -0.0472
24241W        W40375   1.770  16.733  14.721 -0.0699 -0.0621 -0.1316
24242W        W40376  17.253   7.571  14.922 -0.2220 -0.0997  0.0025
24243W        W40377  17.446  18.569  15.412 -0.0771  0.1254  0.0558
24244W        W40378  13.843  17.932   1.540  0.0930 -0.2332 -0.3853
24245W        W40379  14.483   1.798  14.362  0.0036  0.4409  0.1065
24246W        W40380  14.651   7.774   1.195  0.1317  0.2099  0.4582
24247W        W40381   5.277   8.208   5.061  0.3936  0.0061 -0.0383
24248W        W40382   1.253   4.867   0.701  0.0147 -0.0352 -0.1654
24249W        W40383   6.159  11.710   0.297  0.0698 -0.1224  0.1143
24250W        W40384   2.945  13.429   3.916  0.0929  0.0958 -0.0609
24251W        W40385   6.865  10.071  15.065 -0.0735 -0.1698  0.1706
24252W        W40386  17.568   1.168  14.750 -0.0747  0.0084  0.2318
24253W        W40387   4.270  11.893   1.259  0.3348 -0.1917 -0.1691
24254W        W40388   0.189  13.754  14.858 -0.2346 -0.2913 -0.1498
24255W        W40389  12.510   0.411  12.680 -0.0243 -0.1577  0.0764
24256W        W40390  18.551  16.621  14.315  0.0449  0.1281 -0.0735
24257W        W40391  13.081  18.189   2.836 -0.1550 -0.0620  0.1177
24258W        W40392  16.952   2.495   4.831  0.0639 -0.0006  0.0676
24259W        W40393   9.847  18.080   0.635 -0.1017  0.0123 -0.0226
24260W        W40394  12.529   1.644   3.245 -0.2339 -0.0907 -0.2857
24261W        W40395  16.866  16.477  14.451  0.1570 -0.1891  0.5615
24262W        W40396   9.659   2.082   0.971 -0.3965  0.1826 -0.0684
24263W        W40397  16.839   0.367  12.285  0.0514 -0.2146  0.0583
24264W        W40398  14.519  17.588   0.820  0.0688  0.3006 -0.2058
24265W        W40399  14.847   3.237  12.084  0.0100  0.0610 -0.5144
24266W        W40400   7.535   9.310  12.914 -0.2705 -0.1459  0.0973
24267W        W40401  10.577   6.977  13.174 -0.0397  0.0757 -0.2367
24268W        W40402  18.275  11.393  13.583  0.3086 -0.4246  0.0068
24269W        W40403  15.844   1.836   1.051 -0.2087  0.1137 -0.0118
24270W        W40404  10.751   1.186  11.439  0.0117  0.0597  0.0318
24271W        W40405  16.940  13.935   0.994  0.0130  0.1967 -0.0401
24272W        W40406   4.783   7.064   5.119 -0.0338 -0.2092 -0.1013
24273W        W40407   5.607   3.920  14.382 -0.1109  0.1440 -0.0067
24274W        W40408  13.012   0.938   2.516  0.1048  0.0994 -0.0401
24275W        W40409  15.981   7.606   0.647  0.1978  0.3212 -0.1059
24276W        W40410   9.923   5.234   2.895 -0.4378  0.0400  0.1249
24277W        W40411   9.403   4.878  14.793  0.1594 -0.0726 -0.1988
24278W        W40412   0.122   2.456  13.407 -0.1800  0.1837  0.2145
24279W        W40413  11.998  15.949  12.702 -0.0909 -0.1060  0.3285
24280W        W40414   1.232  11.554  12.362 -0.0147  0.3415 -0.1016
24281W        W40415   2.779   6.126  14.983  0.1217  0.5608  0.0887
24282W        W40416  16.279   8.849  13.064  0.0406  0.0033  0.0550
24283W        W40417  14.579   5.970  14.631 -0.2081 -0.1515 -0.2799
24284W        W40418   9.252  16.037   5.013  0.0448 -0.0628  0.0954
24285W        W40419   6.211  10.928   3.389  0.2132 -0.0346  0.4080
24286W        W40420   3.134  12.329  14.380 -0.0280  0.1866 -0.1734
24287W        W40421   3.885   4.101  13.872 -0.1986 -0.2538  0.0497
24288W        W40422  17.382  12.912  14.731  0.2456  0.0656  0.0606
24289W        W40423   3.908  18.369  13.865  0.0795  0.2215 -0.1306
24290W        W40424   8.113  17.823   2.423 -0.2856  0.1438  0.2338
24291W        W40425  12.073   8.620  14.881 -0.2227 -0.0179  0.2357
24292W        W40426  10.087   6.055   5.035  0.1723 -0.4965 -0.1357
24293W        W40427  11.513   0.506  14.797 -0.0017  0.0861 -0.0174
24294W        W40428   5.707  13.628   0.975  0.2639 -0.3707 -0.1037
24295W        W40429   5.566  17.807   0.954  0.2931  0.0840  0.5034
24296W        W40430  10.784   3.463   3.684  0.3372 -0.1264 -0.1793
24297W        W40431  18.236   2.532  14.556 -0.0199 -0.2387  0.1387
24298W        W40432  11.654   3.223  14.620 -0.1778  0.1118  0.1631
24299W        W40433   7.098  15.620   0.478  0.0161 -0.0919 -0.2746
24300W        W40434   3.444   3.398  10.940 -0.2936 -0.2437 -0.4085
24301W        W40435   3.935   7.979   0.567  0.1801 -0.2901  0.1660
24302W        W40436  12.839  18.106   4.931 -0.1692  0.0653  0.1619
24303W        W40437  14.510  18.307  11.047 -0.0709 -0.2376  0.1659
24304W        W40438  17.077   3.042  14.692  0.0398 -0.2767 -0.3127
24305W        W40439   2.262   2.362  11.270  0.0381 -0.3367  0.1010
24306W        W40440   6.935   6.838  15.360  0.1255  0.2539 -0.2891
24307W        W40441  12.495  12.370  14.758 -0.3430 -0.1066  0.0105
24308W        W40442   5.392  12.743  12.441  0.2757  0.0073  0.1006
24309W        W40443  16.862   4.844  14.873  0.1504 -0.2024  0.0365
24310W        W40444   2.076   5.715  11.290  0.1555 -0.0471 -0.1460
24311W        W40445   8.510  18.306   0.687 -0.2296  0.1204 -0.0981
24312W        W40446  12.065  16.388   0.470 -0.1390  0.1856 -0.1134
24313W        W40447   4.459  16.244   2.267 -0.0988 -0.1096 -0.1669
24314W        W40448  11.753  11.768   4.462  0.2009 -0.0096 -0.0233
24315W        W40449   9.853  12.279   3.259 -0.0737  0.0499 -0.3090
24316W        W40450   4.257   5.444   5.297 -0.1546  0.1540 -0.1349
24317W        W40451   7.690   1.924  15.473 -0.0931 -0.2964 -0.2149
24318W        W40452   1.312  11.820   1.476 -0.4173 -0.1464  0.4207
24319W        W40453   5.634   8.807   4.087  0.0952  0.0380 -0.3014
24320W        W40454  12.461   4.790   3.785 -0.3092  0.2222  0.0810
24321W        W40455   0.056  17.462   2.928  0.1967 -0.1368 -0.2059
24322W        W40456  16.318  15.426   4.243  0.1376 -0.1895 -0.0034
24323W        W40457  17.465  14.834  11.488 -0.1474 -0.2576  0.3297
24324W        W40458   7.134  10.039  11.732 -0.0963  0.1416  0.2151
24325W        W40459  15.005  13.003  12.141  0.1984  0.2022 -0.0288
24326W        W40460   8.340  15.802   3.562  0.1280 -0.0847 -0.2870
24327W        W40461   7.355  14.307   1.625 -0.0949 -0.2503  0.0265
24328W        W40462  13.248   5.576   4.775 -0.1118  0.3785 -0.2175
24329W        W40463   2.744   8.189   4.580 -0.2974  0.0195 -0.2787
24330W        W40464  16.816  12.623   0.370 -0.0227  0.0777  0.2517
24331W        W40465  12.907  11.803  11.453 -0.0970  0.0793  0.0210
24332W        W40466  17.657   6.350   4.017 -0.4133  0.2645  0.1411
24333W        W40467  10.222  18.363   3.427 -0.3771 -0.0125 -0.1081
24334W        W40468  16.764  10.963  11.471  0.1867 -0.0556  0.0583
24335W        W40469  13.699   1.262   2.557  0.0521  0.2338 -0.0610
24336W        W40470  14.052  12.300  15.055 -0.0869  0.1138  0.2966
24337W        W40471  12.025  14.245  11.318  0.0813  0.0084  0.0194
24338W        W40472   0.274  13.321   1.701 -0.0869 -0.1715  0.0665
24339W        W40473   3.361  15.298   1.849  0.0768 -0.1314  0.0745
24340W        W40474   3.371  12.862  13.178  0.1017 -0.1736  0.0497
24341W        W40475   9.707   2.455   2.351 -0.1043 -0.0154  0.0024
24342W        W40476  13.829   0.941   5.564 -0.0841  0.1438  0.0113
24343W        W40477  10.557   3.181   4.449  0.1545  0.0748 -0.4306
24344W        W40478  13.846   3.187  13.397  0.0757 -0.1854 -0.1380
24345W        W40479   3.175   5.139  12.228 -0.5585  0.2207 -0.1059
24346W        W40480   2.677   9.373  14.523  0.1387  0.0245 -0.0489
24347W        W40481   2.933  14.251  10.979 -0.1348 -0.1634 -0.0990
24348W        W40482   0.090   3.751   5.117  0.0207 -0.2217  0.3737
24349W        W40483  18.012  12.140   4.498 -0.0185 -0.1767 -0.2592
24350W        W40484   0.051  13.258   4.218  0.1267  0.0562 -0.2251
24351W        W40485  13.713   2.211   5.808 -0.1079 -0.1284  0.0342
24352W        W40486   4.552  11.305  15.254  0.0526 -0.4919  0.0454
24353W        W40487   9.488  11.798  11.302 -0.0668 -0.2044  0.1988
24354W        W40488   4.096  12.764   1.850  0.1718 -0.2007 -0.0600
24355W        W40489   7.959  13.032  12.466  0.1348  0.0022  0.0230
24356W        W40490  11.847  13.801   3.597 -0.0285 -0.1141  0.1014
24357W        W40491   7.759   1.912  12.191 -0.0192 -0.0653  0.0053
24358W        W40492   0.508  16.634  11.325 -0.0576  0.1262  0.0635
24359W        W40493   0.893  13.077  14.765 -0.0707  0.1946  0.2935
24360W        W40494   3.574   6.739   1.084  0.3193  0.0327 -0.3954
24361W        W40495  16.998   6.713  14.764  0.1306  0.0263 -0.1320
24362W        W40496   1.525  13.252   1.736 -0.0587 -0.1417  0.0939
24363W        W40497  11.294  10.096   0.199  0.0697 -0.3447  0.0083
24364W        W40498   3.227  12.462  11.864 -0.0003 -0.2447 -0.0722
24365W        W40499   5.408  11.046  14.751  0.2435 -0.0491  0.0949
24366W        W40500  11.676   7.033   2.356 -0.1078  0.1126  0.1002
24367W        W40501  17.840  13.247  15.002  0.0677 -0.1293  0.0880
24368W        W40502  14.944   0.313   3.486 -0.0799  0.1660 -0.1744
24369W        W40503   9.468   5.065   3.776  0.1147  0.1712  0.1376
24370W        W40504   2.029  18.078  14.399  0.3241  0.1008 -0.1605
24371W        W40505   5.640  10.481  11.286  0.2453 -0.0199  0.0254
24372W        W40506   9.096  16.054  15.467 -0.3371 -0.4190  0.0843
24373W        W40507  12.471  18.432  11.745  0.2210  0.0858  0.1230
24374W        W40508   1.557  11.539  12.737 -0.2268 -0.0514  0.0476
24375W        W40509   8.322  17.107  13.761 -0.1564  0.0755 -0.1897
24376W        W40510   1.429   6.010   3.606 -0.1329 -0.2060 -0.3528
24377W        W40511  10.191   7.341  11.632 -0.0971 -0.2875  0.1712
24378W        W40512   7.268  17.631  14.867  0.1768  0.0171 -0.0901
24379W        W40513  17.827  14.317  12.234  0.0553 -0.0348  0.2329
24380W        W40514  13.475   5.456  15.336  0.0835 -0.1064 -0.0266
24381W        W40515  17.240  12.283   4.350 -0.0768 -0.0273  0.1174
24382W        W40516  15.735   8.423   0.839  0.2623  0.0635  0.1093
24383W        W40517  16.953   7.530  14.477 -0.0790 -0.0234  0.0453
24384W        W40518  14.949  15.510  13.090  0.2130 -0.0280  0.0215
24385W        W40519  10.874   0.245  11.974 -0.2082 -0.0810  0.1368
24386W        W40520  10.540  10.291  13.028  0.2237 -0.1089 -0.0267
24387W        W40521  11.839  11.169   1.017 -0.1537 -0.1200  0.2531
24388W        W40522   7.197  15.144  14.248  0.1022  0.3523  0.1533
24389W        W40523  12.586   7.808  14.132 -0.2427 -0.0302 -0.3213
24390W        W40524  10.046   8.154  11.270  0.1123 -0.0700  0.1968
24391W        W40525   0.377   6.226   2.790  0.0588 -0.0111  0.0916
24392W        W40526   6.487   2.338  12.970  0.1336 -0.1181 -0.1664
24393W        W40527  15.402  10.816   0.692 -0.0412 -0.0748 -0.0855
24394W        W40528  17.393   9.247  11.415  0.1834  0.0751 -0.1528
24395W        W40529   7.884  10.153   2.292  0.1702 -0.1346 -0.2041
24396W        W40530   1.910   0.121   3.353 -0.3075  0.1252  0.0594
24397W        W40531  15.597  15.474   5.138 -0.1582 -0.0837 -0.0397
24398W        W40532   3.041   3.413   2.640  0.0777 -0.3212  0.1710
24399W        W40533   1.371  11.820   2.532  0.1859 -0.2321 -0.1306
24400W        W40534   3.434  18.519  12.174  0.0962 -0.2414 -0.0439
24401W        W40535  13.914   1.699   2.348 -0.1328  0.2225  0.0660
24402W        W40536  13.688   5.415   0.704  0.7211 -0.6852 -0.0543
24403W        W40537   3.375   4.700  15.447 -0.0196 -0.0670 -0.2708
24404W        W40538   4.918   3.060  11.882  0.0809 -0.3579 -0.1989
24405W        W40539  16.558   2.401   2.158 -0.1020  0.1079  0.2777
24406W        W40540  13.819   4.054  15.175  0.0446  0.2435  0.0306
24407W        W40541  14.325  17.394  14.984  0.0780  0.1490 -0.0729
24408W        W40542   4.232  11.657  15.161 -0.0976 -0.1370 -0.0161
24409W        W40543   5.045  15.963  11.071 -0.1235  0.0894  0.1129
24410W        W40544  11.093   0.518   3.593 -0.1549 -0.1281 -0.0878
24411W        W40545  11.737   2.090   4.634  0.0453 -0.5249 -0.1138
24412W        W40546   2.049  15.821  14.888  0.0005 -0.0358 -0.1161
24413W        W40547   0.436  12.419   1.781 -0.1363 -0.0237  0.2552
24414W        W40548   3.895  15.512  15.494 -0.0920  0.3667 -0.1976
24415W        W40549   5.631  18.570  14.567  0.2105 -0.1503 -0.2584
24416W        W40550  15.380   4.144  11.688  0.0417  0.0401 -0.0349
24417W        W40551   3.596   3.136   0.443  0.0826  0.1996 -0.0137
24418W        W40552   1.137   6.418   3.801  0.1152 -0.1220  0.2829
24419W        W40553   6.565   0.321   4.412  0.2025 -0.3078  0.1647
24420W        W40554  12.066   5.393   5.063 -0.3431 -0.1436 -0.0030
24421W        W40555  15.997   5.302   1.641 -0.2415 -0.1210 -0.2319
24422W        W40556   5.784  15.450   2.354 -0.0062  0.1720 -0.0880
24423W        W40557  15.827   0.437   3.673  0.1062 -0.1964 -0.1177
24424W        W40558  18.184  10.646   3.994  0.3141  0.1442 -0.0633
24425W        W40559   9.545   7.156  15.094  0.1133 -0.1732  0.1017
24426W        W40560   4.848  10.611  13.199 -0.3075  0.3239  0.2643
24427W        W40561  16.736   7.678   3.043 -0.1567 -0.0332 -0.0475
24428W        W40562  12.679   1.527  15.309 -0.0354  0.0220  0.2147
24429W        W40563   7.915   8.619  15.315  0.0571 -0.2450  0.3400
24430W        W40564  10.705  16.269   2.801 -0.0781 -0.0384 -0.3098
24431W        W40565  10.155   7.356  13.331  0.0109  0.2182 -0.0952
24432W        W40566   3.354   4.727  13.149 -0.1572 -0.1659  0.1932
24433W        W40567   6.047  17.001   6.087 -0.0690 -0.1013  0.0935
24434W        W40568   7.145  10.868  12.728  0.0075  0.2480  0.2302
24435W        W40569   5.614   0.593   1.663 -0.3458  0.2522  0.0418
24436W        W40570   4.693   4.052   2.669  0.3007 -0.1367  0.1446
24437W        W40571   0.113   5.409  15.308 -0.0906 -0.2122  0.1206
24438W        W40572  17.034  18.455   0.248  0.0698  0.0968 -0.3546
24439W        W40573  12.501  15.916  10.781  0.1885  0.2608  0.2122
24440W        W40574   7.090  18.647   2.876 -0.2477 -0.2423 -0.0226
24441W        W40575   3.461   8.293  14.867  0.4059  0.1176 -0.1588
24442W        W40576  13.597   4.234  13.715 -0.2298  0.0184 -0.0447
24443W        W40577  15.770   7.279   2.772 -0.2868 -0.2586  0.2504
24444W        W40578  10.404  13.334  11.469 -0.2602  0.0577 -0.1476
24445W        W40579  15.865   3.114   1.551  0.1483 -0.1036  0.3564
24446W        W40580   2.626  13.492  14.109 -0.2329 -0.2139 -0.4184
24447W        W40581   4.873  11.091  13.500  0.0530  0.1218  0.0424
24448W        W40582  14.975  16.956   5.346  0.3203  0.0329  0.1115
24449W        W40583   4.059  13.640  14.167 -0.2438  0.2289 -0.0444
24450W        W40584  17.483  13.743   2.588 -0.3590  0.2173 -0.1820
24451W        W40585  10.585  18.349   1.085  0.0625  0.0171 -0.1630
24452W        W40586  12.792   1.042  14.409  0.1089 -0.0739  0.0558
24453W        W40587   2.986  15.303  11.898 -0.4974 -0.1011 -0.0642
24454W        W40588   3.162   7.746   2.362  0.0350  0.1759 -0.2577
24455W        W40589   9.154  14.909   2.062  0.0110 -0.2551  0.2270
24456W        W40590   5.009   3.087   0.124  0.0619 -0.1703  0.0106
24457W        W40591   4.257   2.404   0.924 -0.1245  0.0239  0.1777
24458W        W40592  14.340  10.455   0.053 -0.1560 -0.2804  0.3096
24459W        W40593  17.672  12.559   4.864 -0.3754 -0.2077  0.1018
24460W        W40594  11.280  10.883   5.266 -0.0066 -0.0679 -0.1170
24461W        W40595  13.151  12.598   2.838  0.0107  0.0625 -0.3505
24462W        W40596   3.865   0.631  14.102  0.1108 -0.0181  0.1329
24463W        W40597  16.067   5.863  13.884 -0.1112  0.2711  0.0927
24464W        W40598  12.468  11.030   1.551 -0.0608  0.0395 -0.2533
24465W        W40599  10.764   2.878  14.514 -0.1432 -0.3050  0.1522
24466W        W40600   2.902  13.866   4.273 -0.1779  0.0049 -0.0551
24467W        W40601   5.008   4.320  10.187  0.0051 -0.1488  0.1256
24468W        W40602   2.408  16.487   0.203  0.0027 -0.3254  0.2419
24469W        W40603   2.615   7.796  13.842  0.2221  0.1961  0.0645
24470W        W40604  16.256   7.002   1.507  0.0559 -0.3622 -0.2007
24471W        W40605  17.668   0.674  13.757  0.0872  0.0486  0.0340
24472W        W40606   0.930  14.455  12.286  0.3368 -0.3625  0.0907
24473W        W40607   5.898   1.808  13.650 -0.1784 -0.0525 -0.0280
24474W        W40608   2.015  10.548  12.104 -0.2250  0.0689  0.3048
24475W        W40609  14.477   6.141  10.533 -0.0611 -0.0843 -0.0168
24476W        W40610  17.006   1.347   0.491 -0.1766 -0.0392 -0.2104
24477W        W40611   9.719  17.876   2.950  0.2292 -0.1998 -0.0362
24478W        W40612   1.334   2.378   1.635 -0.2004 -0.1585  0.1019
24479W        W40613   2.274  13.066   2.216  0.0586  0.2733 -0.0672
24480W        W40614  12.120   0.253   4.286  0.0579 -0.0716  0.1691
24481W        W40615   5.061   2.641   0.263  0.1925 -0.2173 -0.0193
24482W        W40616   7.106   0.548   1.794 -0.1433  0.1037  0.2779
24483W        W40617   8.637   9.844  15.043  0.1424 -0.1284  0.3234
24484W        W40618  13.995   6.708  14.046  0.2233  0.2199 -0.2341
24485W        W40619   2.118   8.351   3.171 -0.2777  0.1383 -0.3484
24486W        W40620   9.383   1.409   1.502 -0.3273 -0.4191 -0.0342
24487W        W40621   2.150  14.397   3.220 -0.0926  0.1881 -0.0412
24488W        W40622   8.500  10.634   4.773 -0.1950 -0.1750  0.0914
24489W        W40623  14.389   1.794   3.223 -0.0852 -0.0327 -0.3507
24490W        W40624  11.230   8.619   0.149  0.5761  0.0370  0.2037
24491W        W40625   0.462  14.677   5.227 -0.0189  0.2380  0.0585
24492W        W40626   6.919  18.687  14.957  0.1621 -0.1893  0.1692
24493W        W40627  15.511  14.626   2.898  0.0859  0.3640 -0.0679
24494W        W40628   9.271   0.167  11.043 -0.2115 -0.0137  0.1142
24495W        W40629   0.077   6.372   0.663  0.2028 -0.1697  0.2790
24496W        W40630   2.254   5.818   2.067 -0.0951 -0.2291 -0.0838
24497W        W40631  15.744  13.639   5.310 -0.3456 -0.1959 -0.3981
24498W        W40632   9.348  12.095   1.130  0.2153  0.2296  0.0802
24499W        W40633   9.070  15.135   5.071  0.2660 -0.0536 -0.2899
24500W        W40634  10.735  16.724   1.121 -0.3902 -0.0964  0.0360
24501W        W40635   5.547  17.901   4.432 -0.0237 -0.0897 -0.3740
24502W        W40636  15.023   6.562   0.651 -0.2293 -0.2950  0.0174
24503W        W40637  13.836   1.135   3.054 -0.1984 -0.2360  0.2913
24504W        W40638  15.596  17.579   3.547 -0.0918  0.1134  0.2052
24505W        W40639  11.425   3.991   1.129 -0.0851  0.1822  0.2615
24506W        W40640   4.248   1.534  14.082 -0.2321  0.1898  0.1712
24507W        W40641  15.595   0.739  10.907 -0.4673 -0.1218 -0.0301
24508W        W40642  15.868  18.679  13.473  0.2319  0.2244 -0.0026
24509W        W40643  10.753  18.433  11.364  0.1101 -0.2099 -0.1078
24510W        W40644   0.015   2.073   5.177  0.0389  0.0152  0.0917
24511W        W40645   3.396   1.564   1.295 -0.1377 -0.2514 -0.1198
24512W        W40646   5.989   0.404  10.904 -0.1561  0.1400 -0.2248
24513W        W40647  12.357   5.701  11.646 -0.3455  0.1074  0.0558
24514W        W40648  15.123  13.050   5.111  0.1111 -0.1671  0.0475
24515W        W40649  11.689   0.166  11.834 -0.0072 -0.3206  0.2375
24516W        W40650   9.133  10.680  10.577  0.0314  0.1212 -0.0600
24517W        W40651  14.319  18.369   9.979  0.2093 -0.0586  0.2393
24518W        W40652   6.361  15.001   3.707  0.0168 -0.3623  0.0990
24519W        W40653  11.123  11.253  13.756 -0.0064  0.0723 -0.1720
24520W        W40654   4.192   7.163   0.147 -0.3667  0.1093 -0.0859
24521W        W40655   9.236  10.236  15.038  0.0324 -0.1046 -0.2007
24522W        W40656   5.580   5.345  14.485 -0.0214  0.3032  0.0659
24523W        W40657   0.857   6.010  12.741 -0.1686 -0.7148 -0.1420
24524W        W40658   7.432   2.052  12.911 -0.0095  0.0563  0.0835
24525W        W40659  10.327   9.339  15.013  0.2610 -0.0174 -0.2190
24526W        W40660  10.487   1.161   2.745 -0.0266 -0.0433 -0.3184
24527W        W40661   8.372   6.610   4.134 -0.4099 -0.0458  0.0122
24528W        W40662   5.502  15.874   0.423  0.1893  0.0170  0.2694
24529W        W40663  11.624   7.395  12.184 -0.1806  0.0992 -0.1458
24530W        W40664  10.344  14.539  13.030  0.2251 -0.2175  0.0005
24531W        W40665   6.922   3.022   5.276  0.2395 -0.0430  0.3654
24532W        W40666   7.859  14.427   4.034  0.3375  0.2484 -0.1050
24533W        W40667  12.326   7.057   0.801  0.3170 -0.3326 -0.2605
24534W        W40668  12.888  18.559   4.594 -0.1394 -0.1065 -0.1775
24535W        W40669   3.998   2.139  11.033  0.4709  0.1158 -0.4427
24536W        W40670   5.863   1.461  10.831  0.0095 -0.0294  0.1268
24537W        W40671   5.310  17.958   3.209 -0.1024  0.1828  0.0021
24538W        W40672   2.796  16.893   1.679  0.2486  0.0967  0.0039
24539W        W40673   6.881  17.068   4.251  0.0033 -0.0858  0.1772
24540W        W40674  10.278  17.077   0.955  0.1876 -0.1129  0.2773
24541W        W40675   0.538  12.696   3.395 -0.0767 -0.0527  0.0825
24542W        W40676  18.683   5.671  11.721  0.0180  0.1827  0.0214
24543W        W40677  14.576  16.403  14.133  0.1873 -0.3046 -0.1526
24544W        W40678  11.003  18.010  12.758  0.0273  0.3949  0.0252
24545W        W40679  10.057  10.974   2.259 -0.2495  0.3596 -0.1246
24546W        W40680  16.449   5.612   1.629  0.0125 -0.0588 -0.1026
24547W        W40681   8.278   7.601   3.693  0.1992  0.0717 -0.1300
24548W        W40682  16.128   6.371   1.560  0.2681 -0.2114 -0.1501
24549W        W40683  11.991   1.830   2.702  0.2690 -0.1951 -0.2672
24550W        W40684  15.309   2.034   0.836  0.0425 -0.0419  0.0866
24551W        W40685   7.232  18.011  12.240 -0.0330  0.2345  0.1354
24552W        W40686   6.171   7.942   5.218 -0.2932 -0.1495 -0.3863
24553W        W40687   0.449   0.271   1.386  0.2350  0.4307  0.2293
24554W        W40688  12.800  18.178  11.473  0.1113 -0.0872  0.0578
24555W        W40689   5.820   7.406  14.255  0.1705  0.1397  0.0514
24556W        W40690   5.746   4.608   4.039  0.1785 -0.1982 -0.0663
24557W        W40691  11.170  10.324  11.750 -0.2099  0.3408 -0.0657
24558W        W40692  10.126  13.258  14.655 -0.1819  0.3306  0.0229
24559W        W40693  12.015  15.786   3.753  0.1183 -0.1073  0.2279
24560W        W40694   8.258   0.839   1.000  0.1257  0.1989 -0.0288
24561W        W40695   7.287   7.697  10.551  0.1683 -0.1251 -0.1645
24562W        W40696  10.620   5.242  14.233 -0.1269 -0.0101 -0.2227
24563W        W40697   8.531   9.018  13.821  0.0844 -0.2867 -0.0849
24564W        W40698   4.660  11.610   1.319  0.0527 -0.0571  0.0027
24565W        W40699  12.121  12.025  11.504 -0.0329  0.0142  0.0422
24566W        W40700  15.785   6.149  12.202  0.1560 -0.0514  0.2330
24567W        W40701  10.804  10.122   4.523 -0.1025 -0.0305  0.0193
24568W        W40702  15.893   4.066  14.550 -0.3488  0.0555 -0.3564
24569W        W40703  13.817  13.056  12.049  0.0408 -0.0780 -0.0384
24570W        W40704  11.826   4.624   0.172  0.0229  0.0925  0.0071
24571W        W40705  13.135  18.603  15.298 -0.2710  0.3627  0.3067
24572W        W40706   4.849   3.288   4.629 -0.1405  0.0824 -0.1819
24573W        W40707  11.488  16.491  13.256 -0.5002  0.0833  0.0580
24574W        W40708  11.176  13.304  13.778 -0.0761 -0.1198  0.0811
24575W        W40709   6.861   7.133   1.797 -0.0162  0.2105 -0.4243
24576W        W40710   3.671   7.561  11.881 -0.0104  0.0627  0.0166
24577W        W40711   6.205   3.381  13.152 -0.0808 -0.4503 -0.1391
24578W        W40712   4.997   5.582  12.113 -0.1591 -0.2547  0.2165
24579W        W40713   4.167  18.595  13.301 -0.0268 -0.1897 -0.0308
24580W        W40714   2.898   9.763   2.525 -0.0941 -0.1953 -0.0637
24581W        W40715   9.703   2.286   0.519  0.2238 -0.0795 -0.0310
24582W        W40716  14.387  16.465  10.847  0.0710  0.0526 -0.1809
24583W        W40717  10.847  15.579   1.960 -0.0676  0.0040 -0.1018
24584W        W40718   8.618   8.579  13.184  0.1839  0.0982 -0.4139
24585W        W40719  13.013   3.039   0.002  0.1493 -0.0798  0.0375
24586W        W40720  17.163   0.333   0.614  0.0840 -0.0176  0.0615
24587W        W40721   0.732   4.250   0.888  0.2269 -0.3175 -0.5453
24588W        W40722   1.624   8.013   0.645  0.2483 -0.1385  0.1345
24589W        W40723  17.233  10.234  11.654 -0.0743  0.1046  0.1807
24590W        W40724  13.865  16.686  12.416 -0.1036 -0.1203  0.2607
24591W        W40725   7.910  18.069  12.818  0.0856  0.0718  0.0884
24592W        W40726  10.013  18.429  13.093  0.1615  0.0362  0.0494
24593W        W40727  17.460   2.020   0.586  0.0797 -0.1391  0.0083
24594W        W40728   4.512  16.175  13.254  0.2838  0.3564  0.2950
24595W        W40729   0.010  15.790  11.681  0.1870 -0.1178  0.3459
24596W        W40730   7.258   6.693   4.162 -0.1404 -0.0706 -0.1149
24597W        W40731  13.749   4.725  13.831  0.0982  0.1133 -0.0319
24598W        W40732  16.929   7.910   2.570 -0.3635  0.0317  0.1376
24599W        W40733   2.887   3.705   1.412 -0.0511  0.3677 -0.0612
24600W        W40734  14.845   6.029   9.759  0.1187  0.0831  0.0734
24601W        W40735  13.627  10.121   4.585  0.0897  0.0679 -0.3688
24602W        W40736  11.607   1.646  13.559 -0.0118  0.1063 -0.0727
24603W        W40737  17.479  10.107   2.361 -0.0298  0.0665  0.0971
24604W        W40738   0.373  17.228   0.363  0.2120 -0.0182 -0.3152
24605W        W40739   0.836   4.121  13.950  0.0290  0.2357  0.1668
24606W        W40740  15.670   4.597  14.469 -0.1408  0.0979 -0.0737
24607W        W40741  17.616   7.128   3.096 -0.0559 -0.0953  0.2131
24608W        W40742  13.595   2.457  10.967 -0.2193 -0.1402  0.2523
24609W        W40743  10.942   7.487   5.790  0.4823 -0.0760 -0.3089
24610W        W40744  16.266   5.135   3.700 -0.0139 -0.2833 -0.0624
24611W        W40745  13.113  14.083   9.495 -0.1736 -0.1454 -0.0744
24612W        W40746   2.997   4.590   4.619  0.2247  0.1091  0.0960
24613W        W40747   8.304   7.303   2.494 -0.0155  0.1858 -0.4614
24614W        W40748  10.989  11.228   2.465 -0.1522  0.1189 -0.1305
24615W        W40749   2.212  12.371  14.476 -0.0906  0.1078  0.2383
24616W        W40750  17.080  11.002  12.675  0.0501  0.1777  0.0649
24617W        W40751  16.624   8.999  15.145  0.2586  0.2713 -0.3424
24618W        W40752   0.578  12.714  14.471 -0.1355 -0.0975  0.0892
24619W        W40753  13.068   6.955  15.502  0.0772 -0.2936 -0.2100
24620W        W40754  12.779  13.940  12.800  0.2125 -0.2734  0.1133
24621W        W40755  14.556  16.604   3.663 -0.3287  0.0880  0.2178
24622W        W40756   0.726   7.333  11.121 -0.0617  0.1921 -0.2152
24623W        W40757  10.956   5.341  12.144 -0.0819 -0.0116 -0.1580
24624W        W40758  12.165   4.829  13.505  0.3411  0.2297 -0.2138
24625W        W40759  18.349  14.468   0.879  0.4449  0.0918 -0.2706
24626W        W40760   9.229   3.148  11.383 -0.2039 -0.1130  0.2950
24627W        W40761   4.071   6.182  11.744  0.3122 -0.0901  0.2657
24628W        W40762   2.547   3.070   3.917 -0.0583 -0.1877 -0.1787
24629W        W40763  16.880  15.006  13.350  0.0985  0.0752  0.2008
24630W        W40764   8.352  17.650  13.913  0.2244 -0.0135  0.0663
24631W        W40765   2.674   0.884  12.352 -0.0335  0.1294  0.0823
24632W        W40766   0.982  12.013   3.716 -0.0464 -0.0428  0.2010
24633W        W40767  18.128   1.214  11.964 -0.0530  0.0934  0.2549
24634W        W40768  15.471   4.508  12.029 -0.1152 -0.0400  0.0588
24635W        W40769  17.341   8.792   3.097 -0.2365  0.1866 -0.0592
24636W        W40770   5.719   8.550  10.614 -0.0029 -0.2625  0.2304
24637W        W40771  16.047  13.842  13.937 -0.1572 -0.1714 -0.0573
24638W        W40772  14.394   9.453   4.410  0.0171 -0.3957  0.0168
24639W        W40773  17.318   4.504   0.073  0.0745  0.1829 -0.1499
24640W        W40774   9.502   8.155   4.601 -0.0997  0.0129  0.1966
24641W        W40775  10.929   0.771   1.827  0.0338 -0.1310 -0.0152
24642W        W40776   3.314  17.444   3.537  0.1526 -0.2678 -0.1278
24643W        W40777  10.803   0.395   2.914 -0.1142  0.3288  0.0335
24644W        W40778  11.356  13.248  12.132 -0.0258  0.0335  0.0918
24645W        W40779   3.582  13.211  10.279  0.1580  0.0487 -0.2973
24646W        W40780   8.648  17.914  11.654 -0.1624 -0.0111  0.0914
24647W        W40781   1.236   3.368   4.379 -0.2137 -0.2883 -0.0401
24648W        W40782  17.626   9.349  10.676  0.0410 -0.0654  0.0209
24649W        W40783   9.126   2.039   2.832  0.0869 -0.1227 -0.3816
24650W        W40784   8.504   9.712  11.124  0.0993  0.1408 -0.2677
24651W        W40785  13.082  11.114  14.532 -0.1003 -0.2357 -0.0494
24652W        W40786  12.113  10.577  15.342 -0.1079  0.1591  0.1874
24653W        W40787  14.644   6.980  11.731  0.0948 -0.1099  0.3905
24654W        W40788   0.188   7.979  11.274  0.0824 -0.1979 -0.1403
24655W        W40789  14.800  12.504   4.091  0.0972 -0.1499  0.0481
24656W        W40790  15.371  17.686  14.138 -0.2590 -0.1259 -0.2293
24657W        W40791   0.833  12.662   1.552 -0.2739 -0.1729 -0.1451
24658W        W40792   2.261   5.736   1.530 -0.1484  0.1242  0.0084
24659W        W40793   3.694   5.709  11.258 -0.0792 -0.0615 -0.0158
24660W        W40794  10.085  10.241  12.877  0.0490  0.2730  0.0649
24661W        W40795   4.049   1.903  13.142 -0.2369  0.2543  0.0291
24662W        W40796   1.354   6.596   2.010 -0.3247 -0.1327  0.0707
24663W        W40797   7.309  12.838   5.465 -0.0950  0.0555  0.3309
24664W        W40798  14.279   2.606  11.022 -0.2232 -0.0543 -0.1464
24665W        W40799  12.204   7.165  13.473 -0.0068  0.1429  0.1808
24666W        W40800   2.989  17.199   5.068  0.0237  0.2420 -0.0132
24667W        W40801   3.853   7.365  15.308  0.2103  0.1749 -0.2692
24668W        W40802   4.004  14.606   4.537  0.2264 -0.0635 -0.1849
24669W        W40803  11.932  16.695   1.687  0.0972 -0.3078 -0.1010
24670W        W40804   6.238   2.589   0.649 -0.1690  0.1076 -0.1973
24671W        W40805   1.189  11.556  13.953  0.1693 -0.1331  0.1785
24672W        W40806   4.391  15.337   5.580  0.0093  0.0806  0.2221
24673W        W40807   2.481  15.665   2.512 -0.1885 -0.1100 -0.0856
24674W        W40808   9.358  15.887  12.233 -0.2054 -0.0467 -0.0073
24675W        W40809   0.235  18.584   0.613  0.0724  0.3972  0.1022
24676W        W40810  12.866  13.042   4.015 -0.3267 -0.1198  0.0465
24677W        W40811   4.805   8.795  13.291  0.1162  0.0952  0.1701
24678W        W40812   2.694   9.465  11.345  0.0463  0.2806  0.0445
24679W        W40813  17.107   1.876  14.155 -0.0477  0.1131 -0.0820
24680W        W40814   8.394   7.101  12.529 -0.1382 -0.1550 -0.1894
24681W        W40815  12.535   5.498   3.976 -0.0820  0.0764  0.0566
24682W        W40816  11.346   6.612   2.103  0.2142  0.2751  0.1821
24683W        W40817  16.063  11.750   2.960  0.1156 -0.2441 -0.3411
24684W        W40818   7.589  13.587  11.990 -0.1433  0.1411  0.2271
24685W        W40819   1.812  18.448  13.240  0.0334  0.0426  0.2647
24686W        W40820  11.508   0.898  15.152 -0.1017 -0.1432  0.3638
24687W        W40821   8.413   0.832  10.989 -0.2241  0.0795 -0.1865
24688W        W40822  12.067   5.854   5.378 -0.0902  0.0409  0.0471
24689W        W40823   7.403  13.420   0.579  0.0971  0.1559 -0.0372
24690W        W40824   2.542  10.537   0.585  0.0737  0.0882  0.2672
24691W        W40825  13.089   4.042   4.811 -0.2077  0.1616  0.0399
24692W        W40826  11.431  17.236  13.299 -0.0483  0.2468  0.2366
24693W        W40827   7.646   5.566   4.000  0.0170  0.0281  0.4491
24694W        W40828   2.297   9.811  11.133  0.0814  0.1309  0.0980
24695W        W40829   8.688   5.627   1.477  0.0223 -0.3283 -0.0266
24696W        W40830  16.593   4.604   5.546 -0.3921  0.0338  0.3052
24697W        W40831  12.518  14.577   0.532 -0.3448 -0.0113 -0.1065
24698W        W40832  13.023  12.225   0.962 -0.1512 -0.2081 -0.2056
24699W        W40833  11.204   3.815  13.564 -0.1540  0.0954 -0.0799
24700W        W40834   0.798   4.396   5.243 -0.0624 -0.0320 -0.0025
24701W        W40835   2.999   5.465   1.915  0.0853  0.0852  0.0593
24702W        W40836   2.211   4.925   0.710 -0.0323 -0.1808  0.0443
24703W        W40837   4.579   8.636   3.949 -0.3957 -0.2793  0.4407
24704W        W40838  18.317  10.041  13.017  0.0116  0.0178 -0.2367
24705W        W40839  14.413  17.174  12.758 -0.3437  0.0119 -0.0855
24706W        W40840   8.094  17.393  11.033 -0.0009 -0.1588 -0.0310
24707W        W40841  12.296   9.652   5.651  0.2261  0.1737  0.3007
24708W        W40842  11.047  15.530   2.831  0.3954  0.0077  0.0302
24709W        W40843   9.850   1.985   3.543 -0.4253  0.1964 -0.3475
24710W        W40844   0.707  12.753  11.221 -0.2156  0.0660  0.0314
24711W        W40845  12.852  11.364   1.994 -0.0219  0.0343 -0.0706
24712W        W40846   2.613   2.036   2.966  0.0448 -0.3081 -0.0298
24713W        W40847  16.737   3.572  14.542  0.1017  0.1855  0.2215
24714W        W40848   1.079   7.351   4.157 -0.2118  0.1150  0.3313
24715W        W40849   5.836  16.284   2.706 -0.1492  0.0183  0.2244
24716W        W40850  16.654   2.709   2.588 -0.1175  0.1070 -0.1958
24717W        W40851  15.973  11.575  10.127 -0.0254 -0.1386  0.0822
24718W        W40852  16.691   5.487  11.759 -0.0553  0.3610 -0.0182
24719W        W40853  12.414   8.929   3.363 -0.0590 -0.4074 -0.0584
24720W        W40854  16.457   8.737  14.781 -0.0950  0.1819  0.0946
24721W        W40855   7.197  10.264   4.752  0.0888  0.0383 -0.1204
24722W        W40856   2.002   3.019  14.830 -0.2342 -0.1478  0.2411
24723W        W40857   4.149  18.643   2.581 -0.2288  0.1607  0.1827
24724W        W40858   8.798   1.392   4.664 -0.2190 -0.0714  0.0739
24725W        W40859  12.279   9.551  12.679  0.2465  0.0815  0.0973
24726W        W40860   3.016  13.882   3.196  0.1277  0.1364  0.1177
24727W        W40861   1.579   1.465  15.476 -0.0831  0.1271  0.1439
24728W        W40862  17.716   8.865   3.712 -0.0758  0.1969  0.3100
24729W        W40863   7.600  10.916  12.595 -0.2952 -0.0198  0.0828
24730W        W40864  11.271   8.475  10.700 -0.0368 -0.0563  0.2200
24731W        W40865   2.191  15.949  13.292  0.0397 -0.0537 -0.0655
24732W        W40866   2.268  13.182  13.818 -0.0782  0.1231  0.1731
24733W        W40867   9.498  13.663   0.010  0.2291  0.4576 -0.0418
24734W        W40868  10.536   2.964  12.563  0.2205  0.1835  0.3099
24735W        W40869  14.680  17.286  11.950  0.1405  0.0948  0.0573
24736W        W40870  15.182   2.894   2.481  0.3694 -0.2983 -0.2156
24737W        W40871   4.315  11.490   1.693  0.0848  0.1151 -0.0735
24738W        W40872  13.395  11.583   4.283  0.0231  0.3166  0.0888
24739W        W40873   6.977   3.708   1.936  0.0137  0.2148 -0.2035
24740W        W40874   6.183  12.708   1.434  0.3295 -0.1645  0.0439
24741W        W40875   1.332  13.711   2.513 -0.3091 -0.0348 -0.1339
24742W        W40876  14.145  10.577  13.755  0.1734 -0.3973 -0.0217
24743W        W40877   5.854  16.579  15.036  0.2100  0.3620  0.0772
24744W        W40878   2.913   0.221   3.105 -0.2680 -0.0622 -0.0706
24745W        W40879   4.266  11.890   3.815  0.2215  0.0848  0.0092
24746W        W40880  14.313   8.840  12.222  0.3953 -0.0871 -0.1030
24747W        W40881   5.889  15.896   2.199  0.1667 -0.2192 -0.3082
24748W        W40882   7.764  15.553   4.723  0.0417  0.2139 -0.1389
24749W        W40883   3.296  12.185   5.147 -0.1508  0.1522  0.0416
24750W        W40884   9.392  10.417   4.538 -0.0661  0.1267 -0.3333
24751W        W40885  14.871   2.596  12.015 -0.1543 -0.1230  0.1720
24752W        W40886   6.956   8.732  10.042  0.1366 -0.1566  0.0742
24753W        W40887  14.349  11.396  11.331  0.1320  0.1676  0.0796
24754W        W40888   5.433   5.419  10.925 -0.3720  0.0987  0.4779
24755W        W40889  15.382  14.625  14.141 -0.0132 -0.1017 -0.1146
24756W        W40890  15.052   2.563   0.638 -0.2096  0.0036 -0.3596
24757W        W40891  16.352  18.249  12.476 -0.0672  0.0723 -0.0840
24758W        W40892   1.636  15.667  14.801 -0.2173 -0.1897 -0.1301
24759W        W40893   2.258   2.713   0.269 -0.2560  0.1351 -0.2353
24760W        W40894   0.776   7.628  14.864  0.1032  0.0717  0.2124
24761W        W40895  17.462  12.057  11.978  0.2073  0.2147 -0.0764
24762W        W40896   0.378   5.016  14.118  0.1258  0.2007  0.0005
24763W        W40897   6.230  14.065  12.707 -0.2270 -0.0007 -0.0857
24764W        W40898   7.163   6.298  13.441 -0.3340 -0.1383  0.2085
24765W        W40899  15.654  16.057  11.135 -0.4607 -0.0346 -0.0096
24766W        W40900   8.601   8.317  14.087 -0.0730 -0.1354  0.0382
24767W        W40901  14.607  14.182   1.817 -0.1485 -0.0985 -0.0938
24768W        W40902   7.970  10.028   2.893  0.1840 -0.0886 -0.2931
24769W        W40903   7.534   2.305   3.135  0.2202  0.4277 -0.2391
24770W        W40904   2.542  10.239   0.970  0.0077 -0.0141  0.3312
24771W        W40905   4.170   5.174   0.443  0.0337  0.1479 -0.3280
24772W        W40906   6.804   9.336   4.698 -0.1904  0.1357 -0.1227
24773W        W40907  10.853  12.906  12.519  0.0650  0.2127 -0.1523
24774W        W40908   4.925  17.527  11.919 -0.0380  0.0630 -0.1466
24775W        W40909  17.979   0.589  14.310  0.0955  0.2017 -0.0880
24776W        W40910  18.590  17.384   4.797 -0.2173  0.1466  0.2672
24777W        W40911   1.978   2.151  13.838 -0.0393 -0.0119  0.1214
24778W        W40912  13.676   8.810  14.301  0.1203  0.0456  0.0094
24779W        W40913   6.802   7.499   5.035  0.1368  0.1342  0.1383
24780W        W40914   3.688  16.894   1.797 -0.0576  0.0544  0.1008
24781W        W40915   9.746   0.975  15.308 -0.2557  0.2752  0.0211
24782W        W40916   6.869   1.967   4.606 -0.1353  0.2913  0.1674
24783W        W40917   0.348   4.321   0.449 -0.2148  0.1745  0.3848
24784W        W40918   8.753  14.688   4.685 -0.0052 -0.0852  0.1751
24785W        W40919  16.011   0.038   4.595 -0.4180 -0.2044 -0.0367
24786W        W40920  18.706   1.579  10.911  0.2788  0.2404  0.2165
24787W        W40921  12.979  10.840   1.817 -0.2368  0.2747 -0.0678
24788W        W40922   6.258   4.018   4.305  0.0391 -0.1842 -0.2625
24789W        W40923   3.209  18.667   1.622  0.2345  0.1124  0.0887
24790W        W40924   8.888   6.668   1.214  0.1749 -0.2613  0.0178
24791W        W40925   7.206   5.162  12.275 -0.2318 -0.0291  0.2329
24792W        W40926  14.752  15.673  11.000 -0.1503 -0.0516  0.2320
24793W        W40927  10.619   3.889  13.642  0.2828  0.2416  0.1128
24794W        W40928  15.628   8.346  12.806  0.5994 -0.1061  0.0357
24795W        W40929  17.543  18.164   4.642  0.3964 -0.1247  0.2834
24796W        W40930   0.256   4.967  11.004 -0.3816  0.0010 -0.0891
24797W        W40931  10.790   4.665  10.932 -0.1712 -0.0676 -0.0380
24798W        W40932   5.141  16.882   1.672 -0.3229 -0.3764  0.1339
24799W        W40933   5.315   6.077   3.413 -0.1278 -0.0850  0.1055
24800W        W40934   6.124   2.621   4.892  0.2864  0.0352  0.2957
24801W        W40935   5.508   4.018   3.187  0.1155  0.0717 -0.2577
24802W        W40936   4.613  18.578  12.661 -0.2028 -0.0428 -0.0365
24803W        W40937   5.719  11.618   1.187 -0.0328 -0.0544  0.1965
24804W        W40938   9.578   8.119  11.696  0.1479  0.1699  0.2519
24805W        W40939  18.208   6.845  13.594 -0.3168  0.0255  0.3478
24806W        W40940  12.229   4.758  14.990 -0.0823  0.0113 -0.0540
24807W        W40941  15.039  17.602  12.336  0.0769  0.0055  0.0083
24808W        W40942   9.963  16.072  10.939 -0.0381  0.1914 -0.2656
24809W        W40943   4.397   5.935   0.074  0.1771  0.1814  0.1038
24810W        W40944   5.617  14.628  13.214 -0.1790 -0.1222 -0.1055
24811W        W40945   8.159  13.708   3.933 -0.4221  0.0447 -0.1584
24812W        W40946  16.875   4.772  11.107 -0.1930  0.2170  0.0105
24813W        W40947   7.315  14.406   3.026  0.0818 -0.1337 -0.3500
24814W        W40948  18.568  15.304   4.562 -0.0130  0.2317 -0.1959
24815W        W40949   1.436   6.897   3.915  0.0224  0.2025 -0.1035
24816W        W40950  10.259  13.897   2.225 -0.2545 -0.0610  0.1456
24817W        W40951   3.684  15.777  11.792  0.0461  0.0627  0.0195
24818W        W40952   1.133  13.814   0.276  0.2533 -0.0653 -0.0379
24819W        W40953  15.320   9.539  13.923 -0.0877 -0.2275  0.0053
24820W        W40954  12.006   7.688  15.180 -0.0284  0.3112 -0.0970
24821W        W40955   9.719  18.569   5.884  0.1713  0.0752 -0.0453
24822W        W40956   7.590   0.203   1.465 -0.0474  0.0258  0.0879
24823W        W40957   2.720  11.536   4.249  0.0075  0.0616 -0.1610
24824W        W40958   7.872  14.363   0.203 -0.0676  0.0789  0.1006
24825W        W40959  18.459  17.903   2.534  0.0972  0.1355  0.2402
24826W        W40960  13.267  12.690  13.485 -0.2915 -0.0373 -0.0051
24827W        W40961   0.349   9.196  12.157  0.1839 -0.0641 -0.0543
24828W        W40962   9.334   1.697  14.034  0.0081 -0.2057  0.0268
24829W        W40963   6.056  10.816  12.659 -0.1007 -0.2207  0.0308
24830W        W40964  11.163   1.234   0.187  0.1756 -0.0437  0.2048
24831W        W40965   1.087  11.683  11.533 -0.4467 -0.1640 -0.2353
24832W        W40966  11.764   5.426   3.687 -0.0306 -0.1343  0.2993
24833W        W40967  17.907  12.528   1.722  0.0945 -0.1911  0.3219
24834W        W40968   2.236  10.105   3.653  0.1048 -0.2082 -0.1765
24835W        W40969  10.174   9.073  12.319  0.2217  0.0343  0.1067
24836W        W40970  14.561   8.669   3.189 -0.2737  0.0345 -0.2341
24837W        W40971   8.533   5.678  12.356  0.2174  0.2367 -0.0056
24838W        W40972  14.373  10.898   3.293 -0.1642 -0.3839  0.0879
24839W        W40973  14.108   8.332  12.929 -0.1372 -0.2146  0.0036
24840W        W40974   3.961  14.546  14.283 -0.0565  0.3973  0.3507
24841W        W40975   4.627  14.460   2.083 -0.0204  0.1241  0.2440
24842W        W40976  12.158  10.958  13.170  0.0066 -0.1084 -0.0165
24843W        W40977   3.670   9.848   2.156 -0.0824 -0.1493  0.0963
24844W        W40978  11.492   7.203   0.336  0.1091  0.0805  0.0808
24845W        W40979   5.902   0.493  14.182 -0.0792 -0.1250 -0.0863
24846W        W40980   6.821   2.784  12.163 -0.1827  0.0058 -0.0929
24847W        W40981  15.520   6.470   2.960 -0.0314  0.1043 -0.2175
24848W        W40982   6.751  11.522  11.223 -0.1337  0.0502 -0.4069
24849W        W40983  10.239   1.501   0.426  0.0006  0.0167  0.0224
24850W        W40984   2.829   4.982  13.079  0.0992 -0.2360  0.2582
24851W        W40985  14.286   5.765  11.739  0.1400  0.3193  0.0777
24852W        W40986  13.379   3.607   4.557  0.2688 -0.0936 -0.4136
24853W        W40987  11.511  11.903   0.753  0.0760 -0.0399 -0.1457
24854W        W40988   3.381   5.696   5.128  0.0559 -0.3471  0.2652
24855W        W40989   9.719  17.279   0.405 -0.0496 -0.0269  0.1778
24856W        W40990  18.505   7.089  14.070 -0.0713 -0.0962 -0.0825
24857W        W40991  14.479   8.312   0.304  0.0071  0.2120  0.1150
24858W        W40992  13.589   8.065  13.612  0.2255  0.1235 -0.0669
24859W        W40993  11.909   8.607   4.259  0.0895 -0.2229 -0.1651
24860W        W40994   1.693  16.767  12.731  0.1325  0.1819  0.4322
24861W        W40995   2.260   9.118  14.899  0.1352  0.1035  0.0328
24862W        W40996   1.148  11.166   0.635  0.0228 -0.1052  0.1814
24863W        W40997   2.036   8.134  14.537  0.1645 -0.1761  0.0096
24864W        W40998  10.048   1.584  13.239 -0.1216 -0.3319 -0.2563
24865W        W40999  16.891  11.951  14.684  0.1275 -0.0526  0.1785
24866W        W41000   2.618   3.479   0.785 -0.2899 -0.2908 -0.1215
24867W        W41001   6.859  14.393   1.749 -0.0474  0.1171  0.0272
24868W        W41002   9.231  11.270   0.341 -0.1467 -0.2678 -0.0518
24869W        W41003   3.039  14.730   2.887  0.1595 -0.0331  0.0879
24870W        W41004  14.617   8.831  11.462 -0.1798 -0.0651  0.1709
24871W        W41005  16.488  18.293   1.718  0.1412 -0.0627  0.1853
24872W        W41006   0.584  17.958   9.907 -0.0542  0.0954 -0.1306
24873W        W41007   8.128   5.310   4.358  0.1349 -0.2554 -0.2341
24874W        W41008  18.421  10.228   0.985  0.0464  0.1115  0.2252
24875W        W41009   8.751  16.135   3.523 -0.0448  0.1738 -0.4408
24876W        W41010   0.489   4.633   4.234  0.0276 -0.1558  0.2466
24877W        W41011   2.179   5.681  13.974  0.0165  0.0913 -0.3401
24878W        W41012   3.123  14.396   4.799 -0.0102  0.0360  0.3024
24879W        W41013  16.285  15.802   0.110  0.0634 -0.3983 -0.0559
24880W        W41014  14.877  12.310   0.839  0.2911  0.1883 -0.0932
24881W        W41015   6.992  10.954   3.862 -0.0022  0.0558 -0.4199
24882W        W41016   8.121  17.156  13.041 -0.0214  0.0772 -0.0561
24883W        W41017  16.808   4.086  10.413  0.0662 -0.1299 -0.2354
24884W        W41018  11.788   8.203  14.684  0.3644 -0.2655  0.1979
24885W        W41019   7.282   6.419   4.645 -0.1944  0.0679  0.0778
24886W        W41020  15.560  11.469  14.182  0.0158  0.0521 -0.0358
24887W        W41021  13.502   2.407  15.091  0.1785 -0.1449 -0.0745
24888W        W41022  10.476  17.013   2.328  0.3449 -0.2020 -0.1471
24889W        W41023  18.110   5.479   4.520  0.0058 -0.0430 -0.0259
24890W        W41024  15.232  14.469  15.100 -0.0332  0.2603  0.0310
24891W        W41025   5.527   9.309   1.550  0.0210  0.0682  0.1170
24892W        W41026  11.310   1.834   1.616 -0.1464 -0.0093 -0.1557
24893W        W41027  15.885   9.192   4.506  0.0179 -0.2847  0.2771
24894W        W41028  17.314  18.222   0.664  0.1785 -0.0241 -0.2412
24895W        W41029  11.311   9.593  11.717 -0.2209 -0.1448  0.0555
24896W        W41030   8.679   4.654  13.084  0.0286 -0.3627  0.0131
24897W        W41031   3.564  17.216  13.583 -0.1814  0.1051  0.0383
24898W        W41032  11.619  18.241   4.214  0.0407 -0.2957 -0.1053
24899W        W41033   1.541   0.267   4.526  0.1493  0.0208 -0.2327
24900W        W41034   2.130   7.578  13.810  0.1203 -0.1194  0.1890
24901W        W41035   3.926  14.997  11.054 -0.1147 -0.0869 -0.2888
24902W        W41036   4.576  15.097   4.318  0.1122 -0.1805 -0.1167
24903W        W41037   4.442   5.874   3.187  0.1292 -0.1782 -0.3388
24904W        W41038  16.156   4.935   2.017  0.2806 -0.0406  0.4735
24905W        W41039   5.445  11.939   2.792 -0.0650 -0.2644 -0.1735
24906W        W41040  16.098   3.463  12.613 -0.1022 -0.2333  0.2744
24907W        W41041   8.464  13.514  15.518 -0.5433 -0.0824  0.3242
24908W        W41042  13.201   5.546  14.126 -0.3661  0.1632 -0.0086
24909W        W41043   2.107  12.542   3.138  0.2804  0.0296 -0.1640
24910W        W41044   7.956  18.090   5.273 -0.2269  0.0278  0.0233
24911W        W41045  14.627  11.708  14.121  0.0490  0.1154 -0.1452
24912W        W41046  16.285  18.504   4.177  0.0459 -0.2468  0.0017
24913W        W41047   4.434  13.844  15.255 -0.0997  0.1362  0.0297
24914W        W41048   5.156   0.008  11.169  0.0246 -0.1687 -0.0560
24915W        W41049   6.876  17.287   0.594 -0.3476 -0.1511  0.1370
24916W        W41050  16.529   1.545   2.784 -0.1542 -0.1076 -0.2336
24917W        W41051  11.964   6.318   0.094  0.3697 -0.0814  0.0055
24918W        W41052  17.163   2.253  11.186  0.3242 -0.1121 -0.1501
24919W        W41053  13.490  14.615   5.002 -0.0264  0.2186  0.4896
24920W        W41054   4.038   1.857  11.695 -0.0040 -0.2529 -0.1544
24921W        W41055   5.606  16.463  10.558 -0.1030 -0.1567 -0.0697
24922W        W41056   6.970   1.889  12.040  0.0776  0.1264  0.2190
24923W        W41057   9.258  12.994  13.587  0.1459  0.2043  0.3328
24924W        W41058   7.594  16.781   1.800  0.3601  0.0715  0.1327
24925W        W41059  11.344  11.221  14.967 -0.3606 -0.2797  0.1857
24926W        W41060   0.342   6.433  12.087 -0.0695  0.0305 -0.0727
24927W        W41061  10.981   2.185   3.422  0.0985 -0.0528 -0.2423
24928W        W41062   9.989  18.378  10.961  0.2553  0.1493  0.1404
24929W        W41063  15.186   2.348  14.281  0.0877  0.0137 -0.0725
24930W        W41064   5.508   4.903  11.674 -0.0553 -0.2516 -0.2206
24931W        W41065  15.714   7.324   3.481 -0.0735 -0.0763  0.5882
24932W        W41066   2.578   8.669   3.151  0.1275  0.1821  0.1344
24933W        W41067  17.318  13.332   4.587  0.3746 -0.0754 -0.0007
24934W        W41068  15.388   8.210   5.264  0.5842 -0.2192 -0.0623
24935W        W41069  16.592   8.754   0.797 -0.1346 -0.0870 -0.2390
24936W        W41070   9.262  15.512  13.118  0.1297 -0.1994 -0.2472
24937W        W41071  16.611  18.686   3.786  0.2189 -0.2761 -0.0415
24938W        W41072  11.876  15.587   2.341 -0.0284  0.0545  0.0378
24939W        W41073   1.074   1.421   1.377  0.1178  0.0419 -0.0114
24940W        W41074   6.655  10.240  10.639  0.1205 -0.4419 -0.0380
24941W        W41075   7.986   6.235  14.546 -0.1273  0.2295  0.0789
24942W        W41076   8.172  18.130  14.886 -0.4830 -0.0099  0.0133
24943W        W41077  11.297   9.624  14.929  0.1073 -0.1594  0.0817
24944W        W41078   1.742  16.385   2.364 -0.0564  0.3020 -0.3123
24945W        W41079   3.024   3.744   0.625 -0.0778 -0.3339 -0.0111
24946W        W41080   7.930   3.589  12.319 -0.0191  0.0447  0.0816
24947W        W41081  17.861   3.587  14.531  0.2709  0.0671 -0.1577
24948W        W41082   3.204  16.074  11.707 -0.1095 -0.0249 -0.4096
24949W        W41083  13.328  14.951  14.101 -0.3096 -0.0792 -0.1996
24950W        W41084   2.248   9.692  12.901 -0.2416 -0.0145 -0.3282
24951W        W41085  13.715  15.167   0.486  0.1183  0.1598  0.0982
24952W        W41086   4.055   9.047  12.779  0.1851 -0.1105  0.1457
24953W        W41087   0.837  18.694   1.235  0.1093  0.0326 -0.2452
24954W        W41088   6.095   8.110   1.764  0.1814  0.0630 -0.0638
24955W        W41089  11.225  14.210   3.572 -0.0930  0.1702  0.3468
24956W        W41090   2.753  10.471  11.526  0.1913  0.0423  0.2866
24957W        W41091  14.719   5.431  12.689 -0.0120 -0.0587  0.3251
24958W        W41092   3.902   7.881  11.539 -0.2183  0.0614 -0.0312
24959W        W41093  18.678  16.832   1.104  0.2597 -0.2113 -0.1226
24960W        W41094   7.692   9.404   4.157  0.1624 -0.0871  0.1872
24961W        W41095   3.035   2.018   0.391 -0.0354 -0.1976  0.4388
24962W        W41096   6.546  10.438   0.816  0.0645 -0.2881 -0.0144
24963W        W41097   0.511  10.221   2.081 -0.3821  0.2635  0.1773
24964W        W41098   6.222   5.667  14.845 -0.2246 -0.0386  0.1250
24965W        W41099  18.448   7.756   1.146  0.1054  0.1071 -0.1491
24966W        W41100   1.047   5.429   5.362  0.0741 -0.2381 -0.0029
24967W        W41101   2.799   4.709  10.539  0.1937  0.1591 -0.0003
24968W        W41102   7.877   3.031   1.799  0.3309 -0.0597  0.2480
24969W        W41103  18.062   5.798  13.531 -0.1941 -0.0788  0.3534
24970W        W41104  12.160   0.777   3.628 -0.3858 -0.4802 -0.1852
24971W        W41105  17.258   9.500   3.775  0.2664 -0.0722  0.4551
24972W        W41106  10.126  16.102  11.533 -0.2927 -0.1838  0.1403
24973W        W41107  15.348  15.892   2.694 -0.0074  0.4640 -0.1339
24974W        W41108   5.798  13.018   1.379 -0.1031  0.1305 -0.3651
24975W        W41109   7.641   0.704   4.523  0.1462 -0.0924  0.0402
24976W        W41110   6.032   2.580  13.042 -0.0581 -0.1692 -0.0579
24977W        W41111   5.512   9.012   3.306 -0.1881  0.0192  0.2664
24978W        W41112   5.969   7.790  14.491  0.1265 -0.0053 -0.1552
24979W        W41113  17.588   8.722  15.330 -0.4117 -0.3785 -0.0098
24980W        W41114  13.653   4.859   0.667  0.0950  0.3097 -0.0035
24981W        W41115  12.563  12.064  11.709 -0.3337  0.0268 -0.0876
24982W        W41116   5.760  15.042  13.003  0.1117  0.4777  0.0833
24983W        W41117   0.224  14.619   1.897  0.1149  0.0787  0.1059
24984W        W41118   1.452   1.475  12.791  0.1204  0.2187 -0.0990
24985W        W41119   9.113  17.866  15.093 -0.0023 -0.0094 -0.1430
24986W        W41120   9.535  14.919   1.356 -0.0803 -0.0722  0.2029
24987W        W41121  11.708   6.169   1.150 -0.1275  0.3626 -0.0274
24988W        W41122  14.375  15.863   2.219  0.1941 -0.2628  0.0391
24989W        W41123   9.652   8.257   1.579 -0.2360  0.0911  0.1179
24990W        W41124  11.853   5.251   1.949  0.5532 -0.2627  0.0973
24991W        W41125  13.792  10.864  13.141  0.1246 -0.1805  0.3130
24992W        W41126   9.475  17.560  14.833  0.1233  0.0123  0.1140
24993W        W41127   5.747   1.376   3.460 -0.0457  0.1084 -0.4037
24994W        W41128   0.236  17.466   0.779 -0.3111  0.1471  0.2962
24995W        W41129   2.515  10.112   5.638 -0.0285  0.2580 -0.3592
24996W        W41130   7.273  13.284  10.812 -0.0739 -0.0514  0.1073
24997W        W41131  11.442   0.883   1.100  0.2220 -0.2423  0.0430
24998W        W41132  11.690   4.134  14.935 -0.2611 -0.1488  0.0745
24999W        W41133   6.336   0.641   2.547  0.2085 -0.1858  0.1779
25000W        W41134   4.224  16.707   1.825  0.0996 -0.1049 -0.3496
25001W        W41135   1.001  15.041  12.593 -0.1872 -0.1267 -0.4240
25002W        W41136   3.879   0.572   5.260 -0.1446  0.2566 -0.2385
25003W        W41137   1.079   5.302  13.610 -0.2094  0.0208 -0.1329
25004W        W41138  17.039   1.825  13.028  0.0975  0.1139 -0.0274
25005W        W41139  12.194  15.046  13.320 -0.1399  0.1386 -0.1247
25006W        W41140  14.839   0.063   9.778 -0.1128  0.1548  0.5057
25007W        W41141  10.015   9.051   3.254 -0.0647  0.0527 -0.1666
25008W        W41142   1.737  17.636  11.199 -0.2063 -0.2379  0.0388
25009W        W41143   1.802  13.285  10.179 -0.2828 -0.1803  0.0108
25010W        W41144   6.191   5.472   4.177  0.0523 -0.1409  0.0381
25011W        W41145   0.331   3.671   2.295 -0.0816  0.0717 -0.3055
25012W        W41146  11.534   9.933  14.039 -0.0230 -0.1855 -0.1032
25013W        W41147   2.591   6.082   5.987  0.2696 -0.0891 -0.0527
25014W        W41148  13.082   4.642  15.109  0.2512  0.1435 -0.4182
25015W        W41149   6.365  16.978  14.181 -0.2854  0.1236 -0.0278
25016W        W41150  17.294   3.200   2.830  0.2181  0.1465 -0.0170
25017W        W41151   7.733   6.579   0.199 -0.1678  0.0441  0.1221
25018W        W41152  16.074  16.256   0.473  0.1265 -0.3954  0.0284
25019W        W41153  18.458   8.337   2.337  0.2832  0.0559 -0.0921
25020W        W41154  17.226  10.982   3.652 -0.2014 -0.1575  0.3007
25021W        W41155   1.913  14.785  14.415 -0.0785  0.0328  0.1291
25022W        W41156  15.955   3.925  12.326  0.2533  0.1737  0.0414
25023W        W41157   9.534  14.092  14.853 -0.0376  0.1336  0.0568
25024W        W41158  11.733   4.354   0.949 -0.0270 -0.1758  0.1709
25025W        W41159  11.627  18.544   0.116 -0.0818 -0.1912  0.0305
25026W        W41160  16.002   8.521  13.233 -0.4715 -0.0162 -0.1850
25027W        W41161   8.797  16.222  13.534  0.0871  0.2937  0.0602
25028W        W41162  15.124  18.666  12.064  0.1747 -0.3224 -0.0802
25029W        W41163  12.944   7.978  10.430  0.3179 -0.2683  0.1661
25030W        W41164   4.868  11.181   1.549  0.3307 -0.1195 -0.1821
25031W        W41165   6.636   0.493  12.794 -0.1507  0.0690 -0.0316
25032W        W41166  13.059   1.219   3.778  0.0656  0.1675 -0.3661
25033W        W41167  10.117  14.901   4.703 -0.0924  0.0687 -0.0374
25034W        W41168   4.369  17.718  14.105  0.3119  0.0304 -0.2726
25035W        W41169   3.221  10.744  11.714  0.3591  0.2137  0.1206
25036W        W41170  14.649   8.644   0.726  0.2379  0.3221 -0.3721
25037W        W41171   8.622  11.612   5.888 -0.0245  0.1718  0.1598
25038W        W41172  13.381  17.448  10.796 -0.1232 -0.1444  0.0392
25039W        W41173   2.109  17.760   2.178  0.0663 -0.4275  0.1041
25040W        W41174  10.767   2.926   4.842 -0.3704 -0.0651  0.2131
25041W        W41175  18.162  17.457   1.842 -0.1819  0.1733 -0.3498
25042W        W41176  17.155   5.824  13.833 -0.0673  0.0090 -0.3366
25043W        W41177   9.045  11.597  15.440 -0.0958 -0.1179  0.0391
25044W        W41178   2.132   1.497   2.541 -0.1191 -0.0391  0.0837
25045W        W41179   3.408  14.939  13.185 -0.0924 -0.0757 -0.4480
25046W        W41180   5.389   3.188  11.986 -0.4084  0.1257 -0.3860
25047W        W41181   4.687   9.492   4.552 -0.1570 -0.0426  0.0815
25048W        W41182   9.456   1.837   3.331  0.0610 -0.4685  0.0842
25049W        W41183  18.066   8.250  11.432 -0.0131 -0.0768  0.1335
25050W        W41184  15.528  18.127   3.735 -0.1588  0.0151 -0.1267
25051W        W41185  11.764   1.471  11.960 -0.2003  0.1901  0.1072
25052W        W41186  13.104  16.523  11.850 -0.4155 -0.0229 -0.1473
25053W        W41187   1.665  11.236   0.799  0.0728  0.0929 -0.0390
25054W        W41188  10.920  11.691  13.324  0.0522  0.1221 -0.0291
25055W        W41189   4.271   2.379  12.937 -0.0700 -0.1339 -0.2143
25056W        W41190   7.606  12.540  11.954 -0.0015  0.1481 -0.0190
25057W        W41191  17.011  14.883  14.160  0.1350  0.0127  0.0482
25058W        W41192  11.399  10.813   4.674  0.0793 -0.0545  0.1380
25059W        W41193  10.846   3.737   0.395  0.3620 -0.2537 -0.1220
25060W        W41194  13.709   2.801   2.594 -0.3787 -0.2148 -0.1911
25061W        W41195   0.309  12.538  11.076 -0.1977  0.0912 -0.0569
25062W        W41196  15.803   0.012  15.375  0.2546  0.0519 -0.0457
25063W        W41197   7.406   0.156  11.892 -0.2325  0.0462 -0.3661
25064W        W41198  16.517  17.316   3.077  0.0269 -0.1493  0.1518
25065W        W41199  14.988  17.662   0.562 -0.1771  0.2495 -0.1731
25066W        W41200  16.543   0.997   4.633  0.0284 -0.2509 -0.2523
25067W        W41201  11.430   1.088   2.985  0.1771 -0.0176 -0.4422
25068W        W41202  14.578  12.957  15.506 -0.1714 -0.2711 -0.0197
25069W        W41203   0.769   5.546   0.077  0.0288  0.1246  0.2107
25070W        W41204   8.810   4.527  13.577  0.2317 -0.2834  0.0768
25071W        W41205  15.675   9.731  14.429 -0.2345 -0.2694 -0.3508
25072W        W41206  11.965   7.409  14.790  0.1057 -0.1718 -0.1025
25073W        W41207   6.437   4.093   3.699  0.0067  0.1739 -0.0769
25074W        W41208   2.047   2.260  12.376  0.2167  0.1544  0.1125
25075W        W41209   6.134  11.346  10.439  0.1525  0.0592 -0.1073
25076W        W41210  18.465  12.857   3.010  0.0071 -0.0316  0.1787
25077W        W41211   2.430  11.514   0.221 -0.0470  0.0104 -0.1757
25078W        W41212   3.542  11.695  15.151  0.4339 -0.1334 -0.3516
25079W        W41213  10.205  13.634  12.049  0.0477  0.0063 -0.0808
25080W        W41214  14.906  14.999   2.142 -0.1449 -0.1895  0.1465
25081W        W41215   8.639  11.645   0.554 -0.1714  0.1507 -0.2108
25082W        W41216   8.907  16.839  15.365  0.0997 -0.2552 -0.2289
25083W        W41217  10.392  13.472   1.852  0.0092  0.0070  0.1639
25084W        W41218  14.720  14.566   4.552 -0.3229 -0.2590  0.3359
25085W        W41219  14.763   2.681  14.364  0.0841 -0.4212 -0.0965
25086W        W41220   7.477   8.137  15.087 -0.2949 -0.1844  0.2773
25087W        W41221  15.787  13.529   0.094  0.0319  0.0288 -0.0271
25088W        W41222   9.887  13.194  15.070  0.3373  0.1117  0.1133
25089W        W41223   9.124  15.812  11.768  0.0461  0.0539 -0.1405
25090W        W41224   6.913  13.510   2.757  0.0080  0.1493  0.0386
25091W        W41225  11.510   0.172  14.262 -0.1650 -0.2989 -0.0781
25092W        W41226  17.013  12.216   3.916  0.0744  0.3003 -0.1721
25093W        W41227  17.268   2.112   4.826  0.0261 -0.3210 -0.1908
25094W        W41228  11.604  11.494   3.460  0.1092 -0.1868  0.3684
25095W        W41229   7.964   5.814   4.380 -0.0359 -0.1232  0.0044
25096W        W41230   5.193   5.335   4.914 -0.3457 -0.2844 -0.1582
25097W        W41231   2.596   7.580   3.260 -0.0352  0.2240 -0.0063
25098W        W41232   9.004  13.705   4.978 -0.4412 -0.0506  0.0975
25099W        W41233   1.033  13.865   4.885  0.2074  0.1126 -0.1075
25100W        W41234  12.695   7.732   5.648  0.1017 -0.2522  0.1212
25101W        W41235  17.545   7.905   5.645  0.0129  0.2052 -0.0888
25102W        W41236  13.089   4.977   3.404 -0.1468 -0.0368 -0.0040
25103W        W41237  12.773   1.999   2.551 -0.3330 -0.1034 -0.4645
25104W        W41238  12.428   7.434   0.452  0.2251  0.0581  0.2756
25105W        W41239  15.249  11.843  13.980 -0.3099 -0.2990 -0.2503
25106W        W41240   1.660  10.904   3.914 -0.0241  0.3649  0.0463
25107W        W41241   1.601   2.987   4.377 -0.0288  0.0733 -0.1629
25108W        W41242   8.857   6.043  11.175 -0.3286  0.1289  0.2272
25109W        W41243   0.084  14.869  11.126 -0.5073  0.0335 -0.1573
25110W        W41244  10.473  15.392   3.556  0.3467 -0.1462  0.0463
25111W        W41245   5.181   9.243   0.560  0.1377 -0.0505  0.1963
25112W        W41246  14.624  10.249   5.216  0.1293 -0.3210  0.0868
25113W        W41247  10.409  12.165  12.066 -0.0847  0.1999 -0.4521
25114W        W41248  10.449   5.572  12.320 -0.2235  0.0886  0.2188
25115W        W41249   2.659   4.789   5.473  0.0312 -0.1257 -0.1952
25116W        W41250  12.413   4.323   2.235  0.2002 -0.0836  0.1012
25117W        W41251  17.706  10.545  11.222  0.3093  0.1407  0.1690
25118W        W41252   5.275   7.574  11.674  0.0073 -0.0403  0.0926
25119W        W41253  13.831   4.424   5.444  0.0743 -0.0951 -0.0415
25120W        W41254  12.841   5.099   3.823  0.1998  0.2548  0.2120
25121W        W41255   5.934  16.808   2.525 -0.0505 -0.0624 -0.0324
25122W        W41256   8.451   6.876   2.394 -0.0174  0.0584  0.0312
25123W        W41257   3.811   1.617   1.563  0.0895 -0.2379 -0.1534
25124W        W41258   8.012  12.122   1.202 -0.0679  0.0402  0.1794
25125W        W41259   1.529  17.758  10.782 -0.0921 -0.3102 -0.1009
25126W        W41260   4.586   1.019  13.983  0.2491 -0.0007  0.2241
25127W        W41261   8.424   9.429   0.862 -0.2129 -0.1442 -0.0146
25128W        W41262  16.822   4.269   0.257  0.2324 -0.1719 -0.0707
25129W        W41263   0.275   4.202  13.446  0.0316  0.2158 -0.0102
25130W        W41264   7.808  18.123  15.424  0.0416  0.2274 -0.0572
25131W        W41265   3.859   9.675   3.993 -0.0885 -0.0104 -0.0377
25132W        W41266  17.818   2.854  15.056 -0.0997 -0.2458  0.0950
25133W        W41267  11.025   6.677   3.102  0.3305  0.1263  0.0979
25134W        W41268   5.601   7.878  13.107 -0.1746  0.0000  0.0716
25135W        W41269  13.185   2.597  10.676  0.2471  0.1881 -0.1270
25136W        W41270   3.238   7.298  11.911  0.1045 -0.0480  0.0439
25137W        W41271  17.344   5.211   1.177 -0.4344 -0.0172  0.3291
25138W        W41272   0.316   1.965  12.509  0.1602 -0.0011 -0.1350
25139W        W41273  10.867  12.460  11.247  0.2252 -0.4130  0.0572
25140W        W41274   0.053   5.797   0.766 -0.1486  0.0561 -0.1532
25141W        W41275  13.284  11.029  13.144  0.0137 -0.0014 -0.2643
25142W        W41276   9.591   0.553  14.992  0.0055 -0.1229 -0.1751
25143W        W41277  16.488   8.284   2.133 -0.1993 -0.4041 -0.2337
25144W        W41278   8.387   8.827  15.557 -0.0740 -0.0224 -0.0661
25145W        W41279   9.748  11.806   1.734  0.0644  0.3233 -0.3107
25146W        W41280   9.740   1.334  12.300  0.3122  0.3625 -0.0452
25147W        W41281   1.508   2.036  10.584  0.0181  0.1034 -0.3346
25148W        W41282   8.677  18.184   1.687 -0.0376  0.0570  0.2402
25149W        W41283  17.504  11.158   1.055 -0.1436 -0.0876 -0.1745
25150W        W41284  16.231   4.539  11.344 -0.1433  0.0802  0.2582
25151W        W41285   6.685  16.495   9.712 -0.2751 -0.1772 -0.0875
25152W        W41286  15.060  12.840   3.145  0.0992 -0.3262  0.0059
25153W        W41287   1.105   2.625  13.142  0.2807  0.0302  0.1226
25154W        W41288   5.628   3.396   4.035 -0.3307  0.0296 -0.1742
25155W        W41289   2.901  14.412  15.106 -0.2249  0.0791  0.1722
25156W        W41290  11.594   0.206   3.073  0.0523  0.1816 -0.4630
25157W        W41291   0.234  17.938  15.005  0.3316  0.1461 -0.0101
25158W        W41292   1.946  10.628   0.800 -0.2658 -0.2509 -0.1206
25159W        W41293   9.995  14.581  12.645  0.1163  0.0003  0.0768
25160W        W41294  10.041  15.057  12.435  0.1822 -0.1326 -0.1131
25161W        W41295  11.573   6.570  12.516 -0.2847  0.3076 -0.0076
25162W        W41296  11.354   9.344  12.197 -0.0415  0.1507 -0.1907
25163W        W41297  14.149  15.027   4.005 -0.1317  0.1139  0.0454
25164W        W41298   2.035   8.124   0.389  0.0831 -0.0829  0.0091
25165W        W41299   2.924   4.107   1.774 -0.4203  0.0927  0.0302
25166W        W41300   8.807   1.970   3.894 -0.1671  0.0788 -0.0185
25167W        W41301  16.950  18.611  10.959 -0.3824  0.0196  0.2385
25168W        W41302  10.934  11.335   1.195 -0.2329 -0.4632 -0.2555
25169W        W41303   3.591  15.154   3.274 -0.1436 -0.2277  0.0597
25170W        W41304  10.458   8.630   5.179 -0.3593 -0.0450 -0.4346
25171W        W41305   1.064   5.574  13.146 -0.0513  0.2241  0.0468
25172W        W41306   4.768  17.991  14.769  0.0161 -0.1150  0.1682
25173W        W41307  10.553  14.870  14.459 -0.0037  0.2314 -0.1658
25174W        W41308  13.358   2.805   4.018 -0.2752  0.2673 -0.0042
25175W        W41309   6.395  10.503  13.016  0.1211 -0.0392  0.0396
25176W        W41310  16.783  17.970   2.511 -0.3906 -0.0747 -0.1863
25177W        W41311  17.376   3.383   2.344  0.1007  0.1459  0.1223
25178W        W41312   5.054  17.719   2.692  0.0210  0.0491 -0.1651
25179W        W41313   6.135  18.236  15.083 -0.2511  0.1521 -0.0034
25180W        W41314  10.764  18.023   0.077 -0.0013 -0.0059 -0.1088
25181W        W41315   1.378  18.162  14.891  0.1132 -0.0348 -0.0362
25182W        W41316   4.868  17.683   0.408 -0.1741  0.0581  0.0146
25183W        W41317   5.133   1.403  14.746 -0.2190  0.1972 -0.2125
25184W        W41318  18.238  11.631  14.682  0.2015 -0.3021 -0.2134
25185W        W41319   1.464  10.583  15.549 -0.1402  0.0969  0.1011
25186W        W41320   6.693   8.407  14.090 -0.0389 -0.2867 -0.1032
25187W        W41321   9.610   2.614   1.827  0.0711 -0.2079 -0.1109
25188W        W41322   4.935  17.789  13.753  0.3139  0.1441 -0.0749
25189W        W41323  10.758  13.402   4.944 -0.1042  0.3258  0.3465
25190W        W41324   1.472   0.682  10.906  0.1359  0.0798  0.4968
25191W        W41325  14.961  17.094   1.881  0.0872 -0.0238 -0.1927
25192W        W41326  13.310  18.661  13.331  0.0281 -0.3292 -0.2880
25193W        W41327   1.423  12.849   2.365  0.1362  0.3560 -0.0946
25194W        W41328  13.972   3.460   4.382 -0.0260 -0.0109 -0.1364
25195W        W41329  14.712  12.933   4.426 -0.0664  0.0775  0.1991
25196W        W41330   8.558   7.701   2.779 -0.3195 -0.0856  0.0961
25197W        W41331  10.199  10.752  13.124  0.0310 -0.0119 -0.0747
25198W        W41332  15.557   0.428   0.045  0.2504 -0.0209  0.0695
25199W        W41333  14.990   3.739  11.642 -0.1817 -0.1071  0.0717
25200W        W41334   3.141  13.192   2.232 -0.0682  0.1929 -0.1373
25201W        W41335   9.841   8.447   0.549 -0.0183  0.0781  0.0201
25202W        W41336   4.425  16.244  12.320  0.0292 -0.0857  0.1759
25203W        W41337   5.185  11.901  10.182  0.3620 -0.1339 -0.0339
25204W        W41338   9.324  11.968  15.014  0.0294  0.1017 -0.1959
25205W        W41339   8.991  16.695  13.514  0.0851  0.0419  0.1891
25206W        W41340  10.147  17.920  15.414  0.3181 -0.0847 -0.0812
25207W        W41341  13.073   7.033   5.196 -0.1006 -0.0167  0.1908
25208W        W41342   2.065  14.796   0.763 -0.0563 -0.0748 -0.1491
25209W        W41343  10.467  18.248  11.022  0.1228  0.0736  0.0855
25210W        W41344  16.645   0.371   0.551 -0.1205 -0.0949  0.1115
25211W        W41345   3.087   2.387   1.277 -0.2125 -0.3961  0.0798
25212W        W41346  16.301   4.311  12.990 -0.2093 -0.1067 -0.3979
25213W        W41347   6.673  17.163  13.826  0.0726 -0.0811 -0.0517
25214W        W41348   8.417   9.427  13.499 -0.0531 -0.1334  0.1185
25215W        W41349  14.102  13.136  14.924  0.1061  0.0458 -0.3523
25216W        W41350  18.634  10.956   4.081 -0.3982  0.0775 -0.1300
25217W        W41351  12.219   0.001   3.699 -0.1936 -0.0354 -0.2132
25218W        W41352  13.132   3.288   4.202 -0.3083 -0.1482  0.0213
25219W        W41353  13.843  17.206  10.781 -0.1269 -0.0791 -0.0554
25220W        W41354   0.998   2.373   3.068 -0.0027  0.0615 -0.2055
25221W        W41355   9.358  16.806   3.899 -0.2309  0.2277  0.0825
25222W        W41356  15.767   3.654  13.498 -0.0258 -0.1207 -0.3008
25223W        W41357   6.145   9.239  14.484  0.2307  0.0043  0.0915
25224W        W41358   9.807   9.061  13.498  0.1625  0.3570  0.2291
25225W        W41359  15.504  14.853   0.725  0.2444  0.0447  0.0211
25226W        W41360   9.140  12.852  15.495  0.0262 -0.0836  0.0943
25227W        W41361  17.622  17.517  10.428 -0.1363 -0.0893  0.0789
25228W        W41362  12.446   3.706  13.037 -0.0847 -0.2752 -0.2146
25229W        W41363  14.053  13.196   0.847 -0.4060  0.1555  0.1467
25230W        W41364   8.893   9.170  11.726 -0.1528  0.1442  0.2423
25231W        W41365   4.964   5.031  12.708  0.0938  0.5155  0.0196
25232W        W41366   3.086   3.344   3.670  0.0534 -0.3342  0.2006
25233W        W41367   2.792   1.682  13.740 -0.0764  0.0749  0.3239
25234W        W41368  10.746   0.145  13.079  0.1738  0.0091 -0.1977
25235W        W41369   1.888  10.530  13.184 -0.1436 -0.1363 -0.0269
25236W        W41370   1.155  11.817  12.858  0.3561  0.2025  0.0452
25237W        W41371  17.494   2.534   3.315 -0.2625 -0.2033  0.2836
25238W        W41372  16.739   4.900   1.954  0.0398  0.0517 -0.0627
25239W        W41373  18.539   7.506   5.233  0.1044  0.1199  0.0323
25240W        W41374  12.110  12.525   0.432  0.0275  0.1132  0.0296
25241W        W41375   0.371  15.465   3.820  0.1528 -0.0054 -0.2741
25242W        W41376   2.550  15.939   3.677  0.1898 -0.3238 -0.1865
25243W        W41377   0.687   3.811   1.179  0.3060  0.1501  0.1458
25244W        W41378   0.780   0.095  13.971 -0.1366  0.1414  0.1672
25245W        W41379  12.239  13.545   4.615 -0.0348  0.1902  0.0321
25246W        W41380  12.903  11.393  13.135  0.1624  0.0699  0.0659
25247W        W41381   0.235   9.982  14.821 -0.2437 -0.1368 -0.2821
25248W        W41382  12.677  13.085  13.385  0.0887 -0.0798  0.0577
25249W        W41383  13.646   4.201  11.094  0.0645  0.0341  0.0771
25250W        W41384   4.699   6.256   3.384 -0.0217 -0.1096 -0.0236
25251W        W41385  14.324   9.270   0.267 -0.0259  0.1268  0.0909
25252W        W41386  11.290   7.653   5.408  0.0778  0.0874  0.2584
25253W        W41387  18.629   5.887  12.776  0.3243  0.1703 -0.0721
25254W        W41388   9.825  13.489   2.873  0.0253 -0.0855 -0.2624
25255W        W41389  15.589   3.991  11.128  0.1998  0.0359 -0.1035
25256W        W41390  15.990   3.779  11.811  0.1490 -0.1821  0.0975
25257W        W41391   1.380  14.507  14.913 -0.0476  0.0362 -0.1299
25258W        W41392   8.868   8.169  10.853  0.1421  0.0349  0.2031
25259W        W41393   0.180  10.609  11.080  0.4846 -0.2288  0.0058
25260W        W41394   5.387  11.050   0.956  0.1654  0.2926  0.0182
25261W        W41395   5.278  12.077   2.361  0.2568 -0.2771  0.2696
25262W        W41396   4.084  14.124   0.005 -0.0090  0.0059 -0.0028
25263W        W41397  17.860   0.246   1.165  0.0576 -0.2188  0.1381
25264W        W41398   8.360   2.849   4.190  0.0801 -0.2572 -0.0737
25265W        W41399   6.133   2.588  11.372 -0.3413  0.1454 -0.3345
25266W        W41400  13.862   2.292   1.881  0.2123  0.2191  0.3199
25267W        W41401   8.672   1.514  12.931  0.0616 -0.0959 -0.1057
25268W        W41402   5.963   3.991   5.725 -0.1219 -0.1701 -0.1647
25269W        W41403  15.825   1.506   9.577  0.1076  0.0806  0.0922
25270W        W41404   5.984   7.882  13.908 -0.0671 -0.1998  0.2377
25271W        W41405   7.855   6.511   2.996 -0.0950 -0.0268  0.1885
25272W        W41406  10.129  17.520   0.664  0.1712  0.1866  0.0229
25273W        W41407   1.808  13.395  14.619 -0.1316 -0.0056  0.2716
25274W        W41408   0.069   3.942  11.479  0.2498 -0.2013 -0.1548
25275W        W41409  12.428   1.498   5.198 -0.0461  0.1314  0.0097
25276W        W41410   8.572   9.925   4.124  0.1066 -0.3112 -0.4323
25277W        W41411   0.028   8.790   5.082  0.1373  0.2357 -0.2004
25278W        W41412   5.067  16.550  12.969 -0.0836  0.0094  0.0996
25279W        W41413   5.515  15.896  11.329  0.0050  0.2516  0.1006
25280W        W41414  12.147  11.455  13.384  0.1057 -0.1247 -0.1116
25281W        W41415   6.915  11.877  15.291  0.0181 -0.1585  0.1554
25282W        W41416   8.621  14.380   2.139  0.0176 -0.1286  0.1270
25283W        W41417   4.592  14.581  10.664  0.1700 -0.2403 -0.1879
25284W        W41418   2.961   3.341  11.099 -0.0485  0.1520  0.2170
25285W        W41419  17.592  18.188  12.184 -0.0333 -0.1876 -0.1126
25286W        W41420   9.707   1.059  10.131  0.0147  0.0123  0.1299
25287W        W41421  16.008  14.399  13.791  0.2272  0.2220 -0.0558
25288W        W41422   9.614   0.254   2.787 -0.2840  0.1147  0.3149
25289W        W41423   7.005  15.462  11.251 -0.0957 -0.1133 -0.5164
25290W        W41424   1.427   1.970   0.587 -0.1686 -0.0910  0.1685
25291W        W41425   1.071  11.511   4.563 -0.0105  0.2652  0.2911
25292W        W41426   5.149  10.559   0.336  0.2212  0.0383 -0.2128
25293W        W41427  17.740  14.669   2.381 -0.2265 -0.1460  0.1859
25294W        W41428   8.446  11.934  11.771 -0.1036 -0.1451 -0.1054
25295W        W41429   3.783  12.376   3.061  0.1813 -0.1254  0.0971
25296W        W41430  17.994   3.421  11.902  0.3513  0.0788  0.0579
25297W        W41431  10.909   6.227  12.803  0.1385 -0.2724  0.1917
25298W        W41432  11.190  17.581   2.736  0.0311  0.0224 -0.2401
25299W        W41433   8.126  10.792   4.506  0.2284  0.1609 -0.2859
25300W        W41434   6.473  10.167   2.199 -0.1108  0.0935 -0.4278
25301W        W41435   4.691  10.490   1.155  0.0726  0.2613  0.0814
25302W        W41436   1.544  10.290  14.547  0.3493 -0.1530 -0.2197
25303W        W41437   7.923  17.453  11.577 -0.1422  0.1557  0.3431
25304W        W41438  14.446   0.286   1.262  0.2817  0.1457 -0.0365
25305W        W41439  13.339  18.448   4.833 -0.0388 -0.0120  0.0779
25306W        W41440  17.132  10.117  12.144 -0.1937  0.0930 -0.1003
25307W        W41441  14.578  18.026   2.616 -0.1095 -0.0293 -0.0469
25308W        W41442   1.226  11.856  14.774 -0.0292 -0.0884  0.0213
25309W        W41443   4.051  11.069  12.181 -0.1106 -0.0161 -0.0907
25310W        W41444   9.787   1.114  12.904  0.0119  0.1480  0.1291
25311W        W41445  14.477  12.389  12.358  0.2084 -0.0104 -0.0053
25312W        W41446   6.045   1.915   1.675  0.3257  0.2310  0.1450
25313W        W41447  14.398   7.458   4.808  0.2262 -0.1394 -0.1687
25314W        W41448   6.173   4.752   4.888  0.1591  0.0004 -0.3065
25315W        W41449  12.144  11.916   3.930  0.2297 -0.1069  0.2973
25316W        W41450  17.866   6.922   3.442  0.0472 -0.1093 -0.2082
25317W        W41451   1.106  17.521  12.560  0.1032 -0.0044  0.3390
25318W        W41452  10.364  15.356   4.793  0.0022  0.0477 -0.2986
25319W        W41453  11.427   8.045  13.532  0.0796 -0.0280  0.0564
25320W        W41454   3.675  13.081  13.812  0.1358 -0.1293  0.1027
25321W        W41455  10.309  14.663  12.229  0.1768  0.1539  0.1120
25322W        W41456  16.716  13.268   0.399 -0.0094 -0.1356  0.1117
25323W        W41457   9.581   9.462  11.304 -0.0366  0.2643  0.1824
25324W        W41458   9.436  11.338   4.384  0.1067 -0.0871 -0.0821
25325W        W41459  10.469   6.612   4.998  0.1835 -0.3188 -0.2044
25326W        W41460   7.034   7.546   0.764  0.0479  0.0164 -0.0645
25327W        W41461  14.095  12.513  15.541 -0.1938  0.1983  0.0636
25328W        W41462   4.946   6.887   4.672  0.1145 -0.0317 -0.4219
25329W        W41463   6.802   8.178  14.542 -0.1085  0.1979  0.0866
25330W        W41464   7.241   5.655  12.515 -0.1618 -0.0517 -0.0373
25331W        W41465  12.524  17.402  12.910 -0.0627  0.0896 -0.1962
25332W        W41466   4.727   5.573   2.947  0.1550  0.0244 -0.0688
25333W        W41467  13.667   7.996  15.475 -0.1543  0.0443  0.1041
25334W        W41468  14.308   9.080  13.022  0.0982 -0.3838 -0.0539
25335W        W41469   2.293   2.858  11.516  0.0069  0.1265 -0.1155
25336W        W41470  10.492  11.692   5.133 -0.1209 -0.0543 -0.0278
25337W        W41471  12.827   2.884   4.060 -0.0816 -0.0886 -0.0389
25338W        W41472   7.571  14.099  11.504 -0.2084 -0.0006 -0.1515
25339W        W41473  12.077   0.383   2.784 -0.0880  0.4229  0.4907
25340W        W41474   7.706  16.079  14.437 -0.1179  0.0891  0.1317
25341W        W41475   6.452  18.676  15.147 -0.1116 -0.0321  0.0441
25342W        W41476   5.998   4.152   2.899 -0.1444  0.0330  0.0903
25343W        W41477   9.176  11.921   3.542 -0.0586  0.2639  0.2018
25344W        W41478   2.289   3.081   1.024  0.0065 -0.3330  0.2213
25345W        W41479  16.650  15.309   0.250  0.1596  0.3831 -0.0031
25346W        W41480  11.533  14.312  10.243 -0.0868 -0.1804 -0.1822
25347W        W41481  11.471  13.524  14.131  0.0278  0.0437 -0.0685
25348W        W41482  12.078   2.327   4.027 -0.0001 -0.0297  0.1891
25349W        W41483   3.928  11.042   4.259  0.0114 -0.1562 -0.2856
25350W        W41484   3.721   2.678   0.573 -0.1791  0.0417 -0.1469
25351W        W41485  17.623   7.253   2.125 -0.2473  0.0705  0.2791
25352W        W41486  14.619  13.035   3.320  0.2313  0.2475  0.1727
25353W        W41487   8.469   6.442  11.805  0.1814 -0.2254 -0.0338
25354W        W41488   4.931  11.823  14.521 -0.1513 -0.0169 -0.1565
25355W        W41489  18.519   7.218   0.330  0.1204 -0.1835  0.1418
25356W        W41490   0.638   0.269  11.291  0.1490  0.1484 -0.1217
25357W        W41491  14.442  16.845  14.918  0.0820 -0.3401 -0.0939
25358W        W41492   1.076   4.167  15.087 -0.1956 -0.0022  0.0706
25359W        W41493   1.809  12.007  10.863 -0.2769  0.1606  0.1322
25360W        W41494   6.493  14.340   1.386 -0.3034  0.0449  0.0873
25361W        W41495  16.217  12.505  13.083  0.1205  0.0185  0.0372
25362W        W41496   7.854   3.866   4.976 -0.3851  0.0214  0.2056
25363W        W41497   0.683  17.001  13.387  0.1651 -0.0447  0.0602
25364W        W41498  14.234   1.894  15.197  0.2075 -0.4348  0.1533
25365W        W41499  11.073   9.149  12.912  0.2509  0.1152  0.1106
25366W        W41500   9.116   6.969  10.007 -0.0990  0.2083  0.1578
25367W        W41501  17.172   0.498  12.711  0.1858  0.0997  0.0575
25368W        W41502  15.393  12.215   4.660  0.0729  0.0735  0.5511
25369W        W41503  15.895  17.786   1.233  0.4485  0.1298  0.0633
25370W        W41504  10.934  10.238   0.612 -0.0332  0.2114 -0.1428
25371W        W41505   3.441  12.461   3.988 -0.0172 -0.0145 -0.1442
25372W        W41506  18.145   6.421  11.687  0.0814  0.2784 -0.1465
25373W        W41507  11.146   6.176   1.916  0.1886  0.2794 -0.1426
25374W        W41508   1.510  11.195  14.078 -0.1123  0.4562 -0.2006
25375W        W41509  15.803  15.862   2.429  0.1819  0.1241 -0.1254
25376W        W41510  18.400  12.564   5.817 -0.0935 -0.2378  0.0331
25377W        W41511   1.627  17.789  14.272  0.1661  0.3234  0.0057
25378W        W41512  12.492   0.409   3.887  0.0800 -0.1265  0.2166
25379W        W41513  14.810  18.025   1.082 -0.0852  0.1939  0.0483
25380W        W41514  14.767  16.328   9.492 -0.1874 -0.0487  0.2204
25381W        W41515  10.934   2.076   1.779 -0.1361 -0.3125  0.0965
25382W        W41516  16.555  14.644   1.829  0.1827  0.1221  0.0045
25383W        W41517  18.220   9.449   2.608  0.1069  0.0287 -0.1333
25384W        W41518  18.003  11.288   1.330 -0.2203 -0.0029 -0.2330
25385W        W41519  13.684   1.943   2.772 -0.0198  0.3496  0.0347
25386W        W41520  11.086   2.711   2.394  0.2370  0.4301  0.4148
25387W        W41521  10.142  15.036  12.948  0.2099 -0.0096 -0.0056
25388W        W41522  15.696   7.773  12.234  0.2941  0.2225 -0.2884
25389W        W41523   2.557  17.962  13.076 -0.2447  0.0508  0.0311
25390W        W41524   5.457   4.803   0.703  0.1772  0.0967 -0.0610
25391W        W41525   2.089  10.061   4.154  0.2124 -0.0163  0.3041
25392W        W41526  13.189   6.348  15.328  0.2394  0.0320 -0.1250
25393W        W41527  10.840   1.492   5.063  0.3268 -0.3696 -0.0054
25394W        W41528   5.800   6.829   0.625 -0.2369  0.2936 -0.1094
25395W        W41529   1.376   9.792   1.539  0.0418 -0.0978 -0.0178
25396W        W41530   7.607   3.792  15.425 -0.3505 -0.1403  0.0960
25397W        W41531  11.546  17.370   1.666 -0.0023 -0.1048 -0.0243
25398W        W41532  11.122   6.721  14.646 -0.0909 -0.1414  0.2425
25399W        W41533  12.423   3.611  11.766  0.2434  0.0071  0.0243
25400W        W41534   8.363  15.980   2.818  0.0114  0.3026  0.0962
25401W        W41535  16.297   4.303  12.396  0.1847 -0.3935 -0.0186
25402W        W41536  13.661   5.129  11.750  0.0409 -0.4789 -0.1366
25403W        W41537  17.520  14.838  13.880  0.0627 -0.0152 -0.1379
25404W        W41538   1.015   0.923   1.296 -0.2196  0.0426  0.2877
25405W        W41539  10.326   3.239  10.690 -0.1208  0.1109  0.0625
25406W        W41540   0.705  11.800   4.469  0.0274 -0.1072  0.0700
25407W        W41541   6.052  18.510   3.981  0.0164  0.1179  0.2444
25408W        W41542   9.657  13.282   2.318 -0.1395  0.3567 -0.2862
25409W        W41543   5.213   9.206  12.003  0.1981 -0.2277  0.1349
25410W        W41544   4.588  18.140   1.474  0.0133  0.2458 -0.0685
25411W        W41545   8.932  10.211   2.931 -0.3063  0.1104  0.0541
25412W        W41546   7.826   0.310   4.060 -0.1180  0.1004  0.1099
25413W        W41547   0.285  17.726  13.940  0.4735  0.1004 -0.3025
25414W        W41548   8.922  12.355  14.208 -0.1509 -0.2207  0.0265
25415W        W41549   9.665  10.084   5.341  0.0719  0.0479 -0.1370
25416W        W41550  11.433   6.013   1.519 -0.1347 -0.0746  0.2396
25417W        W41551  15.231  12.304   4.213  0.1037  0.1980  0.2684
25418W        W41552  14.301  15.666   1.748  0.0350 -0.0834  0.0870
25419W        W41553   3.464  10.136   1.735 -0.0499  0.0672  0.0864
25420W        W41554   9.154  14.917   2.611  0.0780 -0.2537  0.4006
25421W        W41555  10.323  12.391  13.252 -0.1327 -0.1639  0.2204
25422W        W41556  18.602   0.592   0.681 -0.3030  0.1452  0.4030
25423W        W41557  12.642  14.795   5.291 -0.0944 -0.0176  0.2279
25424W        W41558  15.026  10.410   2.947  0.0807 -0.0065 -0.1180
25425W        W41559   6.199  15.509  13.275 -0.1554  0.0169 -0.1068
25426W        W41560  18.195  11.539   0.099  0.1789 -0.2535 -0.2300
25427W        W41561   0.766   8.799   4.572 -0.1342  0.2408 -0.2928
25428W        W41562   8.756   3.405  11.917  0.2118  0.2085 -0.0636
25429W        W41563   2.977   7.648  10.095 -0.0070  0.3156 -0.2265
25430W        W41564   3.511   5.893   3.421 -0.3294 -0.0748  0.1380
25431W        W41565   2.694  13.378   4.334  0.3437 -0.0047 -0.0535
25432W        W41566   2.736  10.464   1.371  0.1069  0.1958  0.1210
25433W        W41567  15.931   0.988  11.391  0.3697  0.1750  0.0834
25434W        W41568  15.402   7.733   3.576 -0.0858  0.0628 -0.0373
25435W        W41569  16.815   8.257   1.601 -0.1807 -0.1224  0.1612
25436W        W41570   2.081  12.598   5.619 -0.4390  0.1453  0.0859
25437W        W41571   8.533  15.067   4.279  0.4767 -0.0363  0.0480
25438W        W41572  14.287  12.567  14.162  0.1273 -0.1901  0.2732
25439W        W41573  16.287  17.752  12.223 -0.0120  0.0465 -0.2862
25440W        W41574  18.730  14.322  11.918  0.1508  0.1375  0.0209
25441W        W41575   0.812   6.702   0.039  0.0487  0.1651 -0.1035
25442W        W41576  12.958   9.445   1.902 -0.0731  0.2222 -0.1882
25443W        W41577  15.574   3.113   3.166 -0.0245 -0.0150  0.2719
25444W        W41578   2.250   1.545  11.674  0.2776 -0.1585 -0.1973
25445W        W41579  11.281   7.274   3.982 -0.0460  0.0931  0.0749
25446W        W41580   0.323  17.071   1.933  0.0482 -0.2896 -0.1484
25447W        W41581  14.429  14.722  15.527 -0.0459 -0.1345 -0.4548
25448W        W41582   7.186   4.184  11.868  0.1303 -0.2539  0.1434
25449W        W41583  11.363  11.513  14.179  0.0564 -0.0229  0.1247
25450W        W41584   4.283  18.327  11.769 -0.0372  0.2258  0.0612
25451W        W41585  18.658   2.414  11.326  0.0202 -0.1680  0.2073
25452W        W41586   8.241   5.857  14.664  0.1020  0.1242 -0.0378
25453W        W41587   1.738   8.783   3.999 -0.0002  0.0312 -0.5973
25454W        W41588  17.676  11.782   2.998  0.0482 -0.0346  0.1003
25455W        W41589  17.218  15.242  13.023  0.1150 -0.3213  0.2511
25456W        W41590  15.251  17.779   1.265  0.2759 -0.0746 -0.1212
25457W        W41591  18.247   2.552  15.161  0.4116  0.4108 -0.3819
25458W        W41592   9.263   2.126   0.114  0.1173 -0.1930 -0.1189
25459W        W41593   1.890   7.129   5.282  0.3191  0.1271 -0.0648
25460W        W41594   5.050  13.783  10.924 -0.0210 -0.0177 -0.2046
25461W        W41595   3.952  10.016  11.971  0.0024  0.1240 -0.0248
25462W        W41596   0.028  12.035  11.829  0.1536 -0.4056 -0.1195
25463W        W41597   2.822   0.705  11.491  0.5200 -0.3527 -0.0529
25464W        W41598   3.027   2.357   1.762  0.0646 -0.1343  0.1998
25465W        W41599  15.265  17.457   2.641  0.1022  0.2120  0.0055
25466W        W41600  15.720   5.031  13.675 -0.1625 -0.0408 -0.1855
25467W        W41601  17.013   6.133   0.296 -0.1508  0.2530 -0.1172
25468W        W41602   7.442  17.679   3.978  0.0652  0.2319 -0.1590
25469W        W41603   0.502   2.100   5.365 -0.0841 -0.0971 -0.0222
25470W        W41604  11.552  18.552   1.520 -0.2265 -0.0337  0.0921
25471W        W41605   7.450  15.695   3.470  0.3873  0.1251  0.0710
25472W        W41606   3.444  15.364  13.880  0.1965  0.1828  0.2347
25473W        W41607   1.092  18.355   4.822  0.2156 -0.1670  0.0662
25474W        W41608  11.988   0.230  14.144 -0.0183  0.1076  0.1936
25475W        W41609  11.227   7.158  15.476  0.1920  0.1260 -0.2241
25476W        W41610   0.889   7.167   0.179  0.0757 -0.2600 -0.0051
25477W        W41611   6.876  15.950  13.198 -0.1262 -0.1795  0.0075
25478W        W41612  16.376   0.776  11.589  0.1332  0.5500  0.0505
25479W        W41613   1.022  10.729  11.476 -0.1467  0.2601 -0.3384
25480W        W41614   5.160   5.575   4.498  0.0225 -0.0719 -0.1246
25481W        W41615   5.388  11.574   0.820 -0.1465  0.1353 -0.0638
25482W        W41616  17.281   5.676   2.981 -0.0032 -0.3323  0.0539
25483W        W41617   1.953   7.545  13.330  0.1336  0.5148 -0.1707
25484W        W41618  15.771  12.789  11.119  0.2772 -0.0287 -0.1057
25485W        W41619   8.152  11.163  13.919 -0.0038  0.0271 -0.5017
25486W        W41620  10.341  11.118  15.069  0.1283 -0.0613 -0.4591
25487W        W41621   3.137   9.447  11.158 -0.0739 -0.1943  0.0161
25488W        W41622  10.426   6.836  14.487 -0.0271 -0.1514  0.3092
25489W        W41623   3.092   1.286   1.033  0.4170  0.2440 -0.1847
25490W        W41624   5.032   6.534   2.946  0.1854 -0.1516 -0.0566
25491W        W41625  10.707  14.352  14.942  0.2559  0.1523 -0.0277
25492W        W41626  18.725   4.089  14.473 -0.2840  0.0390  0.2869
25493W        W41627  17.340  11.805  14.985  0.1081  0.1157  0.0455
25494W        W41628   4.216   2.012   0.559  0.1157  0.0082 -0.0798
25495W        W41629  15.087   5.660   4.775 -0.0757 -0.0873  0.2683
25496W        W41630  13.782  17.560  11.227  0.2423 -0.3420 -0.1692
25497W        W41631  11.850   0.180   1.762  0.1244  0.1437 -0.2824
25498W        W41632  18.589  17.913   5.086  0.0148 -0.1471 -0.3102
25499W        W41633   6.345  14.102   3.354  0.0449 -0.0268  0.0595
25500W        W41634   8.288  11.007   5.051 -0.2071  0.2009  0.2272
25501W        W41635  16.911   2.797   0.633  0.2013 -0.0397  0.0533
25502W        W41636  18.574  13.615   5.068 -0.2563  0.1173  0.1105
25503W        W41637   6.520   5.319   3.828 -0.1002 -0.1612 -0.1700
25504W        W41638   1.812  12.449  13.252  0.1901 -0.0390 -0.0523
25505W        W41639   1.683   5.954   4.464  0.1982  0.0822 -0.2800
25506W        W41640  15.973   3.898   0.198 -0.1776  0.3735 -0.1158
25507W        W41641   4.855  12.376  15.564 -0.1991  0.1258 -0.0057
25508W        W41642   1.242   3.285  11.665 -0.2092  0.3175  0.0832
25509W        W41643  14.734   3.995   4.396 -0.0822 -0.1385  0.1169
25510W        W41644  11.346  10.045   2.901  0.2380 -0.0290  0.1177
25511W        W41645  16.521   2.770   5.728  0.2106  0.0643  0.1141
25512W        W41646   8.740   7.642  13.273  0.2352 -0.2432  0.4024
25513W        W41647  18.541   6.579  11.334  0.1633 -0.0148  0.4133
25514W        W41648   5.362   5.127  13.067  0.1119  0.1284  0.4432
25515W        W41649   6.244   0.818  11.918 -0.1098  0.3173 -0.0036
25516W        W41650  16.089  18.508   5.133  0.0855  0.1557 -0.1180
25517W        W41651   5.507   5.310   3.512 -0.2086  0.0640  0.2881
25518W        W41652   5.389   1.906  10.665 -0.0533 -0.0153  0.0293
25519W        W41653   7.415   4.263   2.497 -0.1158  0.0113  0.1794
25520W        W41654   0.209   0.153  14.046 -0.1515 -0.0307  0.0261
25521W        W41655   3.556  12.116   1.144 -0.0776 -0.2355 -0.0301
25522W        W41656   1.343   2.364   4.919  0.0293  0.2203  0.1167
25523W        W41657   8.921   3.580  14.728 -0.0234 -0.0186  0.4588
25524W        W41658   3.333   1.504   4.958 -0.0963  0.1102  0.0071
25525W        W41659   1.589  18.453   1.620 -0.4523 -0.1322 -0.0058
25526W        W41660  17.930   8.385   1.888 -0.3033  0.0033  0.0935
25527W        W41661   8.244  17.859  14.353  0.0910 -0.1635 -0.0884
25528W        W41662  10.764  15.431   2.432  0.0710 -0.0072 -0.0296
25529W        W41663   7.051  10.968   0.063  0.0160  0.2858 -0.0182
25530W        W41664   9.188   5.812  14.906  0.0106  0.3356 -0.3191
25531W        W41665  17.210   1.409   1.459 -0.4277 -0.1038  0.1379
25532W        W41666   0.014  14.703  12.350  0.3195  0.4000 -0.3214
25533W        W41667   5.769  10.334   2.979  0.1395 -0.1020  0.0100
25534W        W41668   7.554  17.579   1.612 -0.0151 -0.0040  0.1117
25535W        W41669  14.359   3.974   1.898 -0.1206 -0.0617  0.1519
25536W        W41670   3.013  18.521   0.847  0.3353 -0.0134 -0.0648
25537W        W41671  12.022  18.098   4.962  0.0182  0.2729 -0.0188
25538W        W41672   4.928   7.618   3.135  0.2364 -0.0146  0.1291
25539W        W41673  14.283  15.818  15.039 -0.5015 -0.1299 -0.2603
25540W        W41674   4.696   8.358   5.155 -0.2205 -0.2740  0.1981
25541W        W41675   4.303  11.876  11.022  0.1772  0.1942  0.1458
25542W        W41676   7.205  15.281  14.743  0.1789 -0.0060  0.1155
25543W        W41677  14.305  14.274  13.026 -0.0868 -0.1685 -0.3384
25544W        W41678  12.541  11.778  10.699  0.1571 -0.2602 -0.2674
25545W        W41679  17.094  11.468   3.631 -0.0154  0.0592 -0.2223
25546W        W41680  14.098   0.553   0.414 -0.2583  0.0995 -0.0113
25547W        W41681  18.328   5.076  14.622  0.1740  0.1800 -0.0457
25548W        W41682   2.450  13.163  13.266  0.2036  0.2496  0.0882
25549W        W41683  16.891  11.713   4.046  0.0482 -0.0449  0.0982
25550W        W41684  15.754  10.728   1.811 -0.0078  0.0310 -0.2134
25551W        W41685  10.490  12.757   0.440 -0.0587 -0.3283 -0.1571
25552W        W41686  15.592  11.291  12.893 -0.0589 -0.2144 -0.1819
25553W        W41687   2.545   8.864  12.341 -0.0207  0.1477 -0.3144
25554W        W41688  15.809  12.417   0.319  0.0212 -0.3026  0.4545
25555W        W41689   7.017   1.489   4.883 -0.2890  0.1232 -0.1195
25556W        W41690  15.792  15.869  12.306 -0.3268 -0.2966 -0.3021
25557W        W41691  14.303  12.105  14.398 -0.1963  0.1652 -0.1288
25558W        W41692   4.321  14.828   1.018  0.0955 -0.1519  0.3120
25559W        W41693  14.115   5.415  10.798 -0.1181 -0.2999 -0.5435
25560W        W41694   1.583   1.614  14.979 -0.1745 -0.2717  0.3494
25561W        W41695   2.018  17.961  10.875  0.1690  0.1762 -0.1761
25562W        W41696   5.029  17.664  11.120 -0.0548  0.1669 -0.0179
25563W        W41697  11.726   9.954   0.444 -0.0627 -0.3406 -0.1604
25564W        W41698   8.966  17.341  14.314  0.1690  0.0324 -0.1938
25565W        W41699  10.127  16.606   4.528  0.1744  0.0257  0.1700
25566W        W41700  14.971  17.484   1.010 -0.0124  0.0504 -0.4018
25567W        W41701  16.523  10.784  11.949 -0.0517  0.1468  0.1256
25568W        W41702  14.086  13.968  14.622  0.0065 -0.1058  0.2148
25569W        W41703   4.204   0.733  13.764  0.0702  0.0331  0.1069
25570W        W41704  16.184  13.879   4.338  0.1226  0.1130 -0.1193
25571W        W41705   5.006   7.723  14.826 -0.2014  0.1001  0.1952
25572W        W41706   6.073   6.227   0.163 -0.3006  0.3127 -0.0300
25573W        W41707   4.079  11.445  13.413 -0.0957 -0.1925  0.6827
25574W        W41708  12.290   5.396  10.746  0.0235 -0.1199  0.0071
25575W        W41709   2.280   2.317   0.996  0.2374  0.0288  0.3783
25576W        W41710  11.486  16.546   4.725  0.4349  0.2133  0.0010
25577W        W41711  16.337   6.387  13.601  0.0165 -0.0615  0.0733
25578W        W41712   6.192   3.887  15.095 -0.4663  0.2077  0.1388
25579W        W41713   4.214  15.253   0.194  0.4186 -0.0861  0.0673
25580W        W41714  18.602  16.955   2.138  0.0656 -0.0875  0.1136
25581W        W41715   6.090   0.181   2.593  0.0223 -0.0745  0.0395
25582W        W41716  17.886  12.927   2.098  0.0122 -0.0115 -0.2459
25583W        W41717  12.109   9.549   1.558  0.1251 -0.0999 -0.0965
25584W        W41718  15.360  10.459  12.728  0.2353 -0.0479  0.0408
25585W        W41719  15.982   9.628  13.187  0.1737  0.1582 -0.0369
25586W        W41720  13.951  14.707  13.448 -0.0382  0.1800 -0.2336
25587W        W41721   7.365  13.394  11.590 -0.0406  0.0089  0.1271
25588W        W41722   1.564  18.264  10.957  0.2432 -0.1905  0.1256
25589W        W41723   4.525   5.586  15.238 -0.2574 -0.0200  0.0766
25590W        W41724   6.303  11.557   3.816  0.3335  0.1622 -0.1524
25591W        W41725   6.144  13.709  13.065 -0.2298 -0.0082  0.1602
25592W        W41726   9.149   2.418  10.618 -0.0011 -0.0276  0.0369
25593W        W41727   7.745   9.235   3.598 -0.0717  0.3636 -0.1039
25594W        W41728  12.311   1.739   1.160 -0.0028 -0.0386 -0.2363
25595W        W41729   1.026   7.940   5.367  0.1673 -0.2434  0.1579
25596W        W41730   4.861   3.810   1.179  0.1122 -0.0012  0.0926
25597W        W41731   3.216   9.709   1.387  0.0134 -0.2352  0.1944
25598W        W41732   5.864  12.789  11.033 -0.0832 -0.5192 -0.0871
25599W        W41733  13.309   9.117   4.639  0.1323 -0.0145  0.6578
25600W        W41734   1.953  12.885   4.507 -0.0418 -0.2888  0.1450
25601W        W41735   0.146  10.279   0.113  0.1665  0.1706  0.2996
25602W        W41736   4.187   7.344  10.181 -0.0778 -0.0452  0.5532
25603W        W41737  11.093   1.756  11.212  0.0685  0.0370  0.3132
25604W        W41738   1.694   8.795   4.920  0.0474 -0.1054  0.0635
25605W        W41739   7.295  16.686   2.252 -0.0840  0.2251 -0.2296
25606W        W41740   2.554  11.850  12.208  0.0217  0.0198 -0.0705
25607W        W41741  10.683  14.401   0.833 -0.0062  0.3732 -0.1566
25608W        W41742   9.836  12.110  14.278 -0.1831  0.0306  0.1008
25609W        W41743  13.313   7.576   1.763  0.2689 -0.1006 -0.2303
25610W        W41744  13.350  12.448   4.635  0.1579  0.0566 -0.2800
25611W        W41745   4.800   8.490   0.679  0.0515  0.1315  0.1974
25612W        W41746   8.302   4.768   4.185  0.0340  0.0691 -0.0133
25613W        W41747  11.272  13.208   3.141  0.0379  0.1393  0.0146
25614W        W41748   5.463  14.418  12.689  0.0287  0.2467 -0.0623
25615W        W41749  14.954   0.243   2.189 -0.1274  0.1855  0.1209
25616W        W41750   0.946  14.109  13.448 -0.0729 -0.4172  0.0740
25617W        W41751   0.514   2.411  14.274  0.1091 -0.3871 -0.0170
25618W        W41752   7.972  14.029   4.930 -0.1018 -0.1587  0.1087
25619W        W41753  17.023   4.335  15.290 -0.0652  0.0393  0.0343
25620W        W41754  13.528   1.615  11.085 -0.0923  0.0590  0.3042
25621W        W41755   9.496   8.250   2.370  0.0872  0.0580 -0.0349
25622W        W41756  11.594   3.182  12.257  0.0281 -0.0384  0.5253
25623W        W41757   8.024   4.782   2.142 -0.0498 -0.0164 -0.2866
25624W        W41758  17.544  14.252   1.900 -0.2819  0.1137  0.1223
25625W        W41759   8.377   3.420  11.138  0.1264  0.2068 -0.0878
25626W        W41760   8.985  16.353  10.650 -0.1401 -0.0526 -0.1417
25627W        W41761  12.714   2.613   2.863  0.2501  0.0766 -0.0587
25628W        W41762  13.002  12.656  15.540 -0.0207  0.2967 -0.3106
25629W        W41763   9.482  12.933   4.921  0.2761  0.0730 -0.2352
25630W        W41764   0.860   8.353   5.611  0.1948 -0.0407 -0.0300
25631W        W41765  16.027  12.727   2.762  0.2528  0.3073 -0.1092
25632W        W41766   8.886   3.366   1.701  0.0849  0.1936  0.1403
25633W        W41767   5.552   7.309  12.011  0.1120 -0.2674 -0.4657
25634W        W41768  17.984   7.288   4.251 -0.0460 -0.0243  0.1355
25635W        W41769   8.024  16.470  11.250 -0.1833 -0.0224 -0.2233
25636W        W41770   6.507  14.169  11.288  0.0076  0.5498 -0.3809
25637W        W41771  10.966  12.345   4.099 -0.2265 -0.0972 -0.2098
25638W        W41772  16.747   6.820   5.022  0.0917  0.2260  0.0194
25639W        W41773  11.839   6.546   2.468 -0.0726 -0.1360  0.1451
25640W        W41774   4.685   9.299  14.424 -0.1882 -0.2577 -0.2366
25641W        W41775   1.219  17.888   0.451 -0.1476  0.0496 -0.0625
25642W        W41776  17.842  14.894   4.069 -0.1983  0.0632  0.0689
25643W        W41777   9.255   3.989  15.079  0.1389 -0.0790 -0.3121
25644W        W41778   8.342   4.085   2.797 -0.0354  0.3143  0.2201
25645W        W41779  14.900  18.511  13.515 -0.0844  0.1016 -0.0094
25646W        W41780   0.375  17.467  11.332  0.3132 -0.1894  0.0089
25647W        W41781  18.266   8.284   0.275  0.2584  0.0370  0.0569
25648W        W41782  12.120  15.944   2.689  0.0381  0.1647 -0.0139
25649W        W41783   5.272  13.103  14.375  0.2670  0.1286  0.3730
25650W        W41784   8.113  15.520   0.671 -0.2564 -0.0963  0.1036
25651W        W41785   3.052  14.891  15.106  0.2509 -0.0171  0.2196
25652W        W41786  14.224   0.500   4.152  0.0134  0.3292 -0.1176
25653W        W41787   2.828   7.233   3.717  0.0280  0.1913 -0.2467
25654W        W41788   6.118  15.870   4.039 -0.1778 -0.3586 -0.0891
25655W        W41789  16.295  16.681  15.128 -0.0786 -0.1329  0.3447
25656W        W41790  14.628   6.140   2.639 -0.0068 -0.0243  0.1901
25657W        W41791   7.374  17.170   2.062  0.0256  0.2060  0.0500
25658W        W41792  16.891  11.505   4.502  0.0168 -0.0776  0.2402
25659W        W41793  16.403  15.859  15.086 -0.0650 -0.0898 -0.0722
25660W        W41794   7.987  10.983   0.665  0.1339 -0.0729  0.0003
25661W        W41795   1.822  15.080  14.037 -0.2493  0.0870 -0.0209
25662W        W41796  12.523   4.729   4.585 -0.1376  0.2839  0.1272
25663W        W41797  14.911  16.794   4.879 -0.1659  0.2032  0.0627
25664W        W41798   8.868   5.108  13.367  0.0974 -0.3077 -0.4213
25665W        W41799  10.872   6.897   4.892  0.2133 -0.2102  0.1276
25666W        W41800  17.374   9.259   2.954 -0.0742  0.1219 -0.1157
25667W        W41801  14.453   8.084   3.200 -0.0393  0.2016 -0.2766
25668W        W41802  14.446   4.258  13.868  0.2591  0.0553  0.3631
25669W        W41803   0.840  16.883  11.614  0.1565  0.0019  0.0619
25670W        W41804   9.911   1.857   4.165  0.2268 -0.2193  0.0739
25671W        W41805   6.641   7.435   3.589 -0.0552 -0.0888  0.2124
25672W        W41806   4.100  17.646   3.214 -0.0549 -0.0173 -0.1145
25673W        W41807  10.537   4.355   2.447 -0.0052 -0.3005  0.1559
25674W        W41808   2.373   3.605   1.388  0.0957 -0.0274 -0.0355
25675W        W41809  14.897   4.210   1.949 -0.2434  0.2937 -0.1716
25676W        W41810   5.591  13.014   4.313 -0.1111 -0.2605  0.2181
25677W        W41811   4.960  13.150  15.137 -0.0675 -0.1003 -0.0541
25678W        W41812   3.594  15.768  14.165 -0.1153 -0.0417 -0.3382
25679W        W41813  17.647  12.886  13.460 -0.0071  0.1499 -0.2480
25680W        W41814   0.088   4.499  12.696  0.2220 -0.3789  0.0022
25681W        W41815   1.016  11.894  14.305 -0.1801 -0.0733  0.2333
25682W        W41816  18.658   8.713   3.735 -0.1539 -0.3387  0.1798
25683W        W41817  16.918   6.861   2.089  0.0267 -0.1769 -0.1187
25684W        W41818  13.670   7.651  11.401  0.2040  0.1774  0.2304
25685W        W41819  13.253   5.938  13.774 -0.0822 -0.4236  0.1312
25686W        W41820  17.923   1.241  15.064 -0.0221  0.1270 -0.2522
25687W        W41821  10.291   7.401  12.468 -0.0013 -0.0177 -0.1574
25688W        W41822  15.927   4.177  11.468  0.1578 -0.1041  0.1437
25689W        W41823   2.908   5.158   3.146  0.1063 -0.0304 -0.0166
25690W        W41824   1.502   9.734  14.330  0.1901  0.0747  0.0261
25691W        W41825   7.749   1.230  10.695 -0.0020  0.0472 -0.2893
25692W        W41826   1.597  15.519   0.617  0.0411 -0.0611 -0.1765
25693W        W41827  15.002  18.091  12.158 -0.2074 -0.5033 -0.0039
25694W        W41828   8.011  16.492  14.271  0.3381  0.0513  0.1303
25695W        W41829   5.751   0.039  14.160 -0.0835 -0.0266  0.0251
25696W        W41830  12.630  16.329  12.256 -0.1728  0.0777 -0.0755
25697W        W41831   4.688  10.402   4.510  0.3324 -0.0425  0.1810
25698W        W41832  16.467   2.601  12.202  0.2754 -0.0158  0.3836
25699W        W41833  15.806  11.179   0.831 -0.1647 -0.0213 -0.1160
25700W        W41834   9.898   7.819  13.711 -0.0205  0.2375  0.1232
25701W        W41835   3.642  16.800   5.624 -0.2063  0.0775 -0.1222
25702W        W41836  12.511   7.312  15.559  0.0372 -0.0723  0.0004
25703W        W41837   8.513  17.010   4.928 -0.0520  0.1908 -0.2034
25704W        W41838   5.442  11.094   9.987  0.0120  0.1447  0.3235
25705W        W41839   8.998  11.264  13.385  0.1150  0.5594  0.3498
25706W        W41840   1.616   3.609  11.362  0.1330 -0.2476  0.3398
25707W        W41841   8.501   9.068  12.864 -0.0281 -0.3393  0.1756
25708W        W41842  11.533  13.818   2.547 -0.2048  0.0025  0.0382
25709W        W41843  12.745   5.468   2.436  0.1753 -0.1903 -0.4067
25710W        W41844   7.675  14.842  14.230 -0.2345 -0.0721 -0.1830
25711W        W41845   5.885   3.011   5.020 -0.1624  0.1856 -0.0211
25712W        W41846   8.478  15.656   4.449 -0.0939 -0.0634  0.3456
25713W        W41847   1.480   3.055  11.272 -0.1006 -0.1343  0.1320
25714W        W41848   3.078   2.859   4.346 -0.0083 -0.0252 -0.1580
25715W        W41849  18.284   8.968   5.197 -0.2682 -0.0967 -0.2107
25716W        W41850  13.817  16.686   0.130 -0.1056 -0.0218  0.2815
25717W        W41851   4.047   6.551  12.196 -0.1126 -0.1300  0.0331
25718W        W41852   3.598  16.360   5.832 -0.2610  0.0523 -0.2331
25719W        W41853   9.589   4.320   1.945 -0.1126 -0.2047 -0.1930
25720W        W41854   8.668  17.074  13.438 -0.0746 -0.0996 -0.1132
25721W        W41855  17.524  14.530   5.835 -0.0443 -0.2961  0.2686
25722W        W41856  10.486   7.310  14.218  0.3045  0.0837  0.1369
25723W        W41857  16.903  14.646  15.012 -0.0571 -0.2183 -0.1457
25724W        W41858   7.608  11.705  12.054 -0.0300  0.0484  0.2647
25725W        W41859  11.459   4.239   5.505  0.1660 -0.2979  0.0893
25726W        W41860  12.910  10.752   9.715  0.2291  0.2065 -0.0186
25727W        W41861   4.443  14.569   4.255 -0.1418  0.1523  0.1096
25728W        W41862   2.519  17.839  10.631  0.2398  0.0802 -0.1221
25729W        W41863   5.312  18.361   2.746 -0.0857  0.0262  0.1605
25730W        W41864   0.909   7.640   0.416 -0.0213 -0.1958  0.0470
25731W        W41865   1.845  12.034  14.651  0.0492 -0.3410 -0.1145
25732W        W41866   6.127   4.809  15.149  0.0755  0.0693  0.1694
25733W        W41867  13.515  12.067   4.242 -0.1838  0.0435  0.0517
25734W        W41868  10.325  15.824   1.822 -0.2651 -0.1590  0.0257
25735W        W41869   2.354   2.309  12.827  0.0968 -0.1990 -0.2160
25736W        W41870  16.100  15.874  10.889  0.0183 -0.1409  0.0517
25737W        W41871  10.202   1.394  15.032 -0.1967 -0.5223 -0.2003
25738W        W41872  15.046   6.756   4.635  0.2821 -0.0802  0.0308
25739W        W41873   4.185   0.216  14.967  0.1964  0.3801 -0.2424
25740W        W41874  12.473  12.344  11.221  0.0139  0.3088 -0.0656
25741W        W41875  15.729  14.526  14.864 -0.0748  0.0285  0.0065
25742W        W41876  14.141  17.207  11.838  0.1474 -0.0434  0.0733
25743W        W41877   5.088   0.542  10.915  0.1122  0.0305 -0.2578
25744W        W41878   2.556  13.079  15.161  0.1543  0.0012 -0.3457
25745W        W41879   5.206  12.587  10.322 -0.1107  0.0029  0.1138
25746W        W41880  12.908  12.653  10.513 -0.3892 -0.2334 -0.1218
25747W        W41881   9.855  10.760  14.752 -0.0171  0.2032 -0.1617
25748W        W41882  12.011   5.787   1.993  0.2988 -0.3181 -0.0962
25749W        W41883  18.222  18.027  12.115 -0.1015 -0.0675  0.1751
25750W        W41884   0.481  12.253   3.663  0.0418  0.3305  0.0197
25751W        W41885  14.588   3.721  12.109 -0.0161  0.1013 -0.1668
25752W        W41886   1.081   5.859  15.340  0.5794  0.0063  0.0750
25753W        W41887   7.725   1.386   0.267 -0.0674 -0.1414 -0.0997
25754W        W41888   7.521   4.961  11.452 -0.2642  0.3718  0.1028
25755W        W41889   1.049  11.267  12.770 -0.4648  0.1418  0.3658
25756W        W41890  17.688   0.413  12.980 -0.0387 -0.1471  0.1787
25757W        W41891  14.440   3.420   0.633 -0.1458  0.1013 -0.1829
25758W        W41892  14.940   2.773   3.765  0.0524 -0.1053  0.0562
25759W        W41893  12.243  10.246  14.924 -0.1220  0.1493 -0.3273
25760W        W41894  11.412   8.955  13.721  0.0673  0.0350  0.1882
25761W        W41895  13.613   8.961  15.088 -0.1136 -0.1349  0.1510
25762W        W41896   5.590   0.395  11.995 -0.1750  0.2241  0.1004
25763W        W41897  10.880   6.475  13.228 -0.2485 -0.5028  0.0835
25764W        W41898   6.653   4.969   1.560  0.1598  0.0462  0.3117
25765W        W41899  18.361  14.472  14.811  0.0083 -0.0031 -0.0627
25766W        W41900  15.669   9.541   2.118  0.0532 -0.0986 -0.0163
25767W        W41901   5.717   2.086   5.760  0.1844  0.1442  0.0065
25768W        W41902  14.650   6.396   1.440  0.0359 -0.0502 -0.1100
25769W        W41903  17.642   9.725   1.195 -0.0309 -0.0344  0.1309
25770W        W41904   7.521  10.951   4.551 -0.2407 -0.2750 -0.2102
25771W        W41905   6.034   3.844  10.888  0.0678 -0.0019 -0.1038
25772W        W41906   3.038   0.137  11.577  0.3302 -0.2401 -0.1715
25773W        W41907   4.018   2.832   1.070  0.3869 -0.0630 -0.2039
25774W        W41908   6.528   6.309  10.965  0.5093 -0.0606  0.1343
25775W        W41909   3.897  16.794   4.855 -0.2423 -0.0409  0.4738
25776W        W41910  17.740  16.798   4.746 -0.1915 -0.1945  0.2685
25777W        W41911   3.940   5.939  14.536 -0.0708 -0.4819 -0.0829
25778W        W41912   3.650  11.233  12.348  0.0703 -0.3272  0.0028
25779W        W41913   5.260  17.983  12.838 -0.3326 -0.0612 -0.3096
25780W        W41914   1.325   6.085   4.121  0.1983  0.1578 -0.1768
25781W        W41915  16.518  18.590   3.299  0.1941  0.5764  0.3681
25782W        W41916  15.558   6.486  14.015  0.0822  0.0545 -0.2887
25783W        W41917   8.456   2.787  15.369  0.0947 -0.0083  0.0043
25784W        W41918  10.299  10.346  11.355  0.1123 -0.0135 -0.0731
25785W        W41919  15.680   2.822  13.632  0.1553  0.0873 -0.0396
25786W        W41920  11.106   7.838   0.485  0.0237 -0.0981  0.2439
25787W        W41921  18.393   7.194  15.420 -0.1665  0.0536  0.0571
25788W        W41922  15.159   6.138  14.892  0.0164 -0.0633 -0.0225
25789W        W41923  17.828  13.170   0.598  0.2227  0.2352  0.4928
25790W        W41924   6.062   4.152  14.533 -0.1545 -0.0627 -0.2697
25791W        W41925  15.244   7.920  14.849  0.1541  0.0099  0.1469
25792W        W41926   2.225   9.979   1.951 -0.2021  0.0784 -0.1606
25793W        W41927   7.364   0.393   1.013  0.2913 -0.1091  0.0104
25794W        W41928  13.878  18.017   5.980 -0.2321 -0.0943  0.0167
25795W        W41929  13.025  18.028   1.287  0.3116 -0.2402  0.1381
25796W        W41930  14.655   7.037  12.835 -0.1696 -0.0780 -0.1955
25797W        W41931  11.086  15.081   5.174  0.1756  0.0714 -0.0724
25798W        W41932   9.006   0.607  14.444  0.1918  0.0807  0.0419
25799W        W41933   7.730   2.398  15.375 -0.0339  0.0969  0.0729
25800W        W41934   5.967  15.694   0.513 -0.2520  0.0260  0.3535
25801W        W41935  17.724   6.560  11.509  0.0982 -0.1198  0.0535
25802W        W41936  15.556   0.415  11.946  0.1394 -0.0343  0.0272
25803W        W41937   7.934   9.651  11.837  0.1795  0.0457 -0.1302
25804W        W41938  18.317  10.538  15.063 -0.0601  0.2295  0.2323
25805W        W41939  14.084   6.286  13.654  0.3790  0.0711  0.2304
25806W        W41940   0.045   1.229  14.093 -0.0476  0.0382  0.2504
25807W        W41941   7.422   0.681   2.761  0.0589 -0.0450 -0.0832
25808W        W41942   1.157  16.082   1.369 -0.2024 -0.0275  0.1310
25809W        W41943   4.241   9.122   5.103  0.1756  0.0419 -0.0881
25810W        W41944  16.993  13.887  10.026 -0.1679  0.5327  0.1984
25811W        W41945  15.912  15.396  12.484 -0.0673  0.3622  0.2196
25812W        W41946   8.281  14.500   3.352  0.0136 -0.0896 -0.2159
25813W        W41947   0.261  14.603   2.804 -0.1803 -0.0306  0.2520
25814W        W41948  18.393   6.328   2.580 -0.1909  0.1849  0.0744
25815W        W41949   7.254   3.647  14.591  0.3900 -0.0448  0.1906
25816W        W41950   4.791  12.071   2.279 -0.3023 -0.2464 -0.4125
25817W        W41951   6.699   1.398   1.803 -0.0460 -0.0581  0.0413
25818W        W41952   5.598   7.026  14.716 -0.1957  0.0277 -0.1928
25819W        W41953   2.520  16.638   4.460 -0.1676 -0.0259  0.2036
25820W        W41954   7.942  10.310  11.226 -0.0182 -0.1140  0.0394
25821W        W41955  15.446   5.630   2.861 -0.1018 -0.0177  0.0178
25822W        W41956   3.312   8.004  13.808  0.0202  0.3682 -0.0967
25823W        W41957  10.862  14.483  12.950 -0.1719 -0.2760 -0.0539
25824W        W41958   1.353  17.315   1.648 -0.4208 -0.2798  0.2015
25825W        W41959   4.002   8.578   3.066 -0.0162 -0.0281 -0.0139
25826W        W41960  12.133   0.413   1.417 -0.1598  0.1423 -0.0641
25827W        W41961  17.280   8.460  10.856  0.0970  0.2524 -0.1249
25828W        W41962  18.575  15.121   3.717 -0.3191  0.2185 -0.0190
25829W        W41963   8.853  12.561   3.149  0.0581  0.2156  0.1231
25830W        W41964   0.756   8.637  11.532 -0.2874  0.0944 -0.2973
25831W        W41965   4.372   6.855  14.796 -0.1456  0.1653 -0.1725
25832W        W41966   4.267   0.976   1.557  0.0089  0.0198 -0.2191
25833W        W41967   6.559  17.495   1.432 -0.0807  0.0559  0.2829
25834W        W41968   2.633  13.897  13.872  0.2108  0.0646  0.1460
25835W        W41969   9.673   7.653  13.260 -0.1603  0.2477 -0.0676
25836W        W41970  15.770   2.282   2.906  0.1445  0.4195  0.2816
25837W        W41971   8.653   8.338  11.280  0.1985 -0.0285 -0.0326
25838W        W41972   5.923   4.964   3.677 -0.0278 -0.1357  0.2263
25839W        W41973   9.830   3.018   4.983  0.0730  0.0721 -0.3859
25840W        W41974   0.329   3.558  15.181  0.0802  0.1503 -0.2122
25841W        W41975   6.902  11.385   0.866  0.1781 -0.0597 -0.0993
25842W        W41976  12.640  11.871   0.113  0.1255  0.3214 -0.0183
25843W        W41977  10.858  10.376  15.121  0.2542 -0.1253  0.2176
25844W        W41978  17.701  12.711  15.064 -0.0748 -0.0815 -0.1408
25845W        W41979   9.646   6.673  15.456 -0.0563 -0.1021  0.0353
25846W        W41980   8.482  16.194  15.016 -0.1409 -0.1449  0.1986
25847W        W41981   5.330   7.207   4.908  0.0621  0.0678  0.2079
25848W        W41982   0.758   1.142   2.689  0.2227  0.0742  0.2033
25849W        W41983  16.661   3.219  15.523  0.3268 -0.0584 -0.0416
25850W        W41984  14.241   2.310  11.452  0.1948 -0.2307 -0.1457
25851W        W41985   9.853   8.608  14.353  0.0202  0.3461 -0.0655
25852W        W41986   3.612  10.263  11.255  0.2631  0.0197 -0.0373
25853W        W41987  18.010   4.651   5.764 -0.0702  0.2117  0.0705
25854W        W41988  14.870   7.980  13.494 -0.4743 -0.0549 -0.3264
25855W        W41989  16.838   7.334  15.376  0.1781 -0.1122  0.1956
25856W        W41990   1.554   8.900  11.115 -0.0361  0.1827  0.0542
25857W        W41991   6.190  10.592   2.198  0.0500  0.2405  0.0594
25858W        W41992   0.209  16.950  11.601  0.2430  0.1239 -0.0405
25859W        W41993  17.752  16.997   0.183 -0.2976  0.2633 -0.2676
25860W        W41994   7.162  16.408  15.277  0.0598 -0.1039 -0.0977
25861W        W41995   6.176   7.570   3.265  0.1066  0.0204  0.1756
25862W        W41996  17.211  14.954   4.488 -0.1062 -0.5262  0.2469
25863W        W41997   8.748   7.668  10.833 -0.0651 -0.1505  0.2718
25864W        W41998  17.001   9.411   1.078  0.0332  0.1473 -0.0533
25865W        W41999   2.115   1.076   4.711  0.1299 -0.0230 -0.1838
25866W        W42000  18.401  14.957  13.107  0.0498 -0.1323  0.1529
25867W        W42001   0.671   3.332   2.301  0.2373 -0.1046  0.1357
25868W        W42002  10.381   5.476   5.696  0.0287 -0.1352  0.0272
25869W        W42003  14.173  15.923  10.488  0.1304  0.1637 -0.0415
25870W        W42004  16.233   0.220   2.100 -0.0761  0.2959  0.1546
25871W        W42005  15.965  12.085   5.173  0.0272  0.1802 -0.2403
25872W        W42006  15.839  17.316   4.865  0.0428  0.2085 -0.1308
25873W        W42007   0.806  11.991   4.946  0.1695  0.0260 -0.2754
25874W        W42008  18.706  16.577  13.225  0.0315  0.1521 -0.0805
25875W        W42009  12.244   7.506  14.354 -0.5702  0.0298 -0.0757
25876W        W42010  12.609   8.193  11.928  0.1911 -0.0422  0.0535
25877W        W42011   7.168   4.997   3.047  0.0760  0.0215  0.0510
25878W        W42012   8.086   0.117   2.708 -0.1917 -0.1745  0.1042
25879W        W42013   1.779  17.300   0.830 -0.0552  0.2523 -0.1550
25880W        W42014  17.360   6.114   5.221 -0.0222  0.2259 -0.3929
25881W        W42015  15.189  15.350   2.460  0.0312  0.3372  0.0252
25882W        W42016   8.761   7.228   2.989  0.1327  0.3051  0.1188
25883W        W42017   9.668   1.138   3.128 -0.1696  0.3658 -0.2412
25884W        W42018   4.113   6.833   2.507 -0.2833 -0.0389 -0.1721
25885W        W42019   2.546   5.515  12.828 -0.0874  0.1168  0.0905
25886W        W42020  14.511  16.209  14.896 -0.3510 -0.0705  0.0366
25887W        W42021   3.279   1.996   3.824  0.0270 -0.0308 -0.4168
25888W        W42022  10.069   4.247   1.133  0.0592 -0.1255  0.2242
25889W        W42023  11.516   0.217   3.648  0.0658 -0.5565  0.1933
25890W        W42024   3.555  14.733   3.640 -0.1477 -0.1891 -0.0995
25891W        W42025   7.654  16.716   3.967  0.3429  0.0371 -0.1105
25892W        W42026   5.049  11.607   2.376  0.0428  0.3700 -0.3703
25893W        W42027   3.614   5.767  13.692 -0.0739 -0.0017  0.0293
25894W        W42028  17.971  13.319   0.164 -0.3313  0.1826  0.1720
25895W        W42029  12.890   5.081   4.604  0.1833  0.1844  0.0088
25896W        W42030   7.610   6.320  13.206 -0.1150 -0.1894 -0.0852
25897W        W42031  11.225   4.392   4.063 -0.0330 -0.0157 -0.2143
25898W        W42032   9.325   4.392   2.661 -0.0606 -0.5897 -0.0007
25899W        W42033   2.626   6.753  13.686 -0.1074  0.2528 -0.0411
25900W        W42034   2.643  10.875   3.330  0.3225  0.1758 -0.2939
25901W        W42035  18.243   8.738  12.403  0.0566 -0.2530  0.2870
25902W        W42036  16.597   1.933  15.074  0.3102 -0.4805 -0.1710
25903W        W42037  15.221   1.899   3.436  0.1864  0.0730 -0.3427
25904W        W42038  14.394  11.181  14.592  0.1557  0.0220  0.1570
25905W        W42039   9.579  13.324  10.020 -0.3525  0.0690  0.3186
25906W        W42040   4.544   0.277  14.546  0.0162 -0.1242 -0.3654
25907W        W42041   9.020   9.120  13.852  0.0435  0.0126 -0.0355
25908W        W42042  12.197   2.225  13.132 -0.0263  0.0342 -0.2588
25909W        W42043  17.641  10.127   0.521  0.2341  0.0592  0.2371
25910W        W42044   9.347  12.078  13.504 -0.2105  0.2349  0.1163
25911W        W42045   4.550   7.410  12.221  0.1613 -0.1598 -0.2534
25912W        W42046  17.072  10.371   1.694  0.0186  0.0109 -0.1924
25913W        W42047  12.704   4.813  12.259 -0.0053  0.1940 -0.1345
25914W        W42048  14.602  15.895   9.705 -0.0034 -0.1263 -0.1690
25915W        W42049   1.572   4.311   4.260 -0.1136  0.0527  0.3691
25916W        W42050   1.521   6.434  11.106  0.1033  0.0601 -0.1677
25917W        W42051   5.779   4.724   1.152 -0.0835 -0.1439 -0.1737
25918W        W42052  18.407   1.360  10.104 -0.2940  0.0693  0.1800
25919W        W42053  14.037  17.526   0.457  0.3047  0.2322 -0.2257
25920W        W42054   5.279   5.442   1.742 -0.1105  0.0277  0.1944
25921W        W42055  13.535  11.933   3.675 -0.0894 -0.1828  0.0476
25922W        W42056  18.289   1.890  12.202 -0.2232  0.0915 -0.1179
25923W        W42057   4.623   0.159   1.064 -0.0604 -0.1531 -0.1243
25924W        W42058   0.786   5.898  14.933  0.0635  0.2840  0.0591
25925W        W42059   2.652   2.342   4.347  0.0187  0.2429  0.0250
25926W        W42060  11.842  18.194  14.860 -0.0485 -0.2057  0.0241
25927W        W42061  12.449  18.301   3.513 -0.2893  0.1727  0.1577
25928W        W42062  13.744   5.081  10.415 -0.0336 -0.1280 -0.2953
25929W        W42063   4.632  12.761   9.433  0.2850  0.3934  0.0707
25930W        W42064   9.687   8.230   5.128  0.1154 -0.1643 -0.0378
25931W        W42065   9.880   3.461  15.052  0.0161 -0.1178  0.0072
25932W        W42066  11.863  18.152  13.483  0.0887  0.0741  0.0304
25933W        W42067  11.742  15.115  13.492  0.3396  0.1137 -0.0787
25934W        W42068   7.401   3.443   1.686  0.0138  0.0691 -0.0128
25935W        W42069  17.307   4.285   2.066 -0.0862 -0.0330  0.1927
25936W        W42070  12.324   4.965  13.937  0.0144  0.0929 -0.1475
25937W        W42071   1.153  12.426  12.239 -0.3941 -0.2382 -0.0410
25938W        W42072  12.650  17.959  13.050  0.0468  0.0670 -0.1855
25939W        W42073  11.093  16.052   3.636  0.1156  0.0809  0.1541
25940W        W42074  17.433  14.141   3.286  0.1207  0.1109  0.1731
25941W        W42075   1.893   7.907  15.005  0.0288 -0.2038  0.1278
25942W        W42076   6.327   0.863  15.036  0.0171 -0.4890  0.0425
25943W        W42077  15.780   7.567   5.512  0.1260  0.1719 -0.3552
25944W        W42078   1.546  11.605   1.877  0.1786 -0.3552 -0.1501
25945W        W42079   5.779  13.483   4.930 -0.2316 -0.1781  0.3724
25946W        W42080   9.281   0.729   1.079 -0.2167  0.1662 -0.1889
25947W        W42081  14.447   6.763   2.773  0.3127  0.1997  0.0965
25948W        W42082  15.318   2.312   2.511  0.2772 -0.0744  0.0940
25949W        W42083   8.712  10.837  10.950 -0.0758  0.1031  0.0192
25950W        W42084   1.214   7.928  14.158 -0.0832 -0.1509 -0.1462
25951W        W42085   2.449  18.479   0.985 -0.2339  0.1304  0.1350
25952W        W42086   0.574   9.102   5.413 -0.2696  0.0142  0.0539
25953W        W42087  17.885  16.502  10.886 -0.1408  0.0236  0.0944
25954W        W42088  17.616  13.804  11.933 -0.2206 -0.0183  0.2870
25955W        W42089   3.126   2.698  14.507 -0.0721 -0.0301 -0.1545
25956W        W42090  13.828   6.039  10.423 -0.1637  0.2830 -0.1607
25957W        W42091  14.345  15.306   4.497 -0.0158 -0.2811  0.1298
25958W        W42092   7.461   7.318  13.566  0.0753  0.2836  0.1771
25959W        W42093   1.687   3.694   3.354  0.1178  0.1703 -0.1170
25960W        W42094   0.436  12.747  12.488 -0.1511  0.0282 -0.1341
25961W        W42095  15.729   1.861   3.278 -0.1687 -0.0545 -0.1403
25962W        W42096   1.863   9.563  15.563 -0.0230 -0.5707  0.1807
25963W        W42097  16.429   1.104  11.996 -0.1460  0.1320 -0.1785
25964W        W42098   6.661   5.422  10.972  0.1747  0.1195  0.1588
25965W        W42099   9.183  18.595  12.662  0.1533 -0.0197 -0.0584
25966W        W42100   0.517   5.127   1.252 -0.0622  0.1155 -0.2293
25967W        W42101  15.813  10.312  12.545  0.2867  0.2474 -0.2389
25968W        W42102  18.044   1.560  15.504  0.1624 -0.1887  0.2579
25969W        W42103  17.080  16.492  12.104 -0.0889  0.2912  0.2742
25970W        W42104  16.823   5.974   2.189 -0.2130  0.2514  0.1828
25971W        W42105  10.085  10.841  12.293 -0.3081  0.1081 -0.1303
25972W        W42106  11.197  12.917   1.514 -0.3108 -0.3045 -0.0509
25973W        W42107   4.681   4.673  14.244 -0.2836 -0.1023 -0.0150
25974W        W42108  15.995   9.319   1.725 -0.2268 -0.0340 -0.1336
25975W        W42109  14.933  15.722   4.055  0.1113 -0.1125 -0.2529
25976W        W42110   8.201  14.080   0.560  0.3381  0.0717  0.2277
25977W        W42111   9.758  16.877   4.185 -0.0470 -0.0722 -0.1691
25978W        W42112  17.914   7.652   2.451  0.1156  0.0354  0.4133
25979W        W42113   1.220  14.607  11.127 -0.1005 -0.0563 -0.0327
25980W        W42114   9.045   6.016  15.380 -0.0369 -0.0402  0.1153
25981W        W42115  17.750  15.300  13.791 -0.0532  0.0210 -0.0955
25982W        W42116  15.576   2.413   5.492 -0.2627 -0.0989  0.0271
25983W        W42117  12.085   0.078   2.277  0.1256 -0.1825  0.0201
25984W        W42118   3.890   5.015  11.159  0.4953 -0.0228 -0.0805
25985W        W42119  15.484   0.405  12.858 -0.3629  0.0883 -0.1694
25986W        W42120  12.911  10.495   2.161  0.0565 -0.0276 -0.0882
25987W        W42121  16.845   4.499   4.219  0.0234 -0.1109  0.0762
25988W        W42122  16.696  13.531   3.817 -0.0949  0.0254  0.0552
25989W        W42123  10.554  16.690  13.202  0.0927  0.1331  0.1379
25990W        W42124   1.106   8.211   3.875 -0.1105 -0.0754 -0.0877
25991W        W42125   4.346   0.553  11.898  0.3054 -0.0751 -0.2337
25992W        W42126  16.236   0.679   0.514  0.1709 -0.2931  0.0706
25993W        W42127  11.403  15.346  14.299 -0.1544 -0.0965  0.2058
25994W        W42128   9.722  15.851   1.369 -0.2766 -0.1474  0.3870
25995W        W42129  15.592   3.757   2.546  0.0149 -0.1978  0.1686
25996W        W42130  11.219  18.291  11.303 -0.2725 -0.0125  0.1533
25997W        W42131  12.997   6.519  10.402  0.3701 -0.1395 -0.1092
25998W        W42132   7.663   6.296  12.649  0.2309 -0.4143 -0.0723
25999W        W42133   6.535  17.612   2.836  0.1546 -0.2862  0.0677
26000W        W42134   5.703   0.223  12.433  0.0237  0.0347 -0.3420
26001W        W42135   1.845   7.056   9.933  0.3535 -0.1185  0.0300
26002W        W42136  15.368   3.602   3.193  0.1040  0.4159 -0.1317
26003W        W42137   3.138   9.944  12.379  0.0813  0.1520 -0.0972
26004W        W42138  18.069   6.435  11.094 -0.2025 -0.1763  0.1414
26005W        W42139  13.530  15.826   5.293  0.1792  0.0621  0.3636
26006W        W42140  15.046   2.959   3.004 -0.0195 -0.1397  0.3203
26007W        W42141  15.547   9.839  15.299  0.2196  0.5085  0.0242
26008W        W42142  12.986   9.072  10.756  0.3016 -0.0686  0.2532
26009W        W42143  18.047   7.987   4.858 -0.4030  0.0758 -0.0547
26010W        W42144   7.181  14.964   3.060 -0.1168 -0.2440 -0.0342
26011W        W42145   1.041  11.494  15.492  0.0282 -0.0115  0.3186
26012W        W42146  14.336   0.109   0.304  0.0934 -0.2513 -0.0956
26013W        W42147  18.315   3.830   2.871  0.2492 -0.2039  0.0718
26014W        W42148   2.003   7.065   0.938  0.0926  0.0953  0.1453
26015W        W42149  11.619   0.443   5.397 -0.0500  0.1840  0.1099
26016W        W42150   7.067   0.190   1.454 -0.0675 -0.0807  0.2460
26017W        W42151   6.623  10.365   3.177 -0.1945 -0.1556  0.0319
26018W        W42152  12.568  12.156  13.070 -0.0607 -0.2441  0.2150
26019W        W42153  10.344  14.840   9.843  0.0087 -0.1900 -0.3248
26020W        W42154   5.462  17.613   0.308 -0.2160  0.0266  0.1832
26021W        W42155   0.989  16.520   1.614  0.1766 -0.3336  0.1980
26022W        W42156   2.029  11.869  12.314 -0.1584 -0.1043 -0.2763
26023W        W42157   9.408  11.561  14.114 -0.3631  0.2213 -0.4572
26024W        W42158  16.785   2.612  10.934 -0.3337 -0.0432  0.0378
26025W        W42159   8.372   8.368   3.148  0.0688  0.1639 -0.2620
26026W        W42160  11.892   5.733  14.497  0.2542 -0.1169 -0.1205
26027W        W42161  13.703  13.645  12.452 -0.1075  0.0852  0.2250
26028W        W42162  10.547   5.707   1.417  0.2195  0.0163  0.1779
26029W        W42163  10.203   2.285   2.217 -0.1229 -0.0850  0.1699
26030W        W42164  12.892   1.210  11.530 -0.2558 -0.1400  0.1137
26031W        W42165   4.721  16.269  12.802  0.0506 -0.0906  0.0425
26032W        W42166   7.482   9.357   2.793  0.0804 -0.2243  0.0400
26033W        W42167   0.248  10.107   5.794 -0.0977 -0.1138 -0.0798
26034W        W42168   3.891  18.420   4.816 -0.0493 -0.3715  0.0451
26035W        W42169   6.433   0.380  15.419 -0.2499  0.2171 -0.0290
26036W        W42170   3.216   4.944   0.443  0.2790 -0.0045 -0.0125
26037W        W42171  12.766   9.276   3.477 -0.2782 -0.1126  0.3434
26038W        W42172  10.864   1.095  10.886  0.1166 -0.2059 -0.0016
26039W        W42173  12.502  10.047  12.199 -0.3330 -0.2311 -0.0863
26040W        W42174   8.711  14.313   3.738 -0.0664 -0.5491 -0.3550
26041W        W42175   9.835  11.939   4.728 -0.1320 -0.0193 -0.2635
26042W        W42176   3.152   6.981   3.402 -0.0601  0.0001 -0.0367
26043W        W42177  11.616   6.405  12.036  0.0436 -0.2809 -0.1305
26044W        W42178   1.422   3.784  14.550  0.2734  0.1197 -0.3797
26045W        W42179  16.060  14.607  12.706  0.1379  0.1793 -0.1738
26046W        W42180   4.923   8.004   5.524  0.0881  0.0958 -0.2595
26047W        W42181  15.352   6.729   0.954  0.1904  0.0230 -0.3958
26048W        W42182   2.164   5.201  14.045 -0.1572  0.0260 -0.0645
26049W        W42183  17.596  15.841  14.373 -0.0144  0.0598 -0.2076
26050W        W42184  18.503  16.357  12.867  0.2421 -0.1175  0.2977
26051W        W42185  10.201   2.362   0.317  0.1257 -0.0644 -0.0906
26052W        W42186  10.888   4.370  12.315 -0.2945  0.3411 -0.0906
26053W        W42187  12.307   0.996   1.346  0.1428  0.3147 -0.1092
26054W        W42188  10.163  15.772   3.577  0.0234 -0.3972 -0.1612
26055W        W42189   2.898  10.030  13.454 -0.0367  0.0530  0.0992
26056W        W42190  15.400   3.703   9.645  0.1252  0.0332  0.2266
26057W        W42191   9.947  16.681   1.667 -0.0960 -0.2054 -0.1026
26058W        W42192   5.757  17.109   5.643  0.0943 -0.1180  0.1571
26059W        W42193  14.745   3.603   2.004 -0.1001 -0.2472  0.0033
26060W        W42194   9.354   8.876  13.397  0.2858 -0.1331  0.0176
26061W        W42195  14.698   5.932   4.410  0.3147 -0.0443  0.0400
26062W        W42196   6.255  10.087   2.931 -0.1057 -0.0465 -0.1071
26063W        W42197   3.889  14.953   5.440 -0.0567 -0.1069  0.1497
26064W        W42198  16.118   9.746  12.717 -0.1171  0.3466 -0.0129
26065W        W42199   9.596   8.770   5.355  0.5130  0.1737 -0.0169
26066W        W42200   7.533   4.877  14.566 -0.0394 -0.0265 -0.1247
26067W        W42201  17.155  10.091  12.637 -0.2796 -0.0001  0.1201
26068W        W42202   2.965   0.615  12.006 -0.2130 -0.0054 -0.1797
26069W        W42203   8.294   0.324  14.528  0.5443  0.2755  0.1317
26070W        W42204  11.625  12.032   1.302 -0.0072  0.2981  0.0645
26071W        W42205  14.249   5.714  12.886 -0.0523  0.0367 -0.1173
26072W        W42206   2.015  11.266  11.830 -0.1703  0.0818  0.0836
26073W        W42207  16.027   6.169  10.588  0.0679 -0.0055 -0.0300
26074W        W42208  17.362   1.677   3.879 -0.0932 -0.0139  0.3643
26075W        W42209  10.223   2.724   2.570  0.1220 -0.1690  0.3219
26076W        W42210   6.778  14.237  11.722 -0.1010  0.0161 -0.0132
26077W        W42211   1.680  14.274   2.752  0.5575  0.2947 -0.3124
26078W        W42212  15.531  17.843   0.871 -0.1950  0.0188  0.0482
26079W        W42213  17.205  11.500   0.960 -0.3781  0.0835  0.1639
26080W        W42214  10.381  13.538   1.154  0.0387 -0.1356  0.0917
26081W        W42215   7.442  15.286  11.404 -0.3175 -0.1547 -0.1886
26082W        W42216  13.785   9.762  14.727 -0.0933  0.1281  0.3222
26083W        W42217  12.165   2.128  15.521  0.0021 -0.0110  0.0182
26084W        W42218  13.263   7.328   3.441  0.0279  0.0688  0.0891
26085W        W42219  13.613   7.603   0.469  0.0866 -0.0016  0.0844
26086W        W42220  17.686  14.479  12.668 -0.1729 -0.0379 -0.0471
26087W        W42221   1.065  10.321   2.234 -0.1155  0.3058  0.2518
26088W        W42222  17.088  17.495   0.286  0.0340 -0.1895  0.0275
26089W        W42223   1.020  15.921  12.747  0.4849 -0.0243  0.0119
26090W        W42224  11.360   1.745   2.563  0.0929  0.1132 -0.0461
26091W        W42225   3.359   0.015  11.169  0.0723  0.1832  0.2455
26092W        W42226  13.360   0.626   4.269  0.0170  0.0354  0.0419
26093W        W42227   7.818  10.240  15.493  0.1816  0.0361 -0.1993
26094W        W42228   2.696   3.026  15.355  0.1142 -0.2545  0.0289
26095W        W42229   6.832   0.635  14.023 -0.1863 -0.1456 -0.1830
26096W        W42230   4.307  10.541   0.579  0.6674  0.0401 -0.0333
26097W        W42231   3.126   2.818   1.650 -0.2334  0.1883  0.0482
26098W        W42232   4.726   7.096  12.615  0.0593  0.1533  0.0960
26099W        W42233  18.471   1.356  12.368 -0.0746 -0.3995 -0.0046
26100W        W42234   9.952  15.145   0.076 -0.0843 -0.0336 -0.1058
26101W        W42235  10.058   0.768   9.905 -0.1339  0.0206 -0.1045
26102W        W42236  14.874  10.841   4.367 -0.0009  0.2951  0.0207
26103W        W42237  15.555  16.185   1.268  0.2004  0.0819 -0.0935
26104W        W42238  18.576  13.665   4.579 -0.1353 -0.0548 -0.2867
26105W        W42239   8.607  16.419  15.502 -0.0872 -0.1176 -0.1136
26106W        W42240   3.366  18.228   4.714  0.2852 -0.1149  0.0060
26107W        W42241  13.178   8.696  13.129  0.2303  0.0976  0.1844
26108W        W42242  17.755   3.057   2.517  0.0692 -0.1390 -0.0022
26109W        W42243  12.090  11.582  14.671 -0.0959 -0.0335 -0.3630
26110W        W42244  13.341  13.554  14.195 -0.0093  0.1550 -0.3317
26111W        W42245   8.784   7.911  12.063 -0.2248  0.1888  0.1696
26112W        W42246   6.807   7.916  15.179  0.2007 -0.0338  0.2439
26113W        W42247   7.971   6.950   2.559 -0.3967 -0.0056  0.1044
26114W        W42248   7.938  16.117   1.027 -0.0867 -0.1057  0.1047
26115W        W42249   4.909   2.599   1.085  0.0538  0.0433 -0.3394
26116W        W42250   4.419   3.048   0.933 -0.0805 -0.0431 -0.0347
26117W        W42251   4.479  18.303  13.875 -0.1162 -0.1216  0.1717
26118W        W42252   2.104  18.342  15.391 -0.1434  0.3825 -0.2724
26119W        W42253   6.506   6.286  13.650  0.2968  0.2659  0.0596
26120W        W42254  15.055  11.343   4.517 -0.2445 -0.2418  0.2614
26121W        W42255  16.632   3.082  11.659 -0.3290  0.0672 -0.2751
26122W        W42256  14.485   1.976  13.763 -0.0098 -0.2217  0.1422
26123W        W42257  18.101   0.039  14.673  0.3064 -0.1423 -0.1989
26124W        W42258   7.347   3.154  14.775 -0.1948  0.0525  0.1414
26125W        W42259  10.328  17.066  14.470  0.2517 -0.0572  0.1644
26126W        W42260   6.963   7.016   3.635  0.0876  0.3227 -0.0246
26127W        W42261   8.782   4.622  11.063  0.1215  0.0521  0.2005
26128W        W42262  16.256   5.610  14.985 -0.1844 -0.1056 -0.1786
26129W        W42263  11.739  16.133  11.868  0.1225  0.1772  0.1540
26130W        W42264  11.310  16.938  12.955  0.3625 -0.0930 -0.1986
26131W        W42265  14.939  11.820   4.661  0.1216  0.1966  0.2032
26132W        W42266   2.769  16.206   0.398  0.0319 -0.2033  0.2358
26133W        W42267   9.601  18.609   1.526  0.0194  0.1555  0.2045
26134W        W42268  13.036  11.969  11.938 -0.0809 -0.0768 -0.1207
26135W        W42269   0.993  12.054   1.195  0.3090 -0.2360 -0.0274
26136W        W42270  13.960   4.411   2.739 -0.1696 -0.0441  0.2301
26137W        W42271   4.074   7.942  13.803  0.0300 -0.0850 -0.3627
26138W        W42272   3.104  16.720  10.187  0.0518 -0.1840  0.1101
26139W        W42273  12.852  15.161  15.509  0.0646  0.1378  0.2761
26140W        W42274   7.071   0.670  12.553 -0.3514  0.1683  0.0842
26141W        W42275  18.216   5.671   2.006  0.2115  0.2870  0.4876
26142W        W42276  17.494   0.194   3.660 -0.0088  0.0703 -0.0855
26143W        W42277   9.347   2.892   2.241 -0.3212  0.1092  0.0307
26144W        W42278  11.928   5.465  10.044 -0.1626  0.0061  0.1781
26145W        W42279  15.025  12.175   1.897  0.2936 -0.0685 -0.1226
26146W        W42280  13.838  14.453  14.324  0.2206 -0.2033  0.0015
26147W        W42281  15.704   0.938   3.421  0.2452 -0.0215  0.2144
26148W        W42282  11.611  17.762  10.266  0.2120  0.0051  0.1270
26149W        W42283   5.276  14.945  12.369 -0.0920  0.1417 -0.0927
26150W        W42284   5.787   5.702   1.137  0.0854 -0.2593 -0.2567
26151W        W42285  16.173   9.443  10.995  0.2627 -0.2433  0.3429
26152W        W42286   4.548  11.774   0.831  0.2550  0.2109  0.2322
26153W        W42287   2.368   7.124   1.318  0.1493 -0.1025  0.1053
26154W        W42288   4.855  17.855   3.606  0.2784  0.0630  0.0470
26155W        W42289  13.281  14.424  13.922 -0.2276 -0.1010  0.0952
26156W        W42290  11.891   9.663  13.282 -0.0866  0.0464  0.0337
26157W        W42291  16.429  16.486  13.915 -0.1389  0.0699 -0.0921
26158W        W42292  12.250   8.102  11.012  0.2749  0.0712 -0.3658
26159W        W42293   0.039  12.013   1.077 -0.0221  0.1022  0.0719
26160W        W42294   7.452  14.292  12.975 -0.2508  0.0421  0.0179
26161W        W42295  13.842  11.716   4.075 -0.0463  0.0480 -0.4953
26162W        W42296   8.418  17.437  11.441 -0.2397 -0.0184  0.0035
26163W        W42297  18.191   0.372   0.828  0.1195 -0.0300  0.0940
26164W        W42298   3.823  13.774  12.737 -0.1272 -0.4285 -0.1016
26165W        W42299  17.966   4.874   1.592 -0.0214  0.0572  0.2033
26166W        W42300  15.460  14.221  11.791 -0.2694 -0.2691  0.1484
26167W        W42301   1.892   1.187  12.996 -0.0816 -0.0507 -0.0877
26168W        W42302  12.592  17.829   1.504 -0.1877 -0.0845 -0.2605
26169W        W42303  13.333   8.620  12.395 -0.0906 -0.1112  0.0774
26170W        W42304   8.923   5.172   1.495  0.0093  0.0146 -0.1546
26171W        W42305   7.458   8.628   3.018  0.1682 -0.0507  0.0708
26172W        W42306  18.482   3.237   1.248 -0.2335 -0.1877  0.0346
26173W        W42307   9.563  10.250  11.009 -0.0565 -0.0632  0.0446
26174W        W42308  14.344  10.700   1.332 -0.0574  0.0863 -0.0364
26175W        W42309   2.232   8.711   0.024  0.1158  0.2188  0.0172
26176W        W42310   4.755  15.855  12.386  0.0774  0.0213  0.1575
26177W        W42311  18.549  16.252   0.326  0.4807  0.0693  0.0214
26178W        W42312   9.514  15.407  13.506 -0.1651 -0.2473  0.1400
26179W        W42313   3.817  16.502   5.213  0.2230  0.1043  0.0327
26180W        W42314   0.060  18.472  11.047 -0.2447 -0.2786  0.0917
26181W        W42315   2.502  18.085  11.023 -0.0989 -0.1406 -0.0040
26182W        W42316  10.184  14.883  14.050  0.1785 -0.0154  0.0792
26183W        W42317   8.082   3.660  13.761  0.1412 -0.0318 -0.1814
26184W        W42318   4.821  13.606   0.405  0.4133 -0.3217 -0.0791
26185W        W42319  15.997  12.771  10.670 -0.0211 -0.0158  0.2835
26186W        W42320   6.784  14.585  11.368  0.0120 -0.0818  0.0061
26187W        W42321   6.985   8.336  14.995 -0.1250 -0.1070  0.0746
26188W        W42322  17.130  10.122   2.774 -0.0319  0.1254 -0.3623
26189W        W42323  13.546   9.278  14.690  0.0712  0.1994 -0.0513
26190W        W42324   3.624   6.341   2.869  0.1999 -0.0089 -0.3013
26191W        W42325  16.307   6.931  14.441  0.3173 -0.0616  0.0953
26192W        W42326  10.030   2.907   0.944 -0.0575 -0.1021 -0.1236
26193W        W42327   3.214   4.004   9.841  0.4134  0.0704 -0.4087
26194W        W42328   6.375  17.599  13.882  0.2395  0.1684 -0.1958
26195W        W42329  16.554   9.783  15.239  0.1189 -0.0516 -0.3146
26196W        W42330   6.935   7.711   4.573  0.1520 -0.1492 -0.2114
26197W        W42331  11.845  13.244  13.414  0.0770  0.2826 -0.0565
26198W        W42332  17.695   3.652  11.547  0.1532 -0.0136 -0.2475
26199W        W42333   6.989  15.862   1.417 -0.2032 -0.0529  0.0239
26200W        W42334   6.131  15.687   3.237  0.0173 -0.0129  0.2788
26201W        W42335  15.233  10.264  13.260 -0.1399  0.2025 -0.2316
26202W        W42336   2.748  14.311  11.957 -0.2026  0.0733  0.1971
26203W        W42337  17.438  16.781  12.434 -0.3414 -0.0386 -0.4588
26204W        W42338  13.051  13.184  13.672  0.3840 -0.2074  0.0960
26205W        W42339   9.972  10.213  15.540 -0.3262  0.2399 -0.1282
26206W        W42340   9.362   4.438   3.183  0.0668 -0.2871 -0.2434
26207W        W42341  14.796   9.999  10.879  0.0870  0.0853  0.0860
26208W        W42342   6.599  18.699  12.988  0.1932 -0.3185  0.0056
26209W        W42343  15.248   1.595   2.974 -0.0869 -0.0622  0.1557
26210W        W42344  14.248  14.510  12.590  0.1251 -0.1632 -0.0146
26211W        W42345   3.006   8.277   2.604 -0.0116  0.1299 -0.1024
26212W        W42346  18.190   0.872  13.782  0.1275  0.2455 -0.1676
26213W        W42347  13.882  12.261   3.440 -0.0096 -0.1686  0.0230
26214W        W42348  10.303   9.586  12.343  0.0645  0.4077 -0.0955
26215W        W42349  18.685   2.509   4.911 -0.4776 -0.1683  0.1241
26216W        W42350  11.658   5.604   1.653  0.2417 -0.2272  0.0362
26217W        W42351   3.931   7.447  13.686 -0.0858  0.0201  0.0547
26218W        W42352   7.725   5.551  11.647  0.2448 -0.4692  0.1329
26219W        W42353  10.532   7.320   6.174 -0.1640 -0.1941 -0.2697
26220W        W42354  15.285  14.103   6.160  0.2179 -0.0625  0.1143
26221W        W42355  15.530  16.827   4.628  0.1988  0.2315 -0.2389
26222W        W42356   6.580  16.974   3.210  0.1935 -0.1528  0.2705
26223W        W42357  10.699   2.473   5.162 -0.1113 -0.2542 -0.0106
26224W        W42358   5.998   3.513  12.634 -0.0356 -0.0804  0.0413
26225W        W42359  11.500   4.517   3.697 -0.0377 -0.1097 -0.0866
26226W        W42360  18.732   8.034  14.797 -0.2675  0.1059  0.0006
26227W        W42361   2.678  15.963  15.307  0.3059  0.1128 -0.0079
26228W        W42362   3.584   9.810  12.548 -0.1834  0.0566  0.0920
26229W        W42363  11.415  16.806   5.292 -0.1654 -0.4268  0.0294
26230W        W42364  13.070  15.729  12.537  0.2004  0.0540  0.0059
26231W        W42365   4.706   5.788  11.339  0.1783 -0.1834  0.0749
26232W        W42366   1.146   5.285  15.407  0.1806  0.1916  0.0384
26233W        W42367  13.736   4.823   5.896  0.0233 -0.1875  0.3270
26234W        W42368   6.387   2.989   5.212 -0.3181 -0.0370 -0.4984
26235W        W42369  13.413   0.758   3.265 -0.0580  0.1314  0.3004
26236W        W42370  10.932  17.728   3.638  0.0563 -0.0298  0.1505
26237W        W42371   6.622   3.418   4.875 -0.0544  0.0657 -0.0628
26238W        W42372  16.421  13.051   1.153  0.1255 -0.0786 -0.1210
26239W        W42373  10.542   2.103   3.050 -0.0884 -0.0920 -0.1068
26240W        W42374  18.535   9.644   4.145 -0.2777 -0.1363 -0.0236
26241W        W42375  12.184  12.975   1.798  0.0928 -0.4485 -0.0020
26242W        W42376  16.304   9.218  13.456 -0.0518 -0.0698 -0.1387
26243W        W42377   8.549   0.226   2.372  0.1375  0.1342  0.2678
26244W        W42378  14.613  10.525  11.896  0.1208 -0.0522  0.1273
26245W        W42379  13.904   5.310  14.481  0.0612  0.0498  0.1599
26246W        W42380  18.158  16.995   0.953 -0.4043  0.0261  0.0930
26247W        W42381  11.866  10.957  11.406  0.0113  0.1623  0.0748
26248W        W42382   1.337  18.659  14.711 -0.3971  0.2035  0.1544
26249W        W42383  13.358  16.094   4.328  0.3450 -0.0826 -0.2591
26250W        W42384  17.194  17.343   4.403 -0.1224  0.0672 -0.0842
26251W        W42385   9.392   3.372  10.970  0.0794  0.2800  0.2156
26252W        W42386  14.361   2.089   1.025  0.1705  0.0571 -0.0862
26253W        W42387  10.171  16.668   2.167  0.2433  0.0456  0.0399
26254W        W42388   1.822  15.803  11.739 -0.1421  0.2001  0.0467
26255W        W42389   5.187  14.886   3.284 -0.0290  0.0150  0.1070
26256W        W42390   4.526  10.698  14.049 -0.0894  0.2573 -0.2692
26257W        W42391   6.163  11.860   1.545 -0.1229 -0.1242  0.0187
26258W        W42392   1.787  18.551  13.745  0.1780  0.2577  0.0833
26259W        W42393   2.942  14.597   1.389 -0.1314 -0.1947  0.0397
26260W        W42394  10.042  11.309  15.450  0.1895  0.3520 -0.1264
26261W        W42395   6.878   7.574   2.171  0.3595  0.1342  0.2648
26262W        W42396   6.653   4.566  11.934 -0.1463 -0.0755  0.0730
26263W        W42397   4.287   4.650  10.979  0.0916  0.1784 -0.1301
26264W        W42398   5.571  16.828   4.932  0.0589 -0.0015  0.1964
26265W        W42399  16.374   5.363  10.777 -0.0306  0.2081 -0.0951
26266W        W42400   6.287  12.063   2.708 -0.1531  0.2128  0.1535
26267W        W42401   7.823  15.753   0.033 -0.0538  0.1304 -0.2373
26268W        W42402  11.580   8.224   2.078  0.1577 -0.1371 -0.1121
26269W        W42403   9.700  14.443   0.474 -0.0469 -0.1872 -0.1557
26270W        W42404  14.362  10.062  13.227 -0.1999 -0.0735  0.0931
26271W        W42405   2.431  11.431  10.675 -0.3086  0.1529 -0.3446
26272W        W42406  12.466   8.225   2.494 -0.1682  0.1234  0.0866
26273W        W42407  11.800  16.308  10.617  0.0443 -0.2245 -0.2157
26274W        W42408  10.159  14.283  11.426 -0.3350  0.3323 -0.0711
26275W        W42409  17.443   1.338   5.258 -0.2646 -0.1909  0.1135
26276W        W42410   3.778   5.459  10.826  0.0525 -0.0391  0.0062
26277W        W42411   5.027   7.773  13.994  0.1080 -0.0918 -0.1115
26278W        W42412  15.477  11.723   3.738  0.2338  0.3293 -0.2842
26279W        W42413  14.799  12.038   4.201 -0.1517  0.1049  0.3440
26280W        W42414   8.276  12.580  11.312 -0.1595  0.1484 -0.1090
26281W        W42415   4.794   1.091  13.536 -0.1480  0.0367 -0.0394
26282W        W42416  14.410   7.202  13.809  0.2999 -0.0302 -0.0067
26283W        W42417  15.469  12.659  13.691  0.0048 -0.0270  0.0087
26284W        W42418  13.020  12.822   1.982  0.0214  0.1321  0.2788
26285W        W42419  15.410   2.240   0.361  0.1238 -0.1088  0.0708
26286W        W42420   6.678  11.247   0.423 -0.2309  0.1091  0.0448
26287W        W42421   0.219  11.253   5.130  0.1729  0.0626 -0.0523
26288W        W42422   3.347  18.481  11.583 -0.3386 -0.2797 -0.3022
26289W        W42423   5.674   4.782   3.027 -0.1269 -0.4991 -0.0747
26290W        W42424  12.070  10.573   3.800 -0.0225 -0.0977 -0.1509
26291W        W42425  15.821   0.224  14.471 -0.2200 -0.0262  0.3375
26292W        W42426  12.395   8.014  12.425  0.0947 -0.0477 -0.2404
26293W        W42427   9.952   9.245  14.035 -0.1144 -0.0551  0.0832
26294W        W42428   8.041   3.351  14.242 -0.1811 -0.0314  0.2108
26295W        W42429   0.687  10.733  12.313  0.1310  0.0826  0.1052
26296W        W42430  10.768   0.619  12.314  0.2142 -0.1733  0.0883
26297W        W42431   8.367  17.806   5.277 -0.4398 -0.2053 -0.0842
26298W        W42432  18.542  13.553  12.097 -0.1604 -0.2087 -0.0544
26299W        W42433  12.640  11.842   2.725 -0.2522 -0.2895  0.0762
26300W        W42434   9.562  14.644   2.173 -0.0281  0.0652 -0.1298
26301W        W42435  15.241   6.894  14.099 -0.0810  0.0948  0.2486
26302W        W42436   6.263  11.958   5.183 -0.0387  0.1552  0.0449
26303W        W42437   5.516  13.050   3.094  0.0355  0.1286  0.3502
26304W        W42438   6.042  13.143   4.463 -0.0176 -0.1434  0.0365
26305W        W42439   7.194  12.246   3.211  0.1262  0.0659  0.1756
26306W        W42440  10.117   9.136   1.518  0.1724  0.2429 -0.1285
26307W        W42441   4.963  12.904  13.241 -0.1051  0.0923 -0.2671
26308W        W42442  11.938   5.473  15.517 -0.0496 -0.0671 -0.1969
26309W        W42443   6.948   7.199   4.075  0.2341  0.1233 -0.0560
26310W        W42444   4.346   2.309  15.378  0.3150 -0.0082  0.2480
26311W        W42445  13.690  17.424  12.664 -0.1759  0.0703  0.0224
26312W        W42446  17.654   9.314   4.524  0.0104 -0.2527 -0.2143
26313W        W42447   4.873   8.262  14.810 -0.0409 -0.2116 -0.3365
26314W        W42448   7.252   9.750   4.063  0.3473 -0.1093 -0.2509
26315W        W42449   5.395  10.186   3.931 -0.0053 -0.1284 -0.1459
26316W        W42450  16.914  14.842   2.911  0.2459  0.1835 -0.2396
26317W        W42451   2.520  16.567  12.554 -0.1954  0.0628  0.4785
26318W        W42452   0.402  17.228   4.720  0.0401 -0.0166 -0.1953
26319W        W42453  16.627  15.384  13.020 -0.0790  0.0346  0.0873
26320W        W42454  15.813  11.955   2.471  0.1935 -0.0581  0.0900
26321W        W42455   0.920   5.935  13.517  0.4475  0.1815 -0.0507
26322W        W42456   6.445  14.243  12.266 -0.0197  0.1200  0.0364
26323W        W42457  15.113   7.723   0.489 -0.1064 -0.2327  0.0687
26324W        W42458   8.611   3.961   3.718 -0.0441  0.1381  0.4183
26325W        W42459  10.046   6.121   3.101  0.0542  0.1551 -0.1452
26326W        W42460   2.614   0.524   2.398 -0.4839  0.0491 -0.0002
26327W        W42461   0.599   8.331   2.424  0.0373 -0.1234  0.1957
26328W        W42462  15.661  14.707  15.337  0.0382  0.1852 -0.1811
26329W        W42463  18.448  11.800  10.997 -0.0834  0.0780  0.1421
26330W        W42464  10.130   8.925   0.499  0.1003 -0.2494  0.1799
26331W        W42465   3.151   9.488  12.612 -0.3724 -0.2720  0.1747
26332W        W42466   6.981  13.893  10.199 -0.2139 -0.0047 -0.0854
26333W        W42467  14.685   7.126   4.530 -0.3467  0.1428 -0.2348
26334W        W42468  18.167   2.472   4.966 -0.1338 -0.1121  0.0145
26335W        W42469  10.961   1.044  12.601  0.0082 -0.1975  0.0443
26336W        W42470   4.074  15.857   5.264  0.0105  0.2360  0.4702
26337W        W42471   3.264   6.414  12.592 -0.1971  0.3970  0.1232
26338W        W42472   1.470   3.273   1.375  0.1208  0.0867  0.1011
26339W        W42473   1.737   1.628   0.770 -0.1542  0.0074  0.2201
26340W        W42474  12.044  18.239   0.359  0.3968 -0.0427  0.0286
26341W        W42475  14.268   1.836   9.786  0.3946 -0.1300 -0.0738
26342W        W42476  10.923   4.818   4.068 -0.1761  0.0692  0.0963
26343W        W42477   4.010   5.598   3.401 -0.0591 -0.0020 -0.0585
26344W        W42478  13.395  18.324  14.340 -0.0906  0.2728 -0.2313
26345W        W42479   6.535   5.836   4.223  0.0910 -0.0452 -0.1212
26346W        W42480  10.906  11.214  14.225  0.0356  0.0469  0.1751
26347W        W42481   1.388   8.696  15.441  0.2030  0.3435  0.0433
26348W        W42482   2.139   0.983   4.240  0.0579 -0.0431  0.1274
26349W        W42483   9.809   7.773  10.743 -0.0097  0.1583 -0.1214
26350W        W42484   6.421  13.577   1.745 -0.0961 -0.2576 -0.1977
26351W        W42485   2.958   9.143  14.892  0.1560  0.1442  0.1809
26352W        W42486   3.449   2.730   1.262 -0.0419  0.0018  0.1973
26353W        W42487  17.639   5.097  15.292 -0.2285 -0.1568 -0.0274
26354W        W42488   1.750   4.174   2.277 -0.0130 -0.1503  0.1999
26355W        W42489  15.676   4.308  14.905  0.1230 -0.2987 -0.0830
26356W        W42490   7.303  18.730  12.742  0.0003  0.1082  0.0668
26357W        W42491  14.459   9.818   9.661  0.0090 -0.0926 -0.2223
26358W        W42492   9.980  16.461   4.003 -0.0032  0.1063  0.1140
26359W        W42493   4.652   2.610  11.958  0.0013  0.1267  0.2110
26360W        W42494   2.910  18.523  12.428  0.2322 -0.2410 -0.1128
26361W        W42495  17.167   0.760  10.532  0.1352 -0.0633  0.3224
26362W        W42496   0.703  15.028   4.951 -0.2891 -0.0440  0.0186
26363W        W42497  11.261   3.132   5.485  0.0952 -0.0944  0.0359
26364W        W42498  13.341   3.146   2.374 -0.2572  0.0354  0.2403
26365W        W42499   8.232  12.601  15.561  0.1800  0.0912 -0.0634
26366W        W42500  13.123  18.039  12.945 -0.2342 -0.0268 -0.2280
26367W        W42501   6.792   8.921  10.901  0.2326 -0.0859  0.0258
26368W        W42502  10.407  13.007   2.413 -0.0401  0.0183  0.0040
26369W        W42503  13.910  16.118   2.320  0.0796 -0.1767 -0.4199
26370W        W42504   3.998   7.460   1.269  0.2864 -0.1402 -0.3302
26371W        W42505  12.642   0.899  12.595  0.1928 -0.1893 -0.1091
26372W        W42506   3.663   6.192   4.360  0.2098 -0.1933 -0.0222
26373W        W42507  16.316   3.355   2.951 -0.3812  0.1863  0.0382
26374W        W42508   7.076   4.337   4.686  0.0331 -0.1561 -0.0059
26375W        W42509  10.612  10.780  12.267 -0.0025 -0.1610 -0.0601
26376W        W42510   5.297   4.107  12.203  0.0118 -0.1027  0.3312
26377W        W42511  10.881   9.787  13.012 -0.2047 -0.0026 -0.0727
26378W        W42512   2.323   0.987  15.479  0.2630  0.3692 -0.1715
26379W        W42513   3.855   5.180   1.892 -0.3550  0.0839  0.1580
26380W        W42514  11.048  15.784   5.076  0.2243  0.0527  0.0617
26381W        W42515   1.437  18.717   2.981  0.0255 -0.1442  0.1759
26382W        W42516   9.377  12.202   0.612  0.0869  0.1498  0.1510
26383W        W42517  18.689  16.020   3.186 -0.2903  0.2458 -0.0570
26384W        W42518  16.696   1.559  14.083  0.0997  0.1720 -0.0157
26385W        W42519   8.003   5.882   1.381  0.0585  0.1047  0.1390
26386W        W42520   8.117   9.969   1.296  0.2572  0.2368  0.0414
26387W        W42521   0.606   0.830  14.546  0.1884  0.1407  0.1365
26388W        W42522  14.989  18.575  15.059 -0.0644  0.1146  0.2692
26389W        W42523   9.705   1.218  14.804  0.1464 -0.0047 -0.0067
26390W        W42524   1.088   3.888  15.532 -0.1417  0.3932  0.1276
26391W        W42525  16.312  12.039  11.046  0.1776  0.0586 -0.1222
26392W        W42526   6.317  12.874   5.413 -0.0804  0.0373  0.0064
26393W        W42527  18.441   4.803  14.053  0.0483  0.1562 -0.1935
26394W        W42528   2.343   7.538  11.672  0.1647  0.3681  0.1334
26395W        W42529   2.768   3.567   2.236  0.0121 -0.0619  0.0531
26396W        W42530  17.976  18.452   0.262 -0.1281 -0.2827  0.2656
26397W        W42531  16.075  13.119   3.801  0.2004 -0.1077 -0.4288
26398W        W42532   3.649  12.453  12.096  0.4040  0.0209 -0.0903
26399W        W42533   8.294  18.177   2.095  0.0328  0.3477  0.1341
26400W        W42534   8.047  13.573  13.249  0.0095  0.0901  0.2040
26401W        W42535  10.548   9.078   0.757 -0.3175 -0.0100 -0.1728
26402W        W42536   5.821   6.658   3.720 -0.0590 -0.1934  0.1363
26403W        W42537  12.142   5.016  15.500  0.1945 -0.1407 -0.0056
26404W        W42538   9.045  14.772  10.497  0.1194 -0.1130  0.2652
26405W        W42539   1.127  18.607  12.462  0.0669  0.0583 -0.0090
26406W        W42540  13.538   4.916  14.818 -0.2984 -0.0675 -0.1387
26407W        W42541   4.735  13.074   2.623  0.0546 -0.0502 -0.1030
26408W        W42542  10.371   6.033   1.054  0.0815  0.0765  0.0322
26409W        W42543  14.910  10.253   4.824  0.1559  0.0354  0.0039
26410W        W42544  13.131  12.856   5.461  0.0763 -0.1299 -0.1812
26411W        W42545   1.070  16.580   3.489  0.0773  0.1810 -0.1912
26412W        W42546  16.822   1.638   1.942 -0.1236 -0.1675 -0.0058
26413W        W42547  17.987  12.152   6.563 -0.0030 -0.0208 -0.1257
26414W        W42548  18.379  17.111  14.227 -0.0592  0.0666  0.1304
26415W        W42549  15.427   1.900  11.668 -0.1973 -0.1576 -0.0846
26416W        W42550  11.446  11.686   5.117  0.1323  0.0021 -0.1537
26417W        W42551   7.032  16.852  10.542  0.3700  0.2191 -0.1489
26418W        W42552  18.702   4.935  15.576 -0.0035 -0.0914 -0.2500
26419W        W42553  13.586  18.436   0.599 -0.2257 -0.3637 -0.0450
26420W        W42554  11.799   0.763  11.021 -0.0186 -0.1755  0.0284
26421W        W42555  11.872   2.643   1.393  0.1814 -0.0014 -0.0771
26422W        W42556   6.782  10.830   0.649 -0.0602  0.0068 -0.0004
26423W        W42557   1.207  17.905  11.726 -0.1906 -0.2559 -0.1314
26424W        W42558  17.302  14.648   2.670  0.0462 -0.3382 -0.0979
26425W        W42559   6.688   9.015   0.462 -0.2266 -0.1347  0.1897
26426W        W42560   7.267   7.426  10.993  0.0269  0.3147  0.0262
26427W        W42561   9.640   2.167   2.976 -0.1820 -0.0201  0.0713
26428W        W42562  10.891   9.794   3.684 -0.0007  0.0741  0.0379
26429W        W42563  11.929  14.911   3.165  0.1402  0.0273 -0.2342
26430W        W42564   1.642  13.735   3.009 -0.3183 -0.1929 -0.0631
26431W        W42565  12.002  12.652  14.059 -0.3103  0.2419  0.2232
26432W        W42566  16.887   5.588  15.368  0.1593 -0.0766 -0.5638
26433W        W42567   4.438   8.925  15.531 -0.0806 -0.1556  0.0972
26434W        W42568  10.530  10.068  13.880  0.0788  0.1404 -0.0613
26435W        W42569   4.219   2.538   1.851 -0.1415  0.2578 -0.0373
26436W        W42570   1.625   1.802   1.708  0.2865 -0.1066  0.0450
26437W        W42571  10.440   6.001  12.582 -0.3385 -0.2652  0.2299
26438W        W42572  18.305  16.947  14.690 -0.0113  0.0506  0.0734
26439W        W42573   7.631  13.968   4.027 -0.1776 -0.1466  0.0814
26440W        W42574   7.186   0.494  11.009  0.2929  0.2016  0.2250
26441W        W42575  14.523  10.011   0.507  0.0342 -0.3160 -0.1131
26442W        W42576   6.915  11.628   1.905  0.1882  0.0159 -0.5275
26443W        W42577  16.028   9.774  15.251 -0.0993  0.0395  0.1604
26444W        W42578  15.824   4.146   4.548 -0.0517 -0.1251 -0.3250
26445W        W42579  18.596  10.129  11.299  0.2453 -0.1495  0.1326
26446W        W42580  12.826  16.179   4.468  0.0641  0.3509 -0.0367
26447W        W42581  17.045  15.544   5.181  0.3551  0.2334  0.2852
26448W        W42582  15.006  16.411  14.948  0.0161 -0.0985  0.0434
26449W        W42583  15.004   0.658  11.600 -0.0561 -0.0407  0.2234
26450W        W42584   8.643   3.782   1.603 -0.1139 -0.0200 -0.0760
26451W        W42585   9.522   0.529   0.564 -0.2509 -0.0869 -0.0850
26452W        W42586  11.819   6.426  15.193  0.1856  0.0343  0.3609
26453W        W42587  17.185  12.529  11.987 -0.1843 -0.0460 -0.0412
26454W        W42588   9.504  14.925   5.222  0.1238  0.2745  0.2312
26455W        W42589  18.200   2.920  11.768 -0.1088 -0.1664 -0.0468
26456W        W42590   8.619  15.932  13.029 -0.2301  0.2865  0.1246
26457W        W42591   4.757  14.239  11.664  0.2453 -0.1895  0.0314
26458W        W42592  14.515   2.663  15.009 -0.2530 -0.1870  0.1063
26459W        W42593   4.213  15.408  11.237  0.2301  0.2701  0.1678
26460W        W42594   6.777   2.482  13.338 -0.0873  0.0514  0.1854
26461W        W42595   4.056  18.168   1.301 -0.0159 -0.2997 -0.2382
26462W        W42596   5.107   2.391   2.359  0.0169 -0.3184 -0.1874
26463W        W42597  18.460   6.891  14.883  0.3087  0.0842 -0.0061
26464W        W42598  14.229  10.194   3.761  0.1767  0.0950  0.2682
26465W        W42599   7.895   5.761  14.322 -0.1948  0.2238 -0.1642
26466W        W42600   8.789  13.706   4.423 -0.2637  0.2218  0.1391
26467W        W42601   2.355  13.701  12.017 -0.1439 -0.2071  0.1759
26468W        W42602  14.606  14.610   2.621  0.2924  0.0416 -0.2842
26469W        W42603  14.923  11.860   1.534  0.2549 -0.1981  0.2595
26470W        W42604   5.001   3.140   2.747  0.1765 -0.0978  0.0010
26471W        W42605   3.805  13.134   3.419  0.2111 -0.1091  0.3588
26472W        W42606  15.985   7.068   4.352  0.0538  0.1758  0.1582
26473W        W42607  16.570  13.179   1.670  0.0789  0.2092  0.0282
26474W        W42608   1.316   4.789   1.896  0.2988  0.2402 -0.0790
26475W        W42609   0.526  13.429   0.574  0.1706  0.3037  0.0727
26476W        W42610  13.102   9.236  13.136 -0.1770 -0.0008 -0.1749
26477W        W42611  11.602   7.494   1.098  0.1841  0.0368  0.0571
26478W        W42612   4.259   6.271   3.571  0.0274 -0.1681 -0.1376
26479W        W42613   1.197  10.529  14.772  0.1653 -0.2033  0.1422
26480W        W42614  12.446  15.004  12.367  0.0865 -0.0099  0.2157
26481W        W42615  11.160  17.477   0.714  0.0763 -0.1065  0.1732
26482W        W42616  18.004   6.810  15.225  0.0943  0.1472  0.2052
26483W        W42617   5.890   9.332  12.232 -0.1469 -0.0851 -0.1728
26484W        W42618  10.535  14.922  10.862 -0.0890 -0.1278 -0.0808
26485W        W42619  17.492   5.377   3.718 -0.1128 -0.2725 -0.0860
26486W        W42620   7.638   7.059   0.189 -0.3588  0.0406 -0.0210
26487W        W42621   1.650   6.703   4.817 -0.0368 -0.0361 -0.2598
26488W        W42622   3.674  15.792   1.916  0.2651  0.2992  0.0689
26489W        W42623   9.614   0.413   3.769 -0.1533  0.2681 -0.1579
26490W        W42624  17.394   3.931  11.113  0.2799  0.0297  0.1336
26491W        W42625  11.906   2.663   0.069  0.0855  0.1883  0.0528
26492W        W42626  12.284   0.873   0.202 -0.2306 -0.2541  0.3188
26493W        W42627   7.025  17.694  10.542 -0.0367  0.1773 -0.0210
26494W        W42628   8.649  18.347   0.205 -0.1497  0.1253 -0.0423
26495W        W42629   9.268  14.904  10.891 -0.0599  0.1846 -0.2174
26496W        W42630  17.379  10.017   3.756 -0.2748 -0.2123 -0.1427
26497W        W42631   7.502  11.216  12.200 -0.1102  0.0292 -0.2978
26498W        W42632  17.842  17.479   0.153  0.1346 -0.0761 -0.0795
26499W        W42633   3.871  18.058  12.016 -0.0837 -0.0989  0.1821
26500W        W42634   3.436   7.986   2.737 -0.1361  0.0739 -0.1246
26501W        W42635   9.893  12.195  11.491 -0.1713  0.3609  0.0744
26502W        W42636  16.075   7.050   5.374 -0.1460 -0.1477  0.1995
26503W        W42637   7.583  15.823   1.376  0.3104  0.1760  0.0744
26504W        W42638  13.035   2.452   4.196  0.0655 -0.0910 -0.2303
26505W        W42639  15.632   9.982  10.067 -0.0326  0.1949  0.2056
26506W        W42640  12.315   8.118   0.924 -0.1867 -0.5229  0.1164
26507W        W42641   5.859  16.463   2.124 -0.0489 -0.0285  0.0576
26508W        W42642  15.451   8.976   1.200  0.0999  0.2730 -0.1002
26509W        W42643   4.279  11.483  13.972 -0.0193  0.0493  0.2290
26510W        W42644   9.569  15.376   0.891 -0.0198 -0.2159 -0.2261
26511W        W42645  16.326   6.050   2.420 -0.2353  0.1301  0.1598
26512W        W42646   2.732  14.981  10.484 -0.2409  0.0399 -0.0693
26513W        W42647   1.460   1.039   9.630  0.3424 -0.1611  0.2246
26514W        W42648  15.464   0.363   3.284 -0.3917 -0.0501  0.2092
26515W        W42649   4.187  18.371   3.862 -0.2791 -0.0830  0.0248
26516W        W42650  14.770   3.178  13.384  0.1125  0.0096 -0.3296
26517W        W42651  17.768   2.739  14.380 -0.0242  0.1263 -0.1856
26518W        W42652   2.885  12.168  12.413 -0.1757 -0.0364  0.0705
26519W        W42653  15.096  13.157  14.316 -0.2414 -0.0622  0.0704
26520W        W42654   7.218  14.125  15.409  0.0131  0.1373  0.2704
26521W        W42655   6.562  15.907   4.256 -0.2793 -0.0361  0.4305
26522W        W42656   9.171  13.019   1.114  0.3778 -0.3057  0.0289
26523W        W42657   9.824  10.119   4.720 -0.2837 -0.0873 -0.3227
26524W        W42658   3.954  13.079   0.795  0.1774 -0.0458 -0.0377
26525W        W42659   7.486   6.867   3.726  0.1226 -0.2865  0.1047
26526W        W42660   4.000  14.898   2.939  0.1236  0.0669  0.1805
26527W        W42661  18.552  16.571   6.077  0.0980  0.1512  0.0203
26528W        W42662   3.921  18.092   2.888 -0.2019 -0.1823 -0.0161
26529W        W42663   7.731  10.821   2.306 -0.1755 -0.2602 -0.0799
26530W        W42664   0.377   7.022   0.177 -0.0742  0.2379  0.0031
26531W        W42665   0.277  12.821   4.643 -0.0288 -0.0430 -0.1271
26532W        W42666   5.532   1.384  15.166  0.0586  0.3343  0.0135
26533W        W42667   0.817   9.667   3.777  0.0284 -0.1177 -0.2672
26534W        W42668  10.169   0.029  11.260  0.1174  0.0859 -0.0517
26535W        W42669  11.091   2.254   4.175 -0.1242  0.0306 -0.1644
26536W        W42670   4.544  16.752   0.955  0.0141 -0.0852 -0.1167
26537W        W42671  10.903   9.282  14.945 -0.0295 -0.0540 -0.1164
26538W        W42672  17.299   7.240  11.423 -0.1698 -0.0936  0.0634
26539W        W42673   1.080   8.629  13.757 -0.2348  0.0123 -0.0127
26540W        W42674  10.262   3.907  12.681  0.1397  0.0033  0.0128
26541W        W42675  13.053   1.626  11.328 -0.0677  0.1579  0.2156
26542W        W42676  10.479  17.207  14.932 -0.2886  0.2243 -0.4331
26543W        W42677  16.811   0.180   4.256  0.0838  0.2744 -0.1111
26544W        W42678  11.141  10.020   4.933 -0.2991 -0.1654 -0.0953
26545W        W42679   2.033   7.912   2.527 -0.0916  0.1563 -0.1859
26546W        W42680   5.075  14.834  13.963 -0.0425 -0.1278  0.0970
26547W        W42681   0.454   3.920  11.942  0.2169  0.3012  0.0783
26548W        W42682   2.993  14.253  14.244 -0.1363 -0.1896 -0.0119
26549W        W42683   4.537  10.723  11.418  0.4496 -0.2751 -0.0160
26550W        W42684   3.048  15.170  11.389  0.2702 -0.0529 -0.1388
26551W        W42685   2.240  18.683   0.141 -0.0692 -0.2660  0.0230
26552W        W42686  13.000   3.671  14.951  0.3163 -0.1006 -0.2021
26553W        W42687   8.925  11.359  12.330  0.1398 -0.0262  0.1120
26554W        W42688  18.472  14.434   0.110  0.0548 -0.0811  0.0869
26555W        W42689  10.778   5.262  12.583 -0.0406  0.1094 -0.2066
26556W        W42690  13.300  11.575  14.291  0.1622 -0.0379  0.0324
26557W        W42691  10.112   7.416   0.232  0.0739  0.0325 -0.0414
26558W        W42692   6.476   3.040   0.873  0.2024 -0.2026  0.0736
26559W        W42693   0.407   7.203   4.881 -0.4235 -0.2435  0.1111
26560W        W42694   5.456   3.169   2.961 -0.2466 -0.2307 -0.0904
26561W        W42695   9.718  14.269   3.555  0.4699  0.1559 -0.3451
26562W        W42696  11.214   4.474  14.673 -0.0288  0.0657  0.1559
26563W        W42697  12.159   9.219  14.008  0.0611  0.0291 -0.1090
26564W        W42698  10.534   8.407  13.195  0.0903  0.1183  0.0795
26565W        W42699   0.973  14.425   1.232 -0.0748 -0.1102 -0.3350
26566W        W42700   2.173  10.041   3.170  0.1537 -0.1182 -0.0499
26567W        W42701  11.650   7.741  11.831  0.1091  0.3401 -0.0282
26568W        W42702   6.597   6.691  14.452  0.0935 -0.1557 -0.0088
26569W        W42703  15.584  17.587  14.661 -0.1969  0.0906  0.2764
26570W        W42704  11.477   2.763   4.586  0.2051  0.2180  0.3195
26571W        W42705  13.838  14.836  13.998  0.0303  0.1842 -0.1715
26572W        W42706   6.378   9.264   1.607  0.2166  0.1143  0.2972
26573W        W42707   8.766  10.349   4.451  0.0473  0.1531 -0.4349
26574W        W42708   2.458  18.073  12.604  0.1127 -0.1875  0.2161
26575W        W42709  11.849   9.197  12.288  0.2577 -0.3194  0.1523
26576W        W42710  16.177   0.957   3.396  0.1217 -0.0371  0.0439
26577W        W42711   0.863   2.657  14.007  0.0692 -0.1027  0.1968
26578W        W42712   1.478   9.270   4.824  0.1080 -0.2498  0.2703
26579W        W42713   4.925  14.235  11.072  0.3718 -0.2777 -0.1196
26580W        W42714   8.032  12.778   4.054 -0.2758  0.2194  0.1084
26581W        W42715  11.052  13.899   2.451 -0.0795 -0.1223 -0.2136
26582W        W42716   1.018   2.788   5.871 -0.0599 -0.3207  0.0446
26583W        W42717   5.095  14.202   0.719 -0.2321 -0.0827 -0.0310
26584W        W42718  13.540   2.347  11.431  0.0753 -0.0162  0.3806
26585W        W42719  15.016  17.665  15.519 -0.0358  0.5294  0.0501
26586W        W42720   5.711   6.379  14.011  0.0686  0.0445 -0.2222
26587W        W42721  10.216  15.995  14.494  0.0626  0.0249  0.3024
26588W        W42722  14.935   8.266  13.903  0.0743 -0.0726  0.1733
26589W        W42723  15.926  12.477   3.241 -0.1764  0.0969  0.3159
26590W        W42724   7.310  12.275  14.125 -0.2683  0.2478 -0.0081
26591W        W42725   2.978   8.059  14.694 -0.0599 -0.1115 -0.0893
26592W        W42726   0.277   0.828   4.433 -0.2054  0.2350 -0.1571
26593W        W42727  17.829  14.077  12.975 -0.0575 -0.2595 -0.1148
26594W        W42728  12.774  11.705  15.200 -0.1979  0.0058 -0.0240
26595W        W42729   5.091  11.168  13.032 -0.2806  0.3352 -0.1905
26596W        W42730   7.383  10.057   0.986  0.5969 -0.3136 -0.0050
26597W        W42731   2.093   4.336  14.049 -0.0420 -0.1298 -0.0081
26598W        W42732   6.467   2.501  12.459  0.0743  0.0419 -0.2600
26599W        W42733   0.655  10.242  14.898  0.2010 -0.4742  0.0219
26600W        W42734   2.636   2.992   2.556 -0.2208  0.0959 -0.1243
26601W        W42735   7.213   1.702  11.603 -0.1728  0.1195  0.1008
26602W        W42736  13.111  13.229  14.993  0.0369 -0.1981 -0.1652
26603W        W42737   0.727   9.750  14.735  0.0761  0.4637 -0.1900
26604W        W42738  16.259  16.690   0.633 -0.1431 -0.2241 -0.0106
26605W        W42739   7.346  18.317  11.843 -0.1259  0.1163 -0.2372
26606W        W42740   9.629  12.837   2.014  0.2328 -0.0506  0.5433
26607W        W42741  13.937   6.556   4.181 -0.1269  0.1067  0.4035
26608W        W42742  15.070   6.986   4.170 -0.0298 -0.0133 -0.3468
26609W        W42743  14.972  15.097   3.471  0.1373  0.0280  0.0384
26610W        W42744   7.472   7.092   2.526 -0.1636  0.1350 -0.3569
26611W        W42745  17.050  14.496   1.748  0.1681 -0.0076  0.0381
26612W        W42746   6.807   8.427  11.585  0.2840 -0.2246  0.4083
26613W        W42747  16.561  16.397   4.519 -0.1379 -0.1145 -0.1743
26614W        W42748   0.216  13.593   0.193  0.0933 -0.0374 -0.4509
26615W        W42749  17.111   3.003   1.936 -0.1378 -0.1096  0.2247
26616W        W42750   5.117  17.978   4.085 -0.0828 -0.2401  0.2035
26617W        W42751   8.680  12.562  15.327  0.2137  0.0606  0.1204
26618W        W42752  17.921   9.006  12.131 -0.2025 -0.3616 -0.0866
26619W        W42753   2.264  12.845   4.038 -0.2923 -0.1031 -0.1143
26620W        W42754   5.424   9.491   6.390 -0.0816  0.4781  0.1642
26621W        W42755   5.773   3.260   4.486 -0.1232 -0.0469 -0.1837
26622W        W42756  11.659  15.299  10.315  0.2485  0.0771 -0.0601
26623W        W42757   9.097   7.911  14.257  0.0173 -0.1377  0.1612
26624W        W42758   8.322   5.103   3.803 -0.1070  0.1371  0.6028
26625W        W42759   8.936  15.217  13.547 -0.0849 -0.0285  0.0445
26626W        W42760   6.819  18.457  11.014 -0.2290  0.1141 -0.0838
26627W        W42761  18.409  18.556  12.258  0.1441 -0.0810  0.1605
26628W        W42762   3.769  10.075  13.684  0.3615 -0.1489  0.2916
26629W        W42763  15.792  17.877   0.415 -0.2220 -0.0681  0.2455
26630W        W42764  14.781  10.865  14.429  0.5557 -0.1197 -0.0851
26631W        W42765   3.302  12.781   2.422  0.0080 -0.1947 -0.2524
26632W        W42766  11.102   2.066  11.645 -0.2016  0.2002 -0.1795
26633W        W42767   7.729  11.469  12.633 -0.0979 -0.3360 -0.2575
26634W        W42768  13.018  18.708   2.860  0.2337  0.0571 -0.1599
26635W        W42769   2.254   6.619   0.020 -0.0981  0.2494 -0.0291
26636W        W42770  15.048   9.244   1.512  0.0082 -0.2144 -0.2019
26637W        W42771   1.976  10.068   5.187  0.0543  0.4106  0.2221
26638W        W42772   6.449   8.277   1.079  0.0114 -0.0773  0.2815
26639W        W42773  15.343   2.514   5.033  0.4370 -0.2137 -0.1497
26640W        W42774  15.459  13.377   2.132 -0.0027 -0.1470 -0.0430
26641W        W42775   8.917   2.128   5.219  0.0431  0.0275  0.0158
26642W        W42776  17.759   8.247   4.503  0.0743 -0.1208 -0.2549
26643W        W42777   7.451   6.153   0.256 -0.1197  0.0126  0.1156
26644W        W42778  15.270  14.381   5.258  0.0693 -0.0004  0.2152
26645W        W42779   6.055  15.249  11.878  0.1193  0.1032 -0.3748
26646W        W42780  13.792  12.721  15.174 -0.1056 -0.1067  0.2248
26647W        W42781  14.978  12.375   1.326  0.2643 -0.0209 -0.0282
26648W        W42782   0.074   6.878   2.704 -0.0919 -0.1840 -0.0549
26649W        W42783  14.327   9.716   2.522  0.0604 -0.0686  0.1074
26650W        W42784  14.706   4.192  11.422  0.6249  0.3132 -0.1506
26651W        W42785  11.680  13.615   3.113 -0.1318  0.3182 -0.1312
26652W        W42786   7.315  13.230   0.086 -0.1099 -0.1008  0.0591
26653W        W42787   9.429  16.180   3.238  0.2066 -0.0515 -0.0439
26654W        W42788   7.935  10.573   0.354 -0.2684  0.1431  0.0773
26655W        W42789  10.082   2.373   3.298  0.0172 -0.0183  0.2980
26656W        W42790   4.841  11.746  14.055 -0.1056  0.4036  0.2362
26657W        W42791  16.568  16.982   0.926 -0.0731  0.1375 -0.0237
26658W        W42792  17.491   6.807  14.892 -0.1362  0.1817  0.3490
26659W        W42793  11.141   8.326   0.576  0.3192 -0.1437  0.1655
26660W        W42794  13.836   7.293  12.184  0.0018  0.0864 -0.0573
26661W        W42795   5.667   6.694   2.923  0.4197 -0.0125  0.2653
26662W        W42796  15.807  17.734  10.002  0.0099 -0.0107 -0.0122
26663W        W42797   5.465  15.538   5.259 -0.1465 -0.1512  0.1558
26664W        W42798  17.293   2.108  13.574  0.1502  0.1953  0.0132
26665W        W42799  15.799  14.433   0.662  0.0490 -0.1275 -0.1990
26666W        W42800   7.821  17.135   1.279 -0.2560  0.0899  0.0355
26667W        W42801  11.783   6.723  14.115  0.1476  0.1648  0.0218
26668W        W42802   1.466  14.322   1.653  0.3310 -0.1909 -0.0400
26669W        W42803   2.481   6.930   0.867  0.2569 -0.0010  0.0164
26670W        W42804  15.851  17.490   0.695 -0.2395 -0.0356 -0.0567
26671W        W42805   6.927   1.611   2.809 -0.0942  0.0602  0.3515
26672W        W42806   9.298  17.272  11.799 -0.0675 -0.3958 -0.2503
26673W        W42807  11.971   7.179   3.801  0.4064  0.3712 -0.2005
26674W        W42808   7.433   2.041   5.663  0.1395 -0.1865 -0.0983
26675W        W42809   0.203  14.116   2.657 -0.0327  0.1352  0.1500
26676W        W42810   5.755   2.339   5.193 -0.1127  0.1816 -0.0141
26677W        W42811  11.592  11.886  11.586 -0.0256  0.2230 -0.1618
26678W        W42812  16.427   0.305   5.181 -0.0254  0.0013 -0.0750
26679W        W42813   6.476   7.102  13.607 -0.1276  0.0495 -0.0466
26680W        W42814  12.014   3.685   5.050  0.1052 -0.2604  0.1867
26681W        W42815   1.137   9.847   0.967  0.0863 -0.2052  0.0687
26682W        W42816   5.738   6.730   2.461  0.0179  0.0735 -0.0139
26683W        W42817   9.861  16.829  13.127  0.1399 -0.1806  0.3296
26684W        W42818  13.430  10.401   2.023  0.0900  0.0599 -0.0233
26685W        W42819  17.048   2.149   3.155 -0.1296  0.0455  0.1109
26686W        W42820   1.960   9.370   0.813 -0.3530 -0.3248  0.2652
26687W        W42821   8.340   1.425  15.087 -0.0797 -0.3236 -0.0106
26688W        W42822  12.066   4.539   0.652 -0.0758  0.0493  0.0443
26689W        W42823   7.531  10.569   1.075  0.1681 -0.0907 -0.3135
26690W        W42824   0.991   7.728   1.323 -0.0469  0.2221 -0.1702
26691W        W42825   4.135   5.469  14.492  0.0686 -0.1378 -0.0149
26692W        W42826  14.026   5.344   2.287 -0.0656  0.0290 -0.3279
26693W        W42827  12.815  18.113   2.279 -0.4548  0.2313 -0.1019
26694W        W42828   5.245   2.668   1.437 -0.0658 -0.0320 -0.3334
26695W        W42829  10.612   7.332  11.374  0.2122  0.1319  0.1623
26696W        W42830   8.979  16.244  14.190 -0.2087  0.3552  0.3149
26697W        W42831  17.710  16.747  15.366 -0.0750 -0.3614 -0.1122
26698W        W42832  14.248   6.608  11.726 -0.1252  0.1066  0.1305
26699W        W42833   7.181  10.767   4.947  0.0302 -0.1260  0.0575
26700W        W42834  18.526  11.248  14.371 -0.2990 -0.3599  0.1633
26701W        W42835  14.336   0.805   2.728 -0.1326  0.3590 -0.1082
26702W        W42836  15.994   4.731  11.766 -0.1268 -0.1136 -0.0653
26703W        W42837  18.297   9.231  15.334  0.0442 -0.0196  0.0869
26704W        W42838  15.263   1.803  15.516 -0.1607 -0.1603 -0.1416
26705W        W42839  15.316  14.526  12.160  0.0176  0.0433  0.2469
26706W        W42840   5.233   0.769   0.493 -0.0479 -0.0786 -0.1956
26707W        W42841  13.905  17.557   2.017  0.2197  0.0820 -0.2830
26708W        W42842   7.200  10.001   2.554 -0.0121 -0.0338 -0.3146
26709W        W42843   7.793  18.024  11.560 -0.1179 -0.3504  0.1877
26710W        W42844   4.167  12.878  12.758 -0.0295 -0.1432  0.0220
26711W        W42845  11.924   6.756   1.031  0.2879 -0.0567  0.4254
26712W        W42846   0.905  16.846   4.689 -0.0005  0.2249 -0.2030
26713W        W42847  18.085  18.273  12.525 -0.1076 -0.0906 -0.0721
26714W        W42848   5.412  13.649  12.862 -0.4931 -0.0532  0.0798
26715W        W42849   7.881  12.441   1.723 -0.2709 -0.1227 -0.1246
26716W        W42850   3.775  10.365   4.675  0.1703 -0.2833  0.2532
26717W        W42851  10.823  17.309  11.697 -0.0985 -0.4033  0.1129
26718W        W42852   9.319   1.918   0.572 -0.3438 -0.1047  0.1947
26719W        W42853  15.187   5.147   4.967 -0.1260  0.0862  0.0642
26720W        W42854  16.987   6.488   2.906 -0.1256  0.2725  0.2902
26721W        W42855   9.664   5.634   5.900 -0.2983 -0.1049  0.0028
26722W        W42856  10.819   2.022   3.838  0.1264 -0.0229  0.0250
26723W        W42857   5.938   4.186  14.042  0.0115  0.0988 -0.0929
26724W        W42858   5.915  17.871  13.895  0.1323 -0.0817 -0.3637
26725W        W42859  11.259  16.061  13.215  0.4322 -0.0927 -0.1686
26726W        W42860   9.496  14.569  14.591 -0.1377 -0.0220  0.1550
26727W        W42861  15.320   9.739  14.837  0.2214 -0.0023 -0.2650
26728W        W42862  14.033   2.200  14.254  0.1087  0.2361 -0.1933
26729W        W42863  18.255   8.193   0.755 -0.1045 -0.1353 -0.2970
26730W        W42864  17.349   8.127   0.857  0.2120 -0.1760  0.2049
26731W        W42865   4.635  17.957   4.847 -0.2252 -0.0151  0.2110
26732W        W42866   7.250   1.351  11.095 -0.1275 -0.0792 -0.2762
26733W        W42867  13.582   2.678  12.616  0.0136  0.2398  0.1836
26734W        W42868   9.211   7.763  13.643 -0.2154 -0.0666  0.0983
26735W        W42869   6.518  16.112  13.648 -0.1811 -0.1191 -0.0171
26736W        W42870   2.456  13.517  15.410  0.2028  0.1738 -0.4379
26737W        W42871  12.420   2.520   1.580  0.0107 -0.3234  0.1478
26738W        W42872  11.832  11.937  12.175 -0.0181  0.2401  0.0632
26739W        W42873   9.056  10.633  13.786 -0.3006  0.0753  0.0403
26740W        W42874  14.891   8.798  15.059  0.0952 -0.0897  0.0860
26741W        W42875  15.730   5.339   3.772 -0.1615  0.1564 -0.2498
26742W        W42876   5.460  10.709   4.203 -0.0861  0.1730 -0.0687
26743W        W42877   1.298   2.588  15.360  0.0449  0.1134  0.0883
26744W        W42878  10.012  18.684   4.663 -0.0253  0.1864 -0.0535
26745W        W42879   2.100   4.056   1.124  0.1051 -0.0777  0.2684
26746W        W42880  11.281  11.814   4.193  0.0512  0.0962  0.0378
26747W        W42881   1.666  13.477   1.265 -0.1996  0.1307  0.0411
26748W        W42882  11.368   9.015   2.765 -0.2756  0.1412  0.0423
26749W        W42883   7.583   3.597  13.735 -0.0360 -0.1284 -0.0025
26750W        W42884   7.159   7.997   2.471  0.2014  0.1651 -0.0323
26751W        W42885   0.611  15.125   4.186 -0.1623 -0.0903  0.0412
26752W        W42886   1.779   3.279   2.170  0.0834 -0.3507 -0.1144
26753W        W42887   3.902   1.357  11.107  0.1127  0.1113  0.1761
26754W        W42888   5.189   0.694   5.699 -0.2570 -0.2245 -0.1478
26755W        W42889   7.097   4.887   4.683 -0.0677  0.0524  0.0099
26756W        W42890   0.725  10.011  12.086 -0.1686 -0.0332  0.0549
26757W        W42891  12.588   7.987  11.366 -0.0116 -0.4228 -0.0420
26758W        W42892  13.961   7.717  15.150 -0.1099 -0.1203  0.1579
26759W        W42893  11.138  10.517   0.950  0.0445 -0.0961 -0.2581
26760W        W42894  17.719  13.243  11.831 -0.4745 -0.2051  0.2045
26761W        W42895  11.847   5.072   4.415  0.0772 -0.2682  0.0888
26762W        W42896   1.231   4.534   2.335 -0.0438 -0.0409 -0.0408
26763W        W42897   4.342   9.118   4.601  0.0290  0.0865  0.0539
26764W        W42898   8.273   7.101   3.360  0.0752 -0.2234  0.2844
26765W        W42899  15.941  13.222   2.873  0.0614  0.2644  0.1823
26766W        W42900   1.647   4.552   4.657 -0.1955  0.1114 -0.0948
26767W        W42901   6.858   1.471  11.383  0.0506 -0.2423 -0.1266
26768W        W42902  17.803   4.342   0.650 -0.0266 -0.1839 -0.0745
26769W        W42903   8.993   3.704   2.127  0.0333 -0.2244  0.1687
26770W        W42904  17.506   9.692   5.634 -0.0656 -0.2635  0.1325
26771W        W42905  10.363   2.026   3.530 -0.1767  0.0714  0.0862
26772W        W42906   0.104   1.518   3.344 -0.2314 -0.1004 -0.0008
26773W        W42907   6.925  14.547   2.805 -0.3274 -0.0227 -0.0887
26774W        W42908   1.313  14.788  15.315  0.3209  0.0435  0.0693
26775W        W42909  15.247  14.245   4.296  0.3203  0.1545 -0.1817
26776W        W42910  13.418   3.451  14.316  0.0238  0.1035  0.1486
26777W        W42911   9.353  12.326   2.331  0.2407  0.0844  0.1696
26778W        W42912   6.765   9.123  15.563 -0.1976  0.1674  0.1211
26779W        W42913   3.363   5.339  13.914 -0.2052 -0.1703 -0.0945
26780W        W42914   3.818   1.901   3.806  0.1191 -0.0903  0.0170
26781W        W42915   2.382   7.430   3.763 -0.1484  0.0849  0.1674
26782W        W42916  11.051   0.408   1.485  0.1084 -0.2586 -0.0347
26783W        W42917  14.478   6.586  14.069 -0.1452 -0.0712  0.2536
26784W        W42918  12.738   4.631  14.111 -0.2329 -0.5292 -0.0162
26785W        W42919   0.246   2.041   1.654 -0.0239 -0.1142  0.2464
26786W        W42920   1.657   5.805   3.182 -0.0413 -0.0957 -0.1335
26787W        W42921   6.523   5.481   5.338 -0.0246  0.0329  0.0146
26788W        W42922  13.810  17.538   5.706  0.0698  0.1089  0.3638
26789W        W42923   1.298  15.670   3.859 -0.1159 -0.1587  0.1549
26790W        W42924   9.020   2.237   0.932  0.1359  0.0211 -0.0814
26791W        W42925   1.638   3.623   0.805 -0.1310 -0.1779  0.0199
26792W        W42926   2.191  13.829  14.030  0.3295 -0.2093 -0.1191
26793W        W42927  18.303   2.225   5.412 -0.2970 -0.2005  0.0233
26794W        W42928   6.306   4.922   3.983  0.1250  0.1967 -0.1463
26795W        W42929  14.042   8.425  14.382  0.1008 -0.1368  0.1667
26796W        W42930   8.165  10.882   1.623  0.2326 -0.2708 -0.0665
26797W        W42931  18.172  18.035  10.321 -0.2081  0.0189  0.0219
26798W        W42932  14.931  18.629  14.052 -0.2354 -0.1743 -0.1036
26799W        W42933  10.982   0.507   4.071 -0.3101 -0.0111 -0.2883
26800W        W42934  13.257  15.463   0.031 -0.2615  0.1769 -0.0397
26801W        W42935  17.321  15.483  11.208 -0.0684 -0.1609  0.0321
26802W        W42936   5.221   6.642  13.977 -0.0684 -0.0723 -0.2024
26803W        W42937  14.434   4.494   5.061 -0.0483  0.1563 -0.0759
26804W        W42938   1.833   9.425  15.082  0.0001 -0.4520  0.0233
26805W        W42939  12.466   2.811   2.001  0.1363  0.1177  0.0836
26806W        W42940   4.071  13.174   4.362  0.0263  0.0064 -0.1306
26807W        W42941  17.656   1.208   2.757  0.1080  0.0156  0.0621
26808W        W42942   5.246   4.801   1.175  0.2607  0.0044  0.2955
26809W        W42943   0.480   4.319   4.884 -0.0119  0.0608  0.0368
26810W        W42944   3.697  13.226  14.320 -0.2030  0.0283  0.2281
26811W        W42945   5.073  11.996  12.159  0.0597  0.0951 -0.1543
26812W        W42946  14.707  11.758  11.099 -0.0198  0.2798 -0.0189
26813W        W42947   7.782   2.071   2.755  0.0502  0.1913  0.3761
26814W        W42948  16.494  12.177  14.851 -0.1753 -0.0452  0.0648
26815W        W42949   8.180  16.306   1.876 -0.4093 -0.1194 -0.1796
26816W        W42950  11.420   1.232  12.746  0.1697  0.0834  0.0608
26817W        W42951  17.621  13.755  11.102 -0.1249  0.1295 -0.2217
26818W        W42952   0.704  13.574   0.145  0.2453  0.1788  0.0250
26819W        W42953  12.040  12.883   3.593 -0.1990  0.1938  0.0035
26820W        W42954   0.539  11.465  10.767  0.1100  0.1386 -0.3269
26821W        W42955  18.397   0.308  14.251 -0.0032 -0.0815  0.3261
26822W        W42956   0.456   4.830   0.853 -0.3761 -0.1233 -0.0596
26823W        W42957   1.877   5.029   2.098 -0.0211 -0.0143 -0.2395
26824W        W42958  12.147   0.578  15.422  0.0820  0.0724 -0.1162
26825W        W42959   7.293   2.762  10.717 -0.2343 -0.0771  0.1858
26826W        W42960   3.083  10.643   2.262  0.1845  0.1090 -0.2846
26827W        W42961  16.685  17.228  11.917 -0.3221  0.0346 -0.0244
26828W        W42962  13.024   7.298   5.715  0.0414 -0.0181 -0.2616
26829W        W42963   7.269  14.645  14.080 -0.1757 -0.1342  0.0042
26830W        W42964  12.496   8.868   0.240  0.1799  0.0159 -0.0821
26831W        W42965  18.052  15.965   1.972 -0.0399  0.3240 -0.1619
26832W        W42966  10.303  14.502   3.452 -0.0617  0.0165 -0.2292
26833W        W42967   1.804   6.666  12.973  0.2340  0.4272 -0.0666
26834W        W42968   5.172   7.072  15.388 -0.1103  0.1668  0.3224
26835W        W42969  18.351  14.383   1.440 -0.0117  0.2039  0.0083
26836W        W42970  10.324  11.147  12.677 -0.3378 -0.1612  0.0418
26837W        W42971   1.783  17.042  13.603 -0.0667 -0.0037 -0.2571
26838W        W42972  15.029  11.646   5.568  0.1647 -0.1279 -0.0830
26839W        W42973   5.004   8.245   1.569  0.3024 -0.1510 -0.0751
26840W        W42974  15.924  16.357   0.991 -0.1569 -0.5325 -0.1021
26841W        W42975  10.739  14.031  10.836  0.1657  0.1810  0.1198
26842W        W42976  10.861  13.599  12.906 -0.3222  0.1392  0.0517
26843W        W42977  17.903   6.080  11.435  0.1883  0.3384  0.1096
26844W        W42978  14.341   0.835  14.586 -0.0488 -0.0475 -0.1620
26845W        W42979  12.118   2.066  11.635 -0.2005 -0.0697  0.0228
26846W        W42980  12.363   3.990   2.613  0.0168  0.2457 -0.1410
26847W        W42981   5.800   5.337  11.316 -0.0722  0.6068  0.1490
26848W        W42982   1.210   2.293  14.881 -0.0319  0.1141  0.1016
26849W        W42983  11.191  12.610  14.348  0.0365 -0.0150 -0.1204
26850W        W42984   2.357  14.099  15.100 -0.0261 -0.1595  0.1989
26851W        W42985  12.424  18.217   5.201  0.0188  0.1647 -0.0154
26852W        W42986  17.360   6.932  13.091 -0.1701  0.1343  0.1645
26853W        W42987  13.840   4.169   5.986 -0.2619  0.1123 -0.1318
26854W        W42988  13.527   1.776  13.494 -0.0113 -0.1014 -0.0672
26855W        W42989   2.585  15.866   1.146 -0.0338 -0.1531 -0.2757
26856W        W42990  10.620  11.337  13.604 -0.1658 -0.2560 -0.1290
26857W        W42991  13.336  11.968   2.279 -0.0261 -0.0520  0.0163
26858W        W42992  14.261   4.631   1.313 -0.1362  0.2053  0.0339
26859W        W42993   0.263   7.956  15.285 -0.0149 -0.0675  0.2281
26860W        W42994   9.548  11.888   2.223  0.3506  0.1665 -0.0027
26861W        W42995  18.040  17.982   2.788 -0.1287 -0.0367  0.1533
26862W        W42996   4.821   4.235   0.616  0.1984 -0.1283 -0.1188
26863W        W42997  17.247   6.496  11.366  0.0861 -0.1481  0.1382
26864W        W42998   3.321  15.996  12.883  0.0181  0.3072  0.2023
26865W        W42999   2.004  14.324   5.091 -0.0177 -0.1516 -0.3313
26866W        W43000   5.087   9.177   1.329 -0.1240  0.0275 -0.1540
26867W        W43001   8.721   2.808   0.495 -0.2364 -0.1405 -0.1210
26868W        W43002  14.332  17.131   3.766 -0.2844  0.1058  0.0166
26869W        W43003   8.442  13.250   0.529  0.0089 -0.2065  0.1390
26870W        W43004   2.146   0.219   4.977  0.1067  0.0678 -0.0017
26871W        W43005  17.521   8.355  12.589 -0.2157  0.0420  0.1168
26872W        W43006   0.843  13.825   0.754 -0.1549 -0.1268  0.4629
26873W        W43007   4.934  12.721   5.569  0.1292 -0.2095  0.1545
26874W        W43008   6.824  11.554   4.510  0.1746  0.0522 -0.1227
26875W        W43009   6.492   4.195   3.248  0.0066 -0.1118 -0.2750
26876W        W43010   7.744  13.783   1.803 -0.0529  0.1867  0.1966
26877W        W43011   2.267   9.535  11.567 -0.2491 -0.0560 -0.2013
26878W        W43012   0.400   0.547  15.402 -0.2445 -0.1345  0.0242
26879W        W43013   4.394  11.169   2.049  0.1965  0.0514  0.2450
26880W        W43014   6.340  10.108   4.231 -0.2349 -0.2293 -0.0553
26881W        W43015   0.468  13.679   2.266 -0.0520 -0.3484  0.0376
26882W        W43016   3.609  10.946   5.224  0.2040 -0.0305 -0.2059
26883W        W43017  10.825  12.266   1.186 -0.1310  0.1091 -0.0441
26884W        W43018   4.658  17.343  14.584 -0.0303  0.1630 -0.1603
26885W        W43019   5.933  13.714  14.830  0.4695  0.2761  0.6086
26886W        W43020   7.334   9.621   2.314  0.1230 -0.1431 -0.1293
26887W        W43021   5.492  15.168   2.024  0.0707 -0.0721  0.3964
26888W        W43022   8.201   5.469   1.571 -0.1459 -0.2584 -0.0499
26889W        W43023  17.830   7.526  12.602  0.2178  0.2967 -0.2543
26890W        W43024   7.334   3.156  12.930 -0.1101  0.2993 -0.3212
26891W        W43025  11.601  15.422   0.486 -0.3020 -0.0203  0.0714
26892W        W43026   5.315  12.565   4.598  0.1446  0.0039  0.2422
26893W        W43027   2.171   0.131  15.220 -0.3899  0.0498  0.1453
26894W        W43028   7.126   3.061  15.228 -0.2461 -0.1008  0.2715
26895W        W43029   6.080   7.033   1.977  0.2527 -0.1995  0.0376
26896W        W43030  15.707   3.258  12.772  0.2067  0.2945 -0.4426
26897W        W43031   7.146  11.592   0.048 -0.2790 -0.2384 -0.0521
26898W        W43032   1.150  14.358  13.938 -0.1436 -0.2107  0.2385
26899W        W43033   3.172  14.945   4.729  0.1010  0.0785  0.1150
26900W        W43034   9.242   7.405   2.545 -0.0914  0.1583 -0.4383
26901W        W43035  11.894   3.172   2.950  0.3124  0.2934 -0.3801
26902W        W43036  11.838  17.606   5.810 -0.2984 -0.1700 -0.1164
26903W        W43037   5.273   2.952   2.314 -0.1190 -0.0836 -0.0999
26904W        W43038  17.684   3.867  12.063 -0.2034 -0.0741 -0.0565
26905W        W43039   8.045   3.001  14.639 -0.2942 -0.2521 -0.0337
26906W        W43040   4.568   9.733   1.622  0.0714 -0.0791  0.0293
26907W        W43041  12.154   3.577   2.769 -0.3814  0.0033  0.0523
26908W        W43042  17.283  10.545  12.491 -0.2115 -0.1930  0.0694
26909W        W43043  12.461   0.601   1.755 -0.2197  0.0428  0.0574
26910W        W43044  15.538  10.904  13.965  0.0316  0.0205 -0.0081
26911W        W43045  15.055   0.572   4.752  0.0279 -0.2783  0.1064
26912W        W43046   1.255   0.091   0.062  0.1493 -0.0077 -0.0874
26913W        W43047   1.785   4.088  11.037  0.1136  0.2094 -0.1242
26914W        W43048   0.945  12.925   2.317  0.4095  0.0512  0.0201
26915W        W43049   5.661   5.954   0.317 -0.2441 -0.0977 -0.0845
26916W        W43050  12.421   6.747   5.864  0.2280  0.3549 -0.3283
26917W        W43051   9.085  10.852   0.610 -0.0081 -0.2500  0.1648
26918W        W43052   1.299   2.759   0.276 -0.1102  0.2827 -0.1425
26919W        W43053   0.908   0.771  13.696  0.1202  0.0683 -0.0251
26920W        W43054   9.926  14.489  14.212  0.0288  0.2138  0.1188
26921W        W43055   8.096   2.431   2.932  0.0297 -0.0301  0.0668
26922W        W43056  13.899   1.275  14.002 -0.1677  0.4300 -0.1566
26923W        W43057   1.771   3.054  14.220 -0.1040 -0.1137 -0.0072
26924W        W43058  12.554  17.427   2.834  0.0530 -0.1944 -0.0769
26925W        W43059   3.965   9.947   4.471 -0.0517 -0.0009 -0.2289
26926W        W43060   7.782  12.003   3.628  0.0155  0.3286 -0.3122
26927W        W43061   5.768   7.141   1.232  0.0003  0.2013 -0.3644
26928W        W43062  10.093   0.914  14.881 -0.3058 -0.3034  0.2513
26929W        W43063  18.154   8.542  14.181 -0.0030 -0.0225  0.0280
26930W        W43064   6.104   4.515   2.575  0.1163  0.0930 -0.4650
26931W        W43065   4.945  17.066   4.086  0.4448 -0.1540  0.2034
26932W        W43066  12.064  16.319   3.036 -0.4459 -0.0252  0.0868
26933W        W43067   9.630   2.884   1.315  0.2757  0.2802 -0.1403
26934W        W43068  13.042   7.201  13.804 -0.0596  0.1584  0.0492
26935W        W43069  11.860   6.329   3.385 -0.1512  0.1970 -0.0025
26936W        W43070   6.463   2.180   1.486  0.1472 -0.2395 -0.0742
26937W        W43071  15.740  18.279   0.100 -0.0723 -0.2868 -0.3810
26938W        W43072   4.506   5.299   3.403  0.1330  0.0402  0.1837
26939W        W43073  10.870  17.591  12.493  0.2223 -0.1363  0.6504
26940W        W43074   1.022   2.855  15.026 -0.2604 -0.0472 -0.3995
26941W        W43075  17.785  11.910  12.307 -0.0580  0.1229  0.3266
26942W        W43076   3.534  15.390   4.832  0.0547 -0.1729 -0.1058
26943W        W43077   4.104   5.405  15.347  0.1565 -0.0156 -0.0288
26944W        W43078   9.836   6.494   2.298 -0.1000 -0.1506  0.0096
26945W        W43079   9.638   3.227   4.578 -0.1858 -0.1380  0.0130
26946W        W43080  17.660   8.294   1.394  0.0662 -0.0572  0.1260
26947W        W43081  10.217  17.133   1.878 -0.0895  0.1791 -0.1008
26948W        W43082  14.100  11.110   4.735 -0.0148  0.3075  0.0071
26949W        W43083  10.654  17.588  12.914  0.1491  0.6388 -0.1607
26950W        W43084   2.071   1.956   1.776  0.0832 -0.3045 -0.2138
26951W        W43085  17.210  10.258   4.733  0.0460 -0.0787 -0.1544
26952W        W43086  11.975   0.854  14.993  0.0382  0.1972  0.1970
26953W        W43087  14.387  18.053   1.310  0.2160  0.2633 -0.3041
26954W        W43088  17.973  11.545  13.151  0.1318 -0.0664  0.1667
26955W        W43089   0.091  16.175  13.572  0.0958 -0.4226  0.0418
26956W        W43090   7.349   9.154   3.258 -0.1746 -0.0579 -0.2123
26957W        W43091   8.690   4.312  15.003 -0.0299  0.0878  0.0781
26958W        W43092   4.771   6.181   2.269  0.0773  0.1057  0.2970
26959W        W43093   7.312   2.107   1.256 -0.0596  0.1707 -0.0170
26960W        W43094   1.621  16.057   0.528  0.0937  0.0945  0.3293
26961W        W43095   8.531  11.851  14.595  0.2504 -0.0750 -0.2305
26962W        W43096  16.056   6.793  15.213  0.3048  0.2452 -0.1396
26963W        W43097   5.131  12.639  14.848  0.1937 -0.1004  0.0332
26964W        W43098  11.765  11.776  13.199  0.0188 -0.0032 -0.1044
26965W        W43099   5.313   3.569  13.434  0.1746 -0.1044  0.2937
26966W        W43100  14.433   4.661   2.974  0.1773 -0.1690  0.2156
26967W        W43101  11.232   5.132   1.422  0.0072 -0.1230  0.2111
26968W        W43102  18.517   5.443   3.519 -0.1543  0.0057 -0.0995
26969W        W43103   3.245  14.267   2.738 -0.0378 -0.2075 -0.1950
26970W        W43104   8.390  14.666   0.346 -0.3169  0.0433  0.2183
26971W        W43105   2.204  14.283   4.619 -0.0520 -0.2609 -0.2161
26972W        W43106  11.839  16.829   0.568 -0.1202 -0.3527  0.1606
26973W        W43107   9.010  14.174   0.511  0.0083  0.1659  0.0071
26974W        W43108  13.165   5.822  11.273  0.3794 -0.1373 -0.1358
26975W        W43109  16.859  11.193   5.000 -0.1785 -0.1739  0.0773
26976W        W43110  15.447   4.530  13.943  0.0738  0.0333  0.2794
26977W        W43111  13.045   4.422  12.425  0.0198  0.2009  0.0954
26978W        W43112  11.950   5.177  10.447 -0.2197 -0.0512 -0.1416
26979W        W43113   2.745   7.079  12.665  0.0826  0.2388  0.2559
26980W        W43114   8.719   0.039   4.314  0.3397  0.2401 -0.2621
26981W        W43115   0.798   3.269  13.980  0.0895 -0.1634  0.0944
26982W        W43116   7.934  15.148  11.800 -0.4189  0.0301  0.3768
26983W        W43117  18.234  12.957   1.110 -0.1619  0.2044 -0.3145
26984W        W43118   5.188   1.922  13.105 -0.2877  0.4087  0.0970
26985W        W43119  13.862   4.850   2.123  0.1068 -0.0821 -0.0726
26986W        W43120   1.099  12.445  10.940  0.0062  0.0495  0.0285
26987W        W43121  13.259  14.324   9.995 -0.2141  0.0083 -0.2303
26988W        W43122  10.152  14.764  11.294 -0.1755 -0.3298  0.0000
26989W        W43123  17.550  18.674  11.980  0.2344  0.1369 -0.0147
26990W        W43124   5.306   0.989  13.427  0.0529  0.1190  0.1745
26991W        W43125   3.873  10.997  14.652 -0.0108 -0.0799  0.1209
26992W        W43126  15.520  16.895  13.295 -0.3083  0.2010  0.0596
26993W        W43127   3.886   8.861  11.060  0.3124 -0.0628 -0.0218
26994W        W43128  11.208   1.058  11.365 -0.1536 -0.0837  0.0892
26995W        W43129  10.060  11.669   4.324  0.2061  0.0727 -0.2417
26996W        W43130   7.880   0.734   5.065  0.0656 -0.0801 -0.1805
26997W        W43131   5.685  18.540   1.375  0.1125 -0.1833 -0.0599
26998W        W43132  13.552  15.589   3.598  0.0037 -0.0058 -0.1415
26999W        W43133   0.995   7.664  13.319 -0.2109 -0.1352  0.2170
27000W        W43134   8.312  11.151  10.867  0.2703  0.6306  0.0988
27001W        W43135   0.884   0.572   5.576  0.0205  0.0583  0.1737
27002W        W43136  10.909  14.139  15.336 -0.2082  0.1020 -0.0265
27003W        W43137   4.238   3.759  11.099 -0.0085 -0.0451  0.0462
27004W        W43138   9.738   3.297  12.607 -0.0189  0.0999 -0.1386
27005W        W43139  13.515  15.174   0.913 -0.0314 -0.0409  0.0139
27006W        W43140  10.493  18.461  13.085 -0.0886  0.0317  0.1216
27007W        W43141  14.696   0.485  11.259  0.0291 -0.0400 -0.1454
27008W        W43142  12.487  10.757   2.004  0.2352 -0.1513  0.3336
27009W        W43143  16.634   4.509  12.639  0.1407  0.1458  0.1724
27010W        W43144  15.137   5.807   2.442  0.0152  0.0967  0.0574
27011W        W43145   5.271  15.001   0.548  0.0743  0.1309  0.1144
27012W        W43146   9.173  16.439   1.613  0.0637  0.2207  0.2114
27013W        W43147  18.116   1.302  14.129  0.0301 -0.0126  0.2510
27014W        W43148  16.561   8.789  13.990 -0.0701  0.0419  0.1413
27015W        W43149   1.806   3.872   5.450  0.1096  0.2202 -0.3270
27016W        W43150  12.810  13.551   4.795  0.0547  0.3459 -0.1509
27017W        W43151   3.178   8.227   4.403  0.0921 -0.1636 -0.1697
27018W        W43152   3.048  15.163   0.008  0.1072  0.1298  0.0775
27019W        W43153  16.296   8.904  12.565 -0.0555 -0.1105 -0.0940
27020W        W43154   6.581  17.888   4.325  0.0823  0.1158  0.1490
27021W        W43155  13.773  17.204  14.806  0.0057  0.3163 -0.0983
27022W        W43156   4.456   7.993  14.155 -0.1459  0.0823 -0.1975
27023W        W43157  16.928  17.014   2.704  0.1256  0.2702 -0.0700
27024W        W43158  14.804  16.203  10.797 -0.1431 -0.3951  0.2347
27025W        W43159  14.733  12.167  13.260 -0.2131 -0.0557  0.0413
27026W        W43160   8.028   5.577  12.117  0.1576  0.2559  0.0624
27027W        W43161   8.289  10.606   3.785  0.3989  0.0105 -0.0111
27028W        W43162  13.531  18.406  12.275 -0.2033  0.3796 -0.3643
27029W        W43163  14.653  11.261  10.871 -0.0450 -0.2590  0.1596
27030W        W43164   6.915  12.266   0.713  0.1013  0.2072  0.1573
27031W        W43165   7.606  15.018  13.784  0.1134 -0.1342 -0.0317
27032W        W43166   9.751  13.516  12.877  0.0369 -0.1525  0.0772
27033W        W43167   6.908  11.973   4.709 -0.1651 -0.0340  0.2455
27034W        W43168   7.056   3.064   3.090 -0.2082 -0.0764  0.0402
27035W        W43169   2.783  12.978   1.448 -0.2731 -0.5664  0.1284
27036W        W43170  16.229   1.505  14.911 -0.1572 -0.2035 -0.1135
27037W        W43171   2.318   0.302  12.836 -0.0485 -0.0179 -0.1954
27038W        W43172  14.062  12.299   2.882  0.2793 -0.0121  0.1204
27039W        W43173   8.619  15.891  15.369  0.0643 -0.0391 -0.2341
27040W        W43174   5.982   1.629  11.981 -0.1867 -0.1797 -0.0674
27041W        W43175  15.721   0.127  13.933  0.1052  0.2455  0.0248
27042W        W43176  14.398   0.219   2.352  0.1229  0.1357 -0.1329
27043W        W43177   1.643   9.849   4.203 -0.1811 -0.4666 -0.2061
27044W        W43178  14.920   7.057  11.245 -0.1081  0.1203 -0.0106
27045W        W43179  16.525   6.220  10.923  0.1850 -0.2225 -0.2527
27046W        W43180   3.613   4.400   1.444 -0.1832 -0.1783  0.2228
27047W        W43181  12.234   8.863   2.128  0.1040 -0.0841  0.0099
27048W        W43182   2.950   5.801  15.563 -0.0211 -0.0861 -0.0925
27049W        W43183   6.842   6.342  15.206  0.1608  0.2381  0.2344
27050W        W43184  11.266   9.996  12.712 -0.0413 -0.0263 -0.0013
27051W        W43185   4.840  17.161  15.165  0.0086  0.0290 -0.2623
27052W        W43186   7.251   7.660  14.905  0.1048 -0.0955 -0.1013
27053W        W43187  15.456   2.486  15.388  0.4283 -0.0725  0.1165
27054W        W43188  18.326  14.461  13.767 -0.2108 -0.0114  0.1471
27055W        W43189   6.422   8.881  14.255 -0.1060  0.1893 -0.0488
27056W        W43190   2.589   6.229   2.146 -0.3413 -0.2774  0.0610
27057W        W43191   0.960  14.952   3.355  0.0278  0.1142 -0.1544
27058W        W43192  14.244  16.461   4.019 -0.0337 -0.1215 -0.2371
27059W        W43193   3.299   8.834  15.069  0.2965 -0.3106 -0.2248
27060W        W43194   8.195  13.237  10.912 -0.0398  0.1366 -0.1260
27061W        W43195  17.805  10.965   5.744  0.3022 -0.6390 -0.2730
27062W        W43196   1.839  12.416  11.420 -0.0727 -0.2276  0.1753
27063W        W43197  16.813   7.613  12.281  0.1346 -0.0807  0.0734
27064W        W43198  16.429   7.697   0.501  0.0318 -0.3572  0.0251
27065W        W43199  11.624   9.622  12.472  0.1826 -0.0827 -0.2672
27066W        W43200  15.960   9.483  11.442 -0.1633  0.1696  0.1352
27067W        W43201   6.723   9.825  11.518 -0.5525  0.2176  0.0256
27068W        W43202   5.674  11.997   0.512  0.3398 -0.3547  0.0600
27069W        W43203  10.238   0.654   0.842 -0.1661 -0.3856  0.2774
27070W        W43204   2.014  17.737   4.631 -0.3932  0.0382  0.2857
27071W        W43205   8.469   4.527   3.229  0.0436  0.1734 -0.1440
27072W        W43206  15.389  10.350   9.817  0.1330  0.2837 -0.0293
27073W        W43207  10.844  11.138   4.021  0.1421  0.0520 -0.3438
27074W        W43208   1.969   6.685   1.221 -0.0764 -0.0534 -0.0310
27075W        W43209   3.668   1.043  15.194 -0.1738  0.0670 -0.2141
27076W        W43210   6.151   3.503   1.276  0.0380  0.2036 -0.2772
27077W        W43211  13.665   5.488   2.863 -0.2450 -0.1815 -0.0408
27078W        W43212   8.874   9.709   3.005 -0.1537  0.1409 -0.1394
27079W        W43213   4.503  17.894  13.492  0.0039  0.3346 -0.3524
27080W        W43214  10.317  16.783   5.200 -0.1392  0.0049 -0.1044
27081W        W43215   0.055  18.669   1.436 -0.0917 -0.1863  0.2995
27082W        W43216   9.115   9.429   3.398  0.1631 -0.1070 -0.1474
27083W        W43217  12.341  17.693   5.204  0.3359 -0.1076  0.0199
27084W        W43218  17.486   2.319  14.431  0.0740 -0.1303 -0.3007
27085W        W43219   4.167  12.537  11.998 -0.1406  0.0722  0.0064
27086W        W43220   0.153  18.559  10.575  0.1037  0.2103  0.0055
27087W        W43221   6.454   3.153   1.936 -0.1228 -0.0297  0.0996
27088W        W43222  15.142   0.861  11.101 -0.2320  0.3362  0.1243
27089W        W43223   9.196   3.160  14.750 -0.3506 -0.1336  0.0502
27090W        W43224   5.445   7.399  13.965  0.0927 -0.2047  0.1346
27091W        W43225   7.759   3.989   2.245 -0.0300 -0.1998  0.1527
27092W        W43226   8.504   5.525  13.255  0.1440  0.2305  0.1869
27093W        W43227  11.416   5.303  13.017 -0.2019  0.1106 -0.1885
27094W        W43228   6.255   3.292  10.378  0.1001  0.0456  0.2640
27095W        W43229   3.841   4.575  13.177 -0.1150  0.0998  0.2432
27096W        W43230  12.699   7.714   4.086 -0.0375 -0.1311 -0.1139
27097W        W43231  10.460   6.608   2.345 -0.0616 -0.1810 -0.2927
27098W        W43232   3.511   9.802   5.845  0.1744 -0.3798 -0.3333
27099W        W43233  13.468  16.462  11.068 -0.0499  0.0843  0.1992
27100W        W43234   4.557   2.974  10.949 -0.0851 -0.0489  0.0399
27101W        W43235  15.499   8.900   4.064  0.1381  0.4034  0.3608
27102W        W43236  12.403   9.422   0.342 -0.0390  0.0242 -0.2930
27103W        W43237   5.723  10.561  10.525 -0.3903 -0.0840  0.2925
27104W        W43238  13.407  13.434   2.474 -0.2037 -0.0543  0.0471
27105W        W43239   2.528  12.163  13.135 -0.2807 -0.2947  0.0114
27106W        W43240   2.826   6.189  12.157  0.0779 -0.1412  0.0762
27107W        W43241   1.091   6.007  11.879 -0.1204 -0.0335 -0.0626
27108W        W43242  10.056   9.143   0.978  0.0568  0.1048 -0.2076
27109W        W43243   8.070  16.519   5.224 -0.1797  0.0365  0.3736
27110W        W43244  15.107   2.286   1.657  0.2426  0.1238  0.1639
27111W        W43245   8.054  12.271  14.535  0.1334 -0.1028 -0.3256
27112W        W43246  10.461  13.695   4.118  0.2530  0.2223 -0.1765
27113W        W43247   9.756  12.921   1.490  0.0332  0.1139 -0.2471
27114W        W43248   6.864   1.386  11.862  0.0741  0.0031  0.2826
27115W        W43249   1.155  10.978   3.284  0.4296 -0.0718  0.2139
27116W        W43250   3.738   9.664   1.633 -0.1949  0.1689  0.1567
27117W        W43251  13.052  14.263  12.542  0.0194 -0.0776  0.0583
27118W        W43252   9.601   4.712   1.145  0.0119  0.0289  0.0417
27119W        W43253   3.693   7.275   4.149 -0.3206  0.1304 -0.1581
27120W        W43254  15.570   0.635   1.501 -0.2542 -0.2701 -0.2990
27121W        W43255   0.386  11.145  13.636 -0.0223  0.1357  0.4014
27122W        W43256   0.204   1.646   3.866 -0.0141 -0.3189 -0.1107
27123W        W43257   9.012  15.817   1.682 -0.1047  0.2599 -0.0508
27124W        W43258  14.389   4.706  14.950 -0.1483  0.0675  0.0055
27125W        W43259  15.820   6.479  12.581  0.1504 -0.3112 -0.0368
27126W        W43260  13.934  13.233  11.542 -0.0428 -0.0170 -0.1934
27127W        W43261  10.410  11.273  11.194 -0.1571  0.0861  0.1041
27128W        W43262  10.648  13.488   2.416  0.0951 -0.0254 -0.0610
27129W        W43263   3.550   1.017   3.834  0.1343  0.1594 -0.0314
27130W        W43264   6.550  11.887  13.521 -0.1715 -0.0015  0.3602
27131W        W43265   6.506   4.040  10.696 -0.3527  0.0181  0.0914
27132W        W43266  12.723   9.843  12.748  0.1813 -0.2713 -0.4415
27133W        W43267   9.063   6.890   2.616  0.0399 -0.0667  0.2840
27134W        W43268   2.734   0.664   3.480  0.0699  0.2245 -0.2484
27135W        W43269  12.399  13.074   4.768 -0.1628 -0.1017 -0.2954
27136W        W43270   2.034  15.542  14.073  0.3831 -0.2866 -0.0662
27137W        W43271   5.309  15.652   4.311  0.1130 -0.0569  0.1244
27138W        W43272   8.228   4.381  13.239 -0.0924 -0.3209  0.3161
27139W        W43273  15.042  10.888  13.773 -0.1981 -0.1824  0.3801
27140W        W43274   2.201   8.976   4.343  0.1675  0.0592 -0.0470
27141W        W43275  12.564  11.706  13.324  0.0802  0.2551 -0.2633
27142W        W43276  15.589  12.989   4.860  0.0836  0.0999 -0.0162
27143W        W43277   2.048  11.588  14.114 -0.3871  0.1473  0.0677
27144W        W43278   0.099   7.588   2.423  0.0116 -0.0413 -0.1125
27145W        W43279   8.239   5.598  11.506 -0.1285  0.1983 -0.0182
27146W        W43280  14.151   6.972   0.643 -0.0465  0.0756 -0.0431
27147W        W43281   6.087   7.585   1.896 -0.1919  0.1398 -0.0886
27148W        W43282  18.480   5.282  11.459  0.0980 -0.2527  0.1603
27149W        W43283  11.500  13.264   1.166  0.0180 -0.1393  0.3388
27150W        W43284  17.667   1.892  14.672 -0.0435  0.0788 -0.1170
27151W        W43285   5.844   6.633  13.192 -0.0982 -0.0214  0.1477
27152W        W43286   1.463   7.085   1.070  0.0412  0.2250 -0.0340
27153W        W43287   8.661  14.941   0.914 -0.0849  0.2214  0.3441
27154W        W43288   0.398  10.231   2.707 -0.0710  0.0772 -0.1118
27155W        W43289   3.026  12.896   0.602 -0.1204 -0.2018  0.0389
27156W        W43290   8.435   9.861  13.814 -0.0130 -0.2649  0.3214
27157W        W43291   4.857  13.255  10.969  0.1221  0.0782  0.3118
27158W        W43292   4.290  15.076  10.318  0.1519  0.0627  0.2687
27159W        W43293  10.842  14.366   2.285 -0.2843  0.2942  0.0796
27160W        W43294  11.385  17.971  14.942  0.1775  0.1747 -0.0596
27161W        W43295  15.914  14.008   3.505 -0.5420  0.0832  0.1653
27162W        W43296  10.446  16.131  11.083  0.0979  0.4707  0.2254
27163W        W43297   9.435  16.006   1.938  0.5306  0.2416  0.1119
27164W        W43298   4.222   7.506   4.047 -0.3334  0.0400  0.2357
27165W        W43299   3.762  17.175  12.244  0.0481 -0.3203  0.0908
27166W        W43300  15.539  10.402   2.226 -0.0106 -0.0714 -0.2046
27167W        W43301  18.261  12.042   5.330 -0.1076 -0.0335 -0.1481
27168W        W43302   8.309  18.076  15.486 -0.1496  0.0053 -0.1963
27169W        W43303   3.063  17.608  12.310 -0.4645  0.4536 -0.0840
27170W        W43304   6.879   2.077   0.999 -0.0756 -0.0468  0.0084
27171W        W43305   9.130   6.193   2.917  0.0273  0.0617 -0.1652
27172W        W43306  16.833   4.505   5.082 -0.1467 -0.1301 -0.1966
27173W        W43307  12.089  17.523   4.542  0.0443  0.0565 -0.0214
27174W        W43308   8.777  17.222   3.824  0.1397 -0.3495  0.1069
27175W        W43309  18.498   1.854   3.840 -0.3476 -0.2528  0.1225
27176W        W43310   0.336   7.408  11.478  0.1085 -0.0485 -0.2677
27177W        W43311   6.792  17.002  15.132 -0.2645 -0.3596 -0.0983
27178W        W43312  13.128   8.025   4.118 -0.1912  0.0081  0.1904
27179W        W43313   4.859  15.245   1.324 -0.5024  0.1005 -0.2725
27180W        W43314  16.507   9.390  13.890  0.1728 -0.2814  0.3410
27181W        W43315   8.533  11.523   2.248  0.1042  0.2058 -0.2911
27182W        W43316  16.262  17.751   0.452 -0.2855 -0.1396  0.0083
27183W        W43317  17.770   3.330   3.459 -0.0341 -0.0246 -0.0624
27184W        W43318  11.661   3.181   4.261 -0.1405 -0.0082 -0.0791
27185W        W43319  10.140   3.240   5.300 -0.1511  0.0737  0.0608
27186W        W43320   0.528   3.292  14.415 -0.1248  0.1086 -0.3228
27187W        W43321   5.934  17.620   3.731  0.0882  0.1917 -0.1645
27188W        W43322  10.993   4.810   0.845 -0.1730  0.2279  0.2149
27189W        W43323   4.792   0.277  11.953  0.1083  0.0512  0.0061
27190W        W43324   0.360   6.245   1.954 -0.2972 -0.1524 -0.0412
27191W        W43325  17.163   8.987  13.538 -0.1966  0.0539  0.1255
27192W        W43326   3.265   2.756  13.750  0.0669  0.1375 -0.0449
27193W        W43327   3.011  18.070  12.607  0.1212  0.0912  0.1473
27194W        W43328  18.673   9.191  12.939  0.1381 -0.0407  0.1373
27195W        W43329   5.930   8.208   2.673  0.4912  0.1873  0.0041
27196W        W43330   7.685  11.523   1.722 -0.1364  0.2765 -0.0716
27197W        W43331   3.921   4.039   1.652  0.0105  0.1486  0.1521
27198W        W43332   9.927   6.589  12.728  0.1329 -0.0713 -0.0785
27199W        W43333   7.765   8.206   1.920 -0.2771  0.4049  0.0786
27200W        W43334   1.076  16.532  12.513  0.0603  0.0919 -0.0643
27201W        W43335  16.708  15.731  12.071  0.2972  0.0136  0.0458
27202W        W43336   9.673   1.548   0.674  0.1138  0.0992  0.0052
27203W        W43337   6.623  12.175  14.888 -0.2591  0.0905 -0.0862
27204W        W43338   2.281   4.415  10.166  0.1201  0.0673  0.2536
27205W        W43339  15.121  17.366  14.728  0.0588  0.3109 -0.1375
27206W        W43340  14.451  14.790  13.472 -0.0985 -0.0373  0.2664
27207W        W43341  11.908   2.785   2.138 -0.0678 -0.2636 -0.0668
27208W        W43342   6.047  10.149   3.757 -0.0863 -0.2319  0.2346
27209W        W43343   8.916   3.015   1.310 -0.1235  0.0086 -0.0205
27210W        W43344  18.633  10.531  12.211 -0.0037  0.2408  0.1014
27211W        W43345  17.886  14.227  14.890 -0.1907 -0.1573 -0.2184
27212W        W43346  16.704  12.415  11.929  0.0858 -0.0262  0.1883
27213W        W43347  11.127  13.297  12.576  0.0684 -0.1765  0.0039
27214W        W43348   8.209  12.291   0.748  0.4785 -0.1080  0.2160
27215W        W43349   2.937   2.232   4.798  0.0896 -0.1097  0.2007
27216W        W43350   1.679  10.861   0.471 -0.1104 -0.1493 -0.2093
27217W        W43351   5.306   7.718   4.880  0.1036 -0.1748  0.1196
27218W        W43352  17.247   8.604   3.795  0.0572  0.3540 -0.1368
27219W        W43353   2.601   6.590   2.629 -0.1789  0.0502  0.1237
27220W        W43354   4.955   1.630   3.382 -0.1866 -0.0741 -0.0714
27221W        W43355   9.192  17.888  12.711 -0.1634  0.1005 -0.2506
27222W        W43356   6.409   5.809  10.698 -0.1268  0.0678 -0.2436
27223W        W43357  13.520   7.062  10.556  0.2821  0.0236 -0.0761
27224W        W43358  11.123   8.289   1.673  0.1007 -0.4230 -0.1391
27225W        W43359   8.631  11.287   4.072  0.2700  0.0182 -0.0658
27226W        W43360   4.140  18.294  12.758 -0.0415  0.1179  0.0971
27227W        W43361   9.751  16.260  14.125  0.1267 -0.3066  0.0226
27228W        W43362   5.242  15.037  11.784  0.0570 -0.2460  0.2443
27229W        W43363   0.103  13.951  11.491  0.1452  0.1610  0.1673
27230W        W43364   7.266  17.392   3.606  0.1709  0.0894  0.4017
27231W        W43365   1.324   9.869   3.784  0.0158 -0.1108  0.2424
27232W        W43366   2.159   1.896   0.722 -0.1126  0.1853 -0.0029
27233W        W43367  16.135  17.283  11.826 -0.0773 -0.2779  0.0317
27234W        W43368   5.761   7.067  10.910 -0.0946 -0.2673 -0.0036
27235W        W43369   2.699  17.929  11.508 -0.2631  0.1824 -0.0542
27236W        W43370  11.272   6.493   5.105 -0.2211 -0.0187  0.1383
27237W        W43371  14.801   4.791  14.633 -0.0172  0.1210 -0.0068
27238W        W43372  17.025  13.996  14.790  0.2879 -0.2459 -0.0617
27239W        W43373  14.363   9.757   0.872 -0.0448  0.3596  0.1448
27240W        W43374  16.369  14.904   4.316  0.2347 -0.0621 -0.1982
27241W        W43375   8.689   9.227   3.052  0.0135 -0.2362  0.2183
27242W        W43376   3.446   4.441   4.657 -0.0555 -0.0496  0.1955
27243W        W43377  13.148  16.867   2.904 -0.3240 -0.0098  0.2542
27244W        W43378   9.606   6.967  10.321 -0.2731 -0.2445  0.2171
27245W        W43379   7.565  16.870   0.335  0.0113 -0.1304 -0.1020
27246W        W43380  17.290   3.044   3.373  0.0257 -0.6086  0.0155
27247W        W43381   7.389  15.917  13.392 -0.1798 -0.2877 -0.0579
27248W        W43382   1.342   8.441   2.537 -0.0697 -0.1821 -0.0603
27249W        W43383  16.319  11.277   2.835  0.2862 -0.3607 -0.2136
27250W        W43384   6.758  14.070   2.535 -0.0130 -0.1395  0.2700
27251W        W43385   6.809   9.667  12.585 -0.0230  0.1733 -0.1049
27252W        W43386  16.579   6.791  13.008 -0.3659 -0.1715  0.0050
27253W        W43387   6.425   8.225  11.260  0.1446  0.2176  0.1300
27254W        W43388  17.580   5.038  13.446  0.1961 -0.1472  0.0468
27255W        W43389  17.539  15.319   0.528  0.2402  0.0076  0.1735
27256W        W43390   3.267  14.827   4.163  0.0878  0.1524 -0.1483
27257W        W43391   5.217  12.161  10.633 -0.2732  0.0657 -0.2516
27258W        W43392  17.065  15.135   2.504 -0.2159  0.3374  0.0445
27259W        W43393   0.811  10.586  11.023 -0.4065  0.1271  0.0990
27260W        W43394  15.212   5.576  14.295 -0.0405  0.2263  0.0860
27261W        W43395  11.392   4.937  14.695  0.2740 -0.1506  0.0305
27262W        W43396   6.353   8.974   4.679 -0.1519  0.0084 -0.0361
27263W        W43397   7.044  10.442  12.434 -0.1320  0.0522 -0.1105
27264W        W43398  15.006   3.049   0.594  0.3193  0.0133 -0.0877
27265W        W43399  15.172   3.125  12.462 -0.3955 -0.0979 -0.0535
27266W        W43400  18.606  14.856  14.121 -0.0931 -0.1158 -0.2740
27267W        W43401  14.578  12.118   2.865 -0.0118  0.1672  0.1758
27268W        W43402  11.163   9.465  13.276  0.1759 -0.0667  0.2287
27269W        W43403   2.367  10.967  10.780 -0.1255  0.2569  0.1461
27270W        W43404   2.359   1.327  15.003 -0.2198  0.4218 -0.1785
27271W        W43405  16.185  14.140   1.769  0.2041 -0.1758 -0.0814
27272W        W43406   2.997   7.722  10.589  0.2703 -0.1527 -0.2831
27273W        W43407   8.294   4.256   0.910  0.2011 -0.1961 -0.0705
27274W        W43408   0.168  18.609   0.079 -0.0145 -0.5916  0.0581
27275W        W43409   1.732   3.218   3.205 -0.3886  0.3099 -0.0708
27276W        W43410  12.627  10.655  12.188 -0.2934 -0.4527 -0.0645
27277W        W43411  14.845  16.894  12.998  0.0156  0.0103 -0.1275
27278W        W43412  11.480  14.074   0.198  0.1400 -0.1844  0.0214
27279W        W43413  10.547   2.340  10.916 -0.0498  0.0493 -0.0152
27280W        W43414  13.010  13.102  11.422  0.3598  0.0484  0.1641
27281W        W43415   9.175   5.112  10.520 -0.0105 -0.2402  0.0131
27282W        W43416  10.448   8.225   0.784  0.2347 -0.1996 -0.3069
27283W        W43417   1.180   3.584   3.920 -0.1676 -0.0967 -0.0612
27284W        W43418   2.945   1.215   2.770 -0.1054 -0.0615 -0.0416
27285W        W43419  17.458  14.037   1.122  0.0821  0.1381  0.0895
27286W        W43420  10.650  10.477  11.664  0.1500  0.1134  0.0155
27287W        W43421  11.105   0.094  11.129 -0.1162  0.0899  0.0311
27288W        W43422   9.716  17.606  13.651 -0.0732 -0.0927 -0.0894
27289W        W43423   3.356   7.984  14.381 -0.0596 -0.3604  0.3756
27290W        W43424  18.474   0.279  11.933 -0.0800 -0.2084 -0.3102
27291W        W43425   8.521   3.235   2.918  0.5244  0.0703  0.1991
27292W        W43426   3.222  15.563   1.428  0.2449  0.2224  0.1709
27293W        W43427   0.776  15.834   0.665 -0.1026 -0.2324  0.2773
27294W        W43428   8.776   8.206   4.910 -0.0245  0.1768  0.0802
27295W        W43429  18.339   8.635   0.969  0.1294  0.2814  0.0851
27296W        W43430   7.867   7.546  12.200 -0.0432 -0.0434  0.2561
27297W        W43431   8.757   4.906   4.360 -0.0730 -0.0763  0.1000
27298W        W43432   1.522  17.248  10.843  0.2380 -0.2532  0.2012
27299W        W43433  14.565   9.196   0.713 -0.1598  0.0545 -0.1924
27300W        W43434  14.717  16.577  14.626 -0.0257  0.3991  0.0022
27301W        W43435   5.111   5.954   2.924 -0.4551 -0.0047 -0.0021
27302W        W43436   0.573   4.327   1.541 -0.0517 -0.0181  0.1765
27303W        W43437   2.951  14.272   0.577  0.0513 -0.1955  0.0345
27304W        W43438   3.780  15.160  11.545  0.0083  0.0963  0.1737
27305W        W43439   5.196  14.287   3.555 -0.2183  0.0714 -0.1265
27306W        W43440  18.063  15.875  14.596 -0.1050  0.0169 -0.3346
27307W        W43441   3.855  18.568   1.055 -0.1232  0.4470 -0.3206
27308W        W43442   1.968   4.400  12.860 -0.2366  0.1769  0.1908
27309W        W43443   2.751   8.565   4.135  0.1776  0.1952  0.1204
27310W        W43444  15.446  13.516  14.583 -0.1233  0.1552 -0.3124
27311W        W43445  13.165   6.668  14.946 -0.0988 -0.2283 -0.2052
27312W        W43446   4.459   4.307   5.253 -0.0328  0.0104  0.2356
27313W        W43447  14.794   0.551  15.530 -0.3220  0.2350 -0.1265
27314W        W43448   3.129  13.643  13.525 -0.2037 -0.4795 -0.6396
27315W        W43449   6.253  10.029  11.589  0.0189 -0.0738 -0.2836
27316W        W43450  14.525  10.253   4.486 -0.0688 -0.1395  0.2648
27317W        W43451  14.026   3.729  11.315 -0.1592  0.1555  0.5013
27318W        W43452   8.032   5.025  11.630  0.1602  0.0899 -0.3516
27319W        W43453   5.615  16.857   2.913  0.1611  0.0444  0.0289
27320W        W43454   5.485  16.562   2.473 -0.3468 -0.1496 -0.2148
27321W        W43455   7.923  13.666  10.760  0.0269 -0.1119 -0.0023
27322W        W43456   3.149   1.618  15.189 -0.0745 -0.0625 -0.0609
27323W        W43457   7.325   6.231   6.176  0.2520  0.1130 -0.0373
27324W        W43458   4.828   1.755   1.676  0.2319  0.0781 -0.0981
27325W        W43459  12.833  15.555   9.956  0.0666 -0.0845 -0.1999
27326W        W43460  14.288   8.726  13.672  0.3504 -0.0061 -0.3167
27327W        W43461  16.719  13.684   1.373 -0.1528  0.3069 -0.2841
27328W        W43462  13.978   9.748  13.189  0.3284 -0.0974  0.2253
27329W        W43463   2.764  10.809  11.898 -0.0394 -0.0976  0.0860
27330W        W43464  17.134   1.730   5.094 -0.0113 -0.0759 -0.3893
27331W        W43465   2.516   3.602  13.488  0.0324 -0.1611  0.0607
27332W        W43466   3.885   0.490   0.248 -0.1251  0.3718 -0.1453
27333W        W43467  11.034  10.012  14.678  0.0262  0.1770 -0.2371
27334W        W43468  17.263  13.068  11.735  0.0010  0.1046 -0.2789
27335W        W43469  16.489  13.811   2.822 -0.0721 -0.2740  0.0642
27336W        W43470  12.941   6.521   5.074 -0.2000  0.0529  0.1203
27337W        W43471   7.597   4.868  12.607  0.0092  0.4929 -0.0135
27338W        W43472   5.180   0.031  14.290 -0.1644 -0.0321 -0.0106
27339W        W43473   2.880  16.186   3.361  0.0581 -0.0043 -0.0301
27340W        W43474   1.515  10.275   1.582 -0.3180  0.2036  0.4734
27341W        W43475  18.712  15.303  10.899  0.5191 -0.6186  0.1005
27342W        W43476   4.657  18.576   2.402  0.2216 -0.0653  0.0736
27343W        W43477  15.199  18.018  11.580  0.1110 -0.1658  0.3658
27344W        W43478   0.028  16.151   5.963  0.0430  0.1220 -0.0588
27345W        W43479  10.300   9.823  13.324 -0.0660  0.0859 -0.2293
27346W        W43480  11.230   4.937   4.750 -0.0277  0.0016 -0.0982
27347W        W43481  16.504   4.833   4.176  0.0554  0.0973  0.0550
27348W        W43482  13.916   1.767  13.998 -0.1739  0.1962 -0.0772
27349W        W43483   6.334  17.122   0.484  0.2218 -0.2691 -0.0134
27350W        W43484   9.722  16.017  14.728 -0.0396  0.4172  0.1034
27351W        W43485   2.148   2.142   2.738 -0.0221 -0.0725 -0.0154
27352W        W43486  16.546   3.246  13.452 -0.0546 -0.0033 -0.3147
27353W        W43487   3.818   4.192   0.660 -0.1762  0.0035 -0.0338
27354W        W43488   6.017  13.229   3.045 -0.0250  0.2254  0.0847
27355W        W43489   6.405   7.818   4.442  0.2243  0.0851 -0.2700
27356W        W43490   7.386   9.623   3.456 -0.1816 -0.1996  0.1783
27357W        W43491   0.790   2.987   5.117 -0.1076 -0.1272 -0.0135
27358W        W43492  15.739  10.134   1.267 -0.0816  0.1058 -0.0621
27359W        W43493   4.607   7.100   2.518 -0.0916 -0.2439  0.4158
27360W        W43494   5.074   3.075   1.776 -0.1953 -0.0886 -0.1801
27361W        W43495   3.063   3.724  14.674  0.4255 -0.0152 -0.0366
27362W        W43496   5.140   1.597   0.033  0.2947 -0.2803  0.3972
27363W        W43497  18.567  15.979   5.539 -0.1011  0.1938 -0.1350
27364W        W43498   5.328   5.286  12.417  0.2274 -0.4713 -0.0101
27365W        W43499  16.980   9.719  14.669 -0.0523  0.1344  0.0322
27366W        W43500  13.970   7.822   5.161  0.1691  0.1048  0.0036
27367W        W43501   5.115   9.160  14.789  0.1326  0.1691  0.2115
27368W        W43502  10.605   5.666  13.424  0.3921 -0.0348 -0.1001
27369W        W43503   9.238  11.029  12.611 -0.0636  0.1421 -0.3069
27370W        W43504  13.368   4.979   4.846 -0.1334  0.2031 -0.1804
27371W        W43505  15.633   7.168  15.152  0.1730  0.2398 -0.1522
27372W        W43506   2.122   4.455  11.349 -0.1027 -0.0374  0.0677
27373W        W43507   5.136  10.008  15.049  0.0089 -0.1506 -0.0282
27374W        W43508   2.749  14.537   0.966 -0.0098  0.0643 -0.2454
27375W        W43509   2.041  11.826   0.167 -0.0930 -0.3749  0.2225
27376W        W43510   5.952   2.937   0.507 -0.1058 -0.1490  0.2466
27377W        W43511   7.576   2.870   0.870 -0.1900 -0.0720  0.3317
27378W        W43512  16.848  14.679   2.337 -0.0488 -0.1056 -0.2840
27379W        W43513   4.995   5.093   3.639 -0.0733 -0.3510  0.3261
27380W        W43514  14.884  17.121   0.695  0.2379  0.1545  0.1255
27381W        W43515   0.849   3.345   1.368 -0.0016 -0.0115  0.3518
27382W        W43516   2.752  14.104   3.694  0.1191  0.2202 -0.1976
27383W        W43517   9.936   2.363  12.538 -0.1558 -0.1404 -0.0921
27384W        W43518  14.028   6.937   1.446 -0.0369  0.2442  0.1209
27385W        W43519   6.514   6.543   3.362 -0.1357  0.0804 -0.0388
27386W        W43520  10.045   7.955  13.188 -0.1440  0.0910  0.1331
27387W        W43521  11.388   2.838   4.055 -0.2607  0.0346 -0.0756
27388W        W43522  12.439   4.622   0.334  0.1485 -0.2894 -0.0576
27389W        W43523  15.119  14.624  11.684 -0.0473  0.3540 -0.0803
27390W        W43524  10.288   2.030  11.258  0.2046 -0.0840  0.0598
27391W        W43525   6.075   0.439   4.166  0.2101  0.2010 -0.0593
27392W        W43526  11.851   3.547  15.282  0.2172 -0.1782 -0.0016
27393W        W43527  16.400   0.418  11.264 -0.1985 -0.1400  0.0824
27394W        W43528  14.182   8.702   1.021 -0.0164 -0.2049  0.0841
27395W        W43529   1.358   1.541   5.306 -0.0643  0.0240 -0.0366
27396W        W43530  17.713   3.673   5.760 -0.0708 -0.1245 -0.1330
27397W        W43531  16.563  16.949  14.147 -0.2186 -0.2337  0.2327
27398W        W43532  15.812  16.088   4.009 -0.0428  0.2958 -0.2406
27399W        W43533   9.811  10.705  11.856  0.0022  0.1776  0.0535
27400W        W43534  10.121   5.535   4.407 -0.1017  0.2201  0.0128
27401W        W43535   9.560   2.650  13.409 -0.1142  0.2009  0.1551
27402W        W43536  16.363   5.442  15.475 -0.1865 -0.0950 -0.0106
27403W        W43537  10.987   0.982   3.914 -0.1606  0.0143 -0.3150
27404W        W43538  12.120   9.958   3.400 -0.1182 -0.1455 -0.1074
27405W        W43539   8.670  11.589   1.271 -0.0225 -0.0668  0.6726
27406W        W43540   9.412  10.294  13.716 -0.1020  0.4022  0.1951
27407W        W43541   8.228   6.771  15.188  0.3220  0.1707  0.1007
27408W        W43542   3.749  13.189  12.914  0.0301 -0.0804 -0.0410
27409W        W43543   7.746  17.348   4.678  0.3430 -0.0614  0.2148
27410W        W43544   1.592   3.709   2.894 -0.2212  0.4418  0.0189
27411W        W43545  14.460  10.887   0.864  0.0571 -0.0457  0.2888
27412W        W43546  17.787   2.687  11.937 -0.0811  0.2521 -0.0218
27413W        W43547  18.151   6.914  11.385  0.1419  0.0029 -0.1213
27414W        W43548  10.789   6.464  14.283 -0.0211 -0.1012  0.0941
27415W        W43549   4.720  15.774  13.029 -0.0078 -0.2967 -0.1325
27416W        W43550   1.693  12.108   4.828  0.1399  0.1158  0.0485
27417W        W43551   6.382  16.137   5.064 -0.2207  0.1345 -0.1789
27418W        W43552   2.349  17.281   4.002  0.2640  0.0843 -0.3070
27419W        W43553   4.119   2.805  10.106 -0.1238  0.0260  0.0085
27420W        W43554   4.666   3.403   1.573 -0.1006 -0.0072 -0.2190
27421W        W43555   5.011   9.916   4.281  0.0890 -0.0850 -0.0249
27422W        W43556  12.508  13.270   0.062  0.0248  0.4619  0.0469
27423W        W43557  11.697  10.978  14.101 -0.0997  0.0222 -0.0569
27424W        W43558   5.259   9.120   2.333  0.3601  0.1313  0.1847
27425W        W43559   8.260  13.781   1.828 -0.0808 -0.1999 -0.0622
27426W        W43560  18.533   7.730  15.131  0.0414 -0.0725  0.2543
27427W        W43561  18.599  10.386   2.873 -0.1945 -0.1026 -0.1527
27428W        W43562  18.061  12.808   9.983  0.0644  0.0994  0.2715
27429W        W43563   4.356   8.738  13.043  0.0338 -0.1417  0.2331
27430W        W43564   2.392   2.605   4.695  0.0077  0.0231  0.1777
27431W        W43565   4.692   4.787   3.432 -0.1653  0.0453  0.1697
27432W        W43566  18.545   1.699  14.012 -0.0756  0.3600 -0.0127
27433W        W43567  16.797  15.669   1.547 -0.3418  0.0989  0.1036
27434W        W43568  17.484  18.611   2.485 -0.4363  0.3790 -0.0997
27435W        W43569   0.621  10.596   2.449 -0.0934 -0.0335  0.2134
27436W        W43570   0.460  14.892   2.380 -0.1591 -0.1334 -0.4051
27437W        W43571   9.295  15.914   0.337 -0.0614 -0.0243  0.1049
27438W        W43572  12.459   8.508  13.469 -0.1560 -0.2600 -0.0280
27439W        W43573   9.591   2.102  14.836  0.2941 -0.2062  0.2652
27440W        W43574  17.173  17.565  14.464 -0.1821 -0.5619  0.1356
27441W        W43575  16.471   4.308   1.493 -0.1256  0.0836 -0.0280
27442W        W43576  12.264  15.885  15.241 -0.1898  0.1028 -0.1994
27443W        W43577  16.057   8.951  13.785 -0.6567 -0.2201  0.1743
27444W        W43578   2.287  14.252  12.021  0.0605 -0.0210  0.0768
27445W        W43579   0.344  11.154   3.160 -0.1214 -0.0700 -0.1091
27446W        W43580   9.829  12.053   0.869  0.0423  0.2046  0.3329
27447W        W43581   0.094  12.138   2.732  0.2135 -0.1889 -0.1805
27448W        W43582   7.906  15.845  13.465  0.0288 -0.4233 -0.2661
27449W        W43583   3.255   9.510   4.894 -0.0516  0.2265  0.0583
27450W        W43584  14.869   1.303  10.933  0.1480 -0.0487 -0.3093
27451W        W43585  14.187   3.429  14.478  0.2232  0.1569 -0.0507
27452W        W43586   2.913  16.784  12.368  0.3710 -0.2289 -0.1671
27453W        W43587   0.890   3.049  13.086 -0.3229 -0.0702  0.0776
27454W        W43588  15.473   2.687   2.910  0.0962  0.3178  0.0699
27455W        W43589   5.160  15.543  11.383  0.1167  0.4299  0.1784
27456W        W43590   2.129   9.491  10.218 -0.1221  0.0087  0.2386
27457W        W43591  10.191  16.481  14.384 -0.0753  0.1084 -0.0857
27458W        W43592   4.213  12.301  14.557 -0.0388  0.0095  0.0664
27459W        W43593  16.945  13.535  11.433  0.0629 -0.0587 -0.0639
27460W        W43594  14.134   6.330   3.737 -0.4409 -0.1781 -0.2519
27461W        W43595   0.784   9.364   1.195 -0.1988 -0.0633 -0.1075
27462W        W43596   6.763  16.019   4.734 -0.0274  0.5851  0.1084
27463W        W43597  14.884   3.313  13.858  0.1271  0.0118 -0.0204
27464W        W43598   9.480   4.345  14.249 -0.1195 -0.2306 -0.1680
27465W        W43599   6.832   5.434   2.908  0.2339  0.2037  0.1577
27466W        W43600   6.505   5.450   1.625 -0.0707  0.0423 -0.0717
27467W        W43601  16.357  10.725  10.574 -0.0952 -0.1887  0.1876
27468W        W43602   6.657  18.105   0.830  0.0646  0.3263 -0.1172
27469W        W43603   9.802  16.234  13.623  0.1438  0.0338  0.0606
27470W        W43604  14.646   2.373   3.964 -0.0423 -0.2544  0.0582
27471W        W43605   5.821  12.929  13.437  0.2312  0.0862 -0.0250
27472W        W43606   7.874   5.559   0.284 -0.0111  0.0658  0.1208
27473W        W43607   0.905   0.781  15.159 -0.3267  0.0982 -0.0107
27474W        W43608   0.752  17.088   0.022 -0.2205 -0.0359 -0.0395
27475W        W43609   4.704  12.007  12.935  0.0086 -0.2666  0.1605
27476W        W43610  14.907  15.873  12.141 -0.1761  0.1373 -0.1047
27477W        W43611   2.558   4.999   1.065  0.0816 -0.0097 -0.1050
27478W        W43612   7.037   9.935  12.241 -0.4606  0.0763  0.1229
27479W        W43613   4.886  18.359   4.912  0.2255 -0.1179 -0.1603
27480W        W43614  17.408   6.744  10.731 -0.3370  0.0509  0.0646
27481W        W43615   4.652  14.358  12.141 -0.0320 -0.0675  0.0453
27482W        W43616  12.555  10.124  10.846 -0.4727  0.1696 -0.1897
27483W        W43617   9.305   1.629   2.001 -0.1359 -0.0350 -0.0142
27484W        W43618   6.347  16.326  12.301 -0.5531 -0.1352  0.1920
27485W        W43619   1.855   1.349  12.077 -0.0783 -0.0809 -0.1459
27486W        W43620   2.576   0.923   4.588 -0.4909  0.1402  0.0811
27487W        W43621   7.510  11.328   4.914 -0.0080  0.0799  0.2144
27488W        W43622   8.503   0.768  14.351  0.2968  0.2389 -0.0343
27489W        W43623  14.334  17.370   3.365  0.0069 -0.1234  0.1797
27490W        W43624   4.717  16.803   2.008  0.1065  0.1889  0.1547
27491W        W43625   8.214  17.949   1.583  0.0461 -0.2862  0.0823
27492W        W43626  13.199  15.059   3.760  0.2384 -0.1561 -0.0525
27493W        W43627   0.950  15.572   1.195  0.0086 -0.0783 -0.0650
27494W        W43628   7.283  15.493   1.179  0.2567  0.0804 -0.2320
27495W        W43629  13.801   0.022  13.407  0.2078 -0.2922 -0.0160
27496W        W43630   6.598  13.190   2.344  0.5508  0.0062 -0.1490
27497W        W43631  14.625   6.491   4.543  0.0105  0.0494 -0.2412
27498W        W43632  10.236  15.720   5.190  0.0145 -0.0698 -0.2247
27499W        W43633  18.037   4.920   1.041  0.2859 -0.0888  0.1886
27500W        W43634   0.112  11.734   6.285 -0.1398  0.1163 -0.0267
27501W        W43635   9.888   4.786   3.869 -0.0312 -0.0131 -0.2795
27502W        W43636   2.585   1.807   3.449  0.2577 -0.0940 -0.3754
27503W        W43637   9.218   4.781  13.418 -0.1123 -0.2589 -0.0497
27504W        W43638  16.818  10.517  12.464  0.2144 -0.1706 -0.1712
27505W        W43639  18.095   9.759  14.574 -0.1836 -0.0798 -0.0976
27506W        W43640   7.758  16.375   2.096 -0.1745  0.0065  0.1673
27507W        W43641   5.027  11.595  11.170 -0.0990  0.0122  0.0023
27508W        W43642   1.013  10.313  14.274 -0.3255 -0.1377  0.2936
27509W        W43643   1.561  15.868   2.113 -0.0347 -0.1302  0.1960
27510W        W43644   2.183  16.855  14.428  0.1283 -0.4090 -0.0709
27511W        W43645   1.339   9.980  13.205  0.0712  0.0510  0.5863
27512W        W43646  14.358  11.730  14.721  0.2264  0.0681 -0.1321
27513W        W43647  12.672  12.915  12.757  0.2207  0.0736 -0.2242
27514W        W43648   5.604   5.550  12.809  0.1873 -0.0902  0.4353
27515W        W43649   5.405   6.291  12.437  0.4201 -0.0221  0.1969
27516W        W43650  15.543  18.357  10.706  0.3956 -0.0473 -0.2603
27517W        W43651  12.400   3.072  13.048 -0.2865 -0.3823  0.2607
27518W        W43652   1.678   9.656  13.373  0.0034  0.2981  0.3215
27519W        W43653   9.550   6.738   3.370 -0.1346  0.0130  0.2603
27520W        W43654  12.380  12.725  10.348  0.1086 -0.0855 -0.0290
27521W        W43655   1.663   9.595   1.910 -0.0958  0.2824  0.2596
27522W        W43656   1.655   6.068   0.302 -0.3308  0.1587  0.0081
27523W        W43657  11.190  11.357   4.437 -0.1349  0.3860 -0.1179
27524W        W43658   3.166  15.195  10.917  0.1059 -0.2444  0.1049
27525W        W43659   7.284  13.796  10.627  0.1822  0.1209  0.1493
27526W        W43660  16.827  11.761  13.247 -0.0592  0.1183 -0.1800
27527W        W43661  18.349  12.527  14.526 -0.2954  0.1780 -0.0182
27528W        W43662  15.292   3.701   1.791  0.3234  0.1309  0.0824
27529W        W43663  12.596  11.302   2.684  0.0743  0.1161  0.3603
27530W        W43664   2.989   7.851   2.949  0.2087  0.1350 -0.1789
27531W        W43665   2.431   5.399  10.102  0.1714  0.2808  0.3264
27532W        W43666  17.452   8.080   4.153  0.2072 -0.2832  0.1409
27533W        W43667   3.254  12.283  13.762 -0.1761  0.2453  0.1783
27534W        W43668  16.181  10.781   0.896 -0.3610 -0.0737 -0.1595
27535W        W43669   8.755   7.014  14.590  0.1906  0.2243 -0.0157
27536W        W43670  17.294   8.387  14.454 -0.1189 -0.2045  0.2281
27537W        W43671   2.536  16.822   3.273 -0.2802  0.2192 -0.1819
27538W        W43672  16.862   9.115  14.677  0.1245 -0.2068  0.0819
27539W        W43673   1.551   9.994  10.981 -0.3146  0.1219 -0.4250
27540W        W43674   6.704  11.035   5.241  0.3893  0.2878  0.1985
27541W        W43675   9.213   6.646  13.340  0.0929  0.2724 -0.1499
27542W        W43676   3.123  14.041  13.170 -0.0896  0.0172  0.0575
27543W        W43677  16.097  11.982  15.188 -0.0499 -0.0148 -0.2187
27544W        W43678   1.792   3.104   0.038  0.3544 -0.2433  0.4733
27545W        W43679  16.199   1.842   2.344 -0.1148  0.1303  0.2867
27546W        W43680   1.000  11.039  14.768 -0.2073  0.3174  0.0416
27547W        W43681  10.291   6.590   0.759 -0.1226  0.1289 -0.3083
27548W        W43682   0.859   1.554   5.092  0.2400 -0.5851  0.0826
27549W        W43683   4.333   1.224   2.311 -0.0076 -0.3357  0.0916
27550W        W43684   4.005  16.540   0.889 -0.0483  0.1437 -0.3106
27551W        W43685   4.580  17.068   3.650  0.0962  0.0791 -0.1287
27552W        W43686   3.535  15.250  15.296 -0.0993 -0.1575  0.0878
27553W        W43687  14.957   9.201   2.034 -0.4437  0.1793  0.3136
27554W        W43688  13.511  12.362  13.127 -0.3125  0.1794  0.1708
27555W        W43689   7.194  13.712  13.248  0.4081 -0.0935 -0.1066
27556W        W43690  14.400   7.722  13.599  0.0115 -0.0408 -0.2148
27557W        W43691   0.493   1.518   5.597  0.2469  0.1659  0.1618
27558W        W43692   6.187  16.363  13.395  0.3038  0.0814  0.0092
27559W        W43693   3.566  13.940   2.127 -0.0947 -0.1161 -0.0654
27560W        W43694  15.634  14.856  14.479 -0.0480  0.2363  0.2353
27561W        W43695  13.383   5.507   0.273  0.1806 -0.0984 -0.2218
27562W        W43696   0.872  16.261  15.048  0.2316  0.0606 -0.1450
27563W        W43697  11.829  12.795   4.990 -0.0508 -0.1389 -0.1792
27564W        W43698  16.000  14.295   1.262  0.1149 -0.0885 -0.2496
27565W        W43699  14.683  18.001   2.078 -0.1251  0.1554 -0.1789
27566W        W43700  12.377   6.668  14.979 -0.0625 -0.0596 -0.1302
27567W        W43701   3.974  12.439   1.117  0.0547 -0.1057 -0.0946
27568W        W43702  14.156  16.581  10.397 -0.0133  0.1405  0.2271
27569W        W43703   5.918  18.631  10.966 -0.1657  0.0215 -0.2202
27570W        W43704  15.115  13.331   3.260 -0.0802 -0.0574  0.0233
27571W        W43705  15.620   5.429   4.833 -0.0471  0.3457  0.1234
27572W        W43706   8.987  12.444   3.620  0.2345  0.2033 -0.0665
27573W        W43707   2.139  16.038   1.283 -0.0125 -0.3633 -0.0098
27574W        W43708   6.388   1.252  13.195 -0.1521 -0.2713  0.0823
27575W        W43709   9.833  13.850   2.420  0.0378  0.3100 -0.2033
27576W        W43710   5.903  14.406   0.363  0.0937  0.3209 -0.0789
27577W        W43711  11.246   7.534  14.251 -0.3819  0.0120 -0.1290
27578W        W43712   0.832   6.858  13.147  0.2203 -0.4153 -0.0242
27579W        W43713  16.596  16.753  11.864 -0.0295 -0.0602  0.1333
27580W        W43714  18.091  16.188   1.440 -0.2270  0.3084 -0.0668
27581W        W43715   0.891   9.791   1.405  0.0273 -0.0689  0.0956
27582W        W43716   7.773   2.876  10.812 -0.0028  0.1470  0.1538
27583W        W43717   4.532   6.129   3.957  0.1653 -0.2616 -0.0789
27584W        W43718   3.270  10.111   0.219 -0.0280 -0.1412  0.1039
27585W        W43719  15.582  14.342   1.591  0.0025 -0.2373 -0.1969
27586W        W43720  10.017  17.385  10.953  0.2123 -0.0482 -0.3707
27587W        W43721   9.570  11.289   1.624 -0.0628  0.2896 -0.1951
27588W        W43722  17.082  15.788  12.915  0.1741 -0.0453  0.1808
27589W        W43723   7.124   8.756  11.421 -0.2729 -0.1892  0.2086
27590W        W43724  16.011  16.565  13.034 -0.0899  0.0240 -0.1122
27591W        W43725   9.732  11.722  15.119 -0.1478 -0.2758  0.1180
27592W        W43726  12.463   8.824   2.686 -0.1152 -0.0975  0.0199
27593W        W43727  14.848  12.250   2.447 -0.0826 -0.0031  0.1528
27594W        W43728  16.475  12.672   2.975 -0.2371  0.2032  0.0864
27595W        W43729  16.051  16.799  12.025 -0.0625  0.2796 -0.0915
27596W        W43730   1.567  16.667   3.535 -0.0745 -0.0621  0.1115
27597W        W43731  12.776   5.955  13.945 -0.1902 -0.1435  0.0618
27598W        W43732  15.845   4.839  14.853  0.0889  0.0813  0.2541
27599W        W43733  10.782   3.060   3.939  0.2001 -0.0719 -0.2320
27600W        W43734   3.664  14.616  11.519 -0.0814 -0.1467  0.1424
27601W        W43735   6.607  11.185  14.938  0.1909 -0.1823 -0.0686
27602W        W43736   7.763   3.136  13.591 -0.1252  0.0093 -0.1118
27603W        W43737   6.825   3.265  12.019 -0.2793 -0.0466  0.1919
27604W        W43738  16.976  17.648  11.486  0.1527 -0.0921  0.0254
27605W        W43739  18.666  13.771   1.723  0.1605 -0.2411 -0.0246
27606W        W43740   9.111  12.461   0.889  0.3640  0.1699 -0.2337
27607W        W43741   9.399   8.826   4.513 -0.0602  0.0683 -0.0538
27608W        W43742  17.654   5.731  11.769  0.0536  0.3634 -0.2645
27609W        W43743   4.672   2.476  13.191 -0.1718 -0.4463 -0.1695
27610W        W43744  16.513   3.585  15.055  0.2092 -0.2041 -0.2604
27611W        W43745   1.341  16.493  15.162 -0.0210 -0.1863  0.0020
27612W        W43746   6.609  16.901   4.598  0.0684 -0.1224  0.2624
27613W        W43747   9.789  17.887   9.925  0.0189 -0.1637  0.1351
27614W        W43748  13.125  14.557   4.477  0.1088 -0.0936  0.2903
27615W        W43749   4.344   7.503  12.668 -0.0001  0.1766  0.1606
27616W        W43750  12.878   4.061   3.345 -0.1156  0.0812 -0.1819
27617W        W43751  16.090   8.466  12.635  0.1897  0.0881  0.3033
27618W        W43752  14.802   3.995   0.070 -0.3139 -0.2379 -0.2159
27619W        W43753  10.288   6.350  11.440  0.1997 -0.2710 -0.2393
27620W        W43754  16.356   0.175   5.675 -0.1952  0.0735 -0.2817
27621W        W43755  18.617   3.295  13.912 -0.0612 -0.1451 -0.0252
27622W        W43756  18.043  17.733  12.422 -0.0602  0.0964  0.0453
27623W        W43757  15.974   0.989   2.952  0.1569  0.0265  0.1040
27624W        W43758   6.718   8.198  12.197  0.0953 -0.1089 -0.2263
27625W        W43759   6.256  15.184   2.320  0.0149 -0.0948 -0.0807
27626W        W43760  15.232   0.741   3.624 -0.1596 -0.1116  0.0961
27627W        W43761   4.898  14.749   1.302  0.0466 -0.0133 -0.1322
27628W        W43762  17.388   8.807   5.192 -0.1340  0.1657  0.0373
27629W        W43763  11.423  12.154  15.162  0.1121  0.2131 -0.1697
27630W        W43764   7.049   3.415  12.651  0.2247 -0.0726 -0.0289
27631W        W43765   2.971  17.462  14.137  0.0889 -0.4576  0.0452
27632W        W43766   5.120   2.268  14.976  0.0444 -0.1804  0.0780
27633W        W43767   4.325  17.241  15.319 -0.0079 -0.1057 -0.0712
27634W        W43768   2.203   0.105   1.263  0.2932 -0.2396  0.1057
27635W        W43769   1.336   9.115  12.879  0.2565 -0.1732  0.0240
27636W        W43770  17.123  13.399   2.284  0.1609  0.2411  0.1847
27637W        W43771  17.787   8.210   0.558 -0.0300 -0.1192 -0.1505
27638W        W43772   0.971   4.375  15.541 -0.2479 -0.1203  0.1076
27639W        W43773  10.595  17.485  13.404  0.0901  0.1782  0.0870
27640W        W43774   8.497   7.000   1.073  0.0266  0.1776  0.1154
27641W        W43775   2.383  13.847  12.541  0.0731 -0.0256  0.1823
27642W        W43776   4.400   3.957   1.465 -0.2054  0.1342  0.1528
27643W        W43777   3.243   1.621   0.650  0.1204  0.0287  0.0215
27644W        W43778   5.599  11.020  14.253 -0.1278 -0.1460 -0.1481
27645W        W43779   0.615   6.008   2.392 -0.1270 -0.1743  0.2269
27646W        W43780  16.130  18.417   0.393  0.5234  0.2855 -0.3341
27647W        W43781   4.356   6.536  12.642  0.2962 -0.1523 -0.1219
27648W        W43782   2.352  16.855   1.909  0.1298 -0.2445 -0.2220
27649W        W43783   7.634   8.044   4.110 -0.4116  0.1761 -0.1053
27650W        W43784   3.147  11.782   1.535  0.4709 -0.0371  0.1822
27651W        W43785  15.352   7.273   3.168 -0.0895  0.0106 -0.2171
27652W        W43786   6.746  18.312  15.245 -0.3071 -0.0863 -0.0279
27653W        W43787  17.416  12.409   3.727 -0.2625  0.2053 -0.2741
27654W        W43788  15.569  16.533  12.775 -0.0279  0.2789  0.1771
27655W        W43789   0.495   1.139  12.765 -0.0196  0.2297 -0.0481
27656W        W43790   7.742  10.168  13.116  0.0110 -0.1762  0.0139
27657W        W43791  12.596   3.512   2.537 -0.1239 -0.0240  0.2063
27658W        W43792   7.171  15.347   2.659  0.1045  0.1003  0.0653
27659W        W43793  15.047   7.600  11.744  0.2180 -0.1031  0.1321
27660W        W43794  10.093  12.594   1.665 -0.1566 -0.0916 -0.1033
27661W        W43795  15.696  13.682   1.110  0.1388 -0.2196 -0.1731
27662W        W43796  11.605  16.136   3.037  0.3155  0.3351 -0.2997
27663W        W43797   1.440   5.230   0.418  0.2239  0.1625  0.0230
27664W        W43798  10.309  11.937  11.576  0.0443 -0.1340  0.0475
27665W        W43799   2.866   7.139  14.293 -0.3133 -0.1078 -0.0193
27666W        W43800   4.489  13.091   4.949  0.2784 -0.2333  0.0163
27667W        W43801  11.486  16.287  12.744  0.2015  0.0489 -0.0503
27668W        W43802   6.140  17.835  11.532 -0.1632 -0.2241 -0.0996
27669W        W43803  18.339  13.112   0.581 -0.0739 -0.2955  0.2586
27670W        W43804  12.291   5.424   4.550  0.1189 -0.0953 -0.3149
27671W        W43805  13.961   9.947  14.220 -0.0316 -0.2916  0.1433
27672W        W43806  12.031  18.101  14.371 -0.1042 -0.1289 -0.0524
27673W        W43807  10.440   6.530   3.188  0.1498  0.0645  0.2429
27674W        W43808  11.225   8.204   2.987  0.0944  0.1413  0.2117
27675W        W43809   8.219   0.563   3.884 -0.0508  0.0373 -0.1766
27676W        W43810  10.723  12.929  10.980  0.0266 -0.0360 -0.0022
27677W        W43811  16.531   8.587   4.904  0.2573 -0.0386 -0.0789
27678W        W43812  14.859   5.374  13.895 -0.0779  0.2453 -0.4031
27679W        W43813   4.671   5.840  10.866 -0.0288  0.0239 -0.2245
27680W        W43814  12.950   2.320   0.732  0.1164  0.3513  0.2279
27681W        W43815  10.007  15.667   0.903  0.3313 -0.2431 -0.0748
27682W        W43816   2.648   2.786  14.468  0.2717 -0.0451 -0.0339
27683W        W43817   2.595   9.801   3.402 -0.0191 -0.0130 -0.0962
27684W        W43818  16.829   6.226  12.706 -0.0642  0.3522  0.0995
27685W        W43819   0.561   0.753   1.355  0.1528 -0.0652  0.0552
27686W        W43820   7.043  17.979  10.952 -0.1916  0.1453  0.0758
27687W        W43821  11.809  13.990   2.125  0.3172  0.0681 -0.3996
27688W        W43822  12.018   6.543   1.560 -0.1317  0.0806  0.2163
27689W        W43823  17.167  15.804   1.919 -0.1018 -0.0675  0.2349
27690W        W43824  15.826  13.072  13.835  0.2966  0.3649  0.1169
27691W        W43825   2.819   8.628   3.631  0.1324  0.1316  0.1847
27692W        W43826   5.866  16.153  15.392 -0.1105  0.0222 -0.0482
27693W        W43827  14.103   5.473  15.287 -0.1907  0.0234  0.1034
27694W        W43828   9.160  14.119  12.096  0.1813 -0.3119 -0.2095
27695W        W43829   8.313   8.530  13.666  0.1087 -0.3641 -0.1405
27696W        W43830  11.160   1.619   4.695  0.1677 -0.0639  0.1428
27697W        W43831   5.932   8.129   1.264  0.1257 -0.2047  0.1578
27698W        W43832  11.883  11.668   1.041  0.2792  0.0272  0.0685
27699W        W43833   9.963  15.204  11.441 -0.4192 -0.0684 -0.1894
27700W        W43834  15.271   7.322   0.180 -0.1398  0.0180  0.1276
27701W        W43835  17.827   6.375   3.546 -0.2433 -0.1506  0.1999
27702W        W43836   6.856   1.806   1.430 -0.1300 -0.1080  0.1104
27703W        W43837   2.437  10.195   5.149 -0.0272 -0.1417 -0.0246
27704W        W43838   5.249   5.923   0.002 -0.2015  0.0479  0.1783
27705W        W43839   0.514   8.408  15.413 -0.0519  0.5796 -0.1764
27706W        W43840  11.365   4.828   4.316 -0.1490 -0.1310 -0.0263
27707W        W43841   3.134  12.698  11.450 -0.1725  0.1997  0.0841
27708W        W43842   2.216  16.676   2.730 -0.1367 -0.1148  0.2278
27709W        W43843  10.547   5.140  15.468  0.2010  0.0927 -0.0560
27710W        W43844  14.772   1.068  15.428  0.0734  0.3187 -0.1329
27711W        W43845  12.482   2.557  12.358 -0.1604  0.3637 -0.2049
27712W        W43846  13.696   0.963   5.073  0.0920  0.1390 -0.1854
27713W        W43847   5.180  11.913   1.929 -0.2893 -0.0601  0.2667
27714W        W43848  11.369   6.695   2.691 -0.1581 -0.2682  0.1760
27715W        W43849   7.894   7.088   3.046  0.4002  0.5153 -0.0398
27716W        W43850  10.972  17.233  15.428 -0.1180 -0.0629  0.1805
27717W        W43851  14.492   6.880   1.580  0.0672 -0.0850 -0.0117
27718W        W43852  10.130   6.202   2.041 -0.0143 -0.0967  0.0690
27719W        W43853  18.317   8.623  15.494 -0.0402 -0.4510 -0.2468
27720W        W43854  16.586   6.746   0.613 -0.0376 -0.1788  0.1114
27721W        W43855   7.273   0.642  12.007 -0.2501  0.1728  0.3186
27722W        W43856   1.198   4.240   4.630  0.2330 -0.0272 -0.2764
27723W        W43857   8.214  14.615  14.132 -0.1933  0.0446 -0.0798
27724W        W43858   4.675  12.680  11.750  0.2647 -0.0603  0.0139
27725W        W43859  16.886   4.298  11.983 -0.1301  0.1552 -0.2260
27726W        W43860   1.751  16.726  13.220 -0.1457  0.2011  0.2247
27727W        W43861   5.456   6.789  15.124  0.0147 -0.0670  0.2015
27728W        W43862   4.764   5.165  13.985  0.2428  0.0102 -0.0697
27729W        W43863  17.869   1.960   0.215  0.2808 -0.0235 -0.3406
27730W        W43864  12.346   1.272  14.132 -0.2931  0.1462 -0.2946
27731W        W43865  15.640   2.042  15.061 -0.2401 -0.2249 -0.0483
27732W        W43866   6.647   8.475   2.115  0.3837  0.4822 -0.2669
27733W        W43867   2.965   9.417  10.427 -0.1960 -0.2784 -0.2388
27734W        W43868   2.837   1.481   5.075  0.0035  0.2512  0.0161
27735W        W43869   8.427   2.071  11.041  0.2144 -0.2030  0.1906
27736W        W43870  13.081   9.129  13.694 -0.2237  0.2627  0.0522
27737W        W43871   4.434   1.452   1.304  0.0568 -0.0190  0.0033
27738W        W43872  16.954   6.886  11.163  0.0213  0.1289  0.0751
27739W        W43873   4.340   0.009  12.201  0.0374 -0.5119  0.2555
27740W        W43874  10.720  15.164   1.614 -0.2033 -0.1671  0.0237
27741W        W43875   9.988   0.933  12.514 -0.0613  0.1312 -0.2858
27742W        W43876   3.587   1.692  11.489 -0.0416  0.1810 -0.0030
27743W        W43877   9.099   4.632  14.474 -0.1749  0.2046  0.0445
27744W        W43878   6.682   8.676  11.996  0.1299  0.1633  0.1647
27745W        W43879   1.266  12.508   3.249 -0.0402  0.1498  0.0898
27746W        W43880  15.242   3.908   0.798  0.1678  0.0332  0.1266
27747W        W43881   0.051   7.750   3.678  0.0776  0.0485 -0.3251
27748W        W43882   6.543   7.058   4.926 -0.2263  0.2711  0.0175
27749W        W43883   0.761   1.865   3.323 -0.0313  0.0546  0.0762
27750W        W43884   5.436   4.571  10.056  0.1629  0.0317  0.0688
27751W        W43885  15.857   4.052   2.169 -0.1924  0.1530  0.0588
27752W        W43886   3.141   9.094   0.095 -0.0049 -0.3735 -0.1515
27753W        W43887   5.452   9.583  14.957  0.0993  0.0176  0.1230
27754W        W43888  12.587  11.528   3.128 -0.0772  0.0354 -0.1729
27755W        W43889   4.630   6.490  15.264  0.1488 -0.3600  0.0755
27756W        W43890  17.666  18.108   5.273 -0.1239  0.1799  0.1103
27757W        W43891  16.739   7.203   1.770  0.0252 -0.0513 -0.1179
27758W        W43892   2.845  10.299   2.663 -0.1492 -0.1066  0.1555
27759W        W43893   5.320  10.877   4.682  0.1041 -0.1435 -0.2525
27760W        W43894   3.357   9.899  11.067  0.0202  0.5444  0.2606
27761W        W43895  14.248  11.714   0.957 -0.0599 -0.0779  0.1183
27762W        W43896  12.797  13.891   1.150 -0.0926 -0.0266 -0.1410
27763W        W43897   6.214  12.855  13.779 -0.0545  0.0683 -0.2546
27764W        W43898   9.711   8.678   4.886 -0.0776  0.2117 -0.1654
27765W        W43899   2.456   2.159  13.687  0.0090 -0.1043 -0.0025
27766W        W43900   8.003  14.433  15.018  0.1825 -0.2111 -0.2323
27767W        W43901  15.428   4.589  15.228  0.0335 -0.0828  0.1681
27768W        W43902   1.189   6.948  12.203 -0.0937 -0.1153 -0.0977
27769W        W43903  12.312  12.617  12.250  0.0480  0.0479  0.1820
27770W        W43904   9.509  13.982   3.943 -0.1551 -0.1462  0.0603
27771W        W43905  11.627  15.780   4.461 -0.1960  0.0290  0.3360
27772W        W43906  14.222  14.876  13.039  0.1181  0.2238  0.3582
27773W        W43907   7.804  18.519   4.428  0.0442 -0.1881  0.3056
27774W        W43908   8.877   0.009   0.003  0.1286  0.2280  0.3074
27775W        W43909  13.018   7.057  13.253 -0.0413 -0.0934 -0.0326
27776W        W43910   5.669   0.382   4.828  0.0887  0.0432 -0.2121
27777W        W43911   5.188   3.608   3.046 -0.0251 -0.1496 -0.2148
27778W        W43912  12.763  10.272  14.834  0.2259  0.0252  0.1214
27779W        W43913  14.508   7.168  10.948  0.2974 -0.0274  0.0369
27780W        W43914   5.807   4.703  13.919 -0.0096 -0.3069 -0.1684
27781W        W43915   6.178  10.271   1.713 -0.0948 -0.0288  0.2939
27782W        W43916   4.875   3.937   1.648 -0.0344  0.2742 -0.0698
27783W        W43917   5.355   6.055   2.145  0.0719  0.2005 -0.0620
27784W        W43918  18.545  18.405   2.374  0.1771  0.2931  0.1366
27785W        W43919  16.496   5.173  14.357  0.1732 -0.0514  0.0086
27786W        W43920   2.743  12.143  15.125  0.0489  0.1172  0.0046
27787W        W43921   3.318   6.539   5.754  0.0140 -0.0905  0.0438
27788W        W43922  16.252   5.836  10.939  0.1167 -0.3991  0.1141
27789W        W43923   4.357  11.048  13.647  0.2942  0.0966  0.2207
27790W        W43924   1.147  14.979  10.763  0.3690 -0.0016 -0.1418
27791W        W43925  10.361   9.527  11.025  0.0172 -0.0134  0.1019
27792W        W43926  13.831   0.740  12.384 -0.0802  0.1390  0.1904
27793W        W43927  14.316  12.100  13.864 -0.2627  0.2263 -0.1168
27794W        W43928   1.158  17.595   2.015 -0.4945 -0.2180  0.1483
27795W        W43929  16.465   9.761   4.509  0.1922 -0.2865  0.0559
27796W        W43930   1.057  14.001  12.569  0.0202  0.1788 -0.1185
27797W        W43931  16.152   5.027   2.585  0.0015 -0.2386  0.2615
27798W        W43932   4.757   8.666   1.803 -0.1209 -0.0566 -0.4504
27799W        W43933   5.725   1.393   2.529 -0.0492 -0.1750  0.0067
27800W        W43934   1.868   4.398  14.493  0.0977  0.1887 -0.0716
27801W        W43935   0.927  14.327   4.176  0.1364 -0.1630  0.1532
27802W        W43936   6.548   7.151   2.750 -0.0645 -0.2687  0.0149
27803W        W43937  15.245   9.343   3.462 -0.0700  0.0968  0.4025
27804W        W43938   3.792   5.478   0.180  0.1675 -0.1047  0.0589
27805W        W43939  18.009   6.206   0.379  0.0841  0.1797  0.2169
27806W        W43940  10.457   4.877  13.021 -0.0256  0.1107 -0.0431
27807W        W43941   7.286   3.879   4.693 -0.1742 -0.0110 -0.0385
27808W        W43942  11.473   6.904  12.140  0.1209 -0.1684  0.2542
27809W        W43943  15.408  13.545  11.065  0.1182 -0.4378  0.0622
27810W        W43944  16.566  12.690   2.470  0.1013 -0.0388  0.3028
27811W        W43945   2.575  17.404  10.882  0.0515  0.2189 -0.0008
27812W        W43946   5.283   3.277  12.861 -0.2560 -0.0439  0.1429
27813W        W43947  14.514  14.062  14.918 -0.2006  0.2665 -0.4311
27814W        W43948   8.008   9.161  14.002 -0.3361 -0.0679 -0.4587
27815W        W43949  17.039   2.996  13.268 -0.1727  0.1137 -0.0377
27816W        W43950  10.890  15.442   3.849  0.0761  0.3317 -0.0690
27817W        W43951   3.584  17.119  11.142  0.0783  0.0331  0.2298
27818W        W43952   2.347  14.807  14.694 -0.0155 -0.1224 -0.3019
27819W        W43953  15.580  10.717   0.082  0.0444  0.2503  0.1397
27820W        W43954   9.010  13.741  10.810 -0.0976 -0.0359  0.3206
27821W        W43955  14.737   5.492  14.619 -0.0665  0.0472 -0.0539
27822W        W43956   3.700   1.148   1.611 -0.0474  0.0466 -0.1967
27823W        W43957  17.745  13.415   3.053  0.2633  0.2382  0.1647
27824W        W43958  12.347   1.614  13.062  0.0283  0.0565  0.2900
27825W        W43959  17.124   4.058   1.075  0.0527  0.0454 -0.1451
27826W        W43960   5.429  17.023  14.278 -0.1545 -0.0167  0.0740
27827W        W43961   0.002  11.454   5.867  0.0141  0.3403 -0.2028
27828W        W43962   5.522   0.340  15.160 -0.3518  0.0672 -0.0869
27829W        W43963  12.903   8.581   2.645 -0.1602  0.1597  0.1752
27830W        W43964   4.414  12.351   1.969 -0.0715 -0.1239 -0.1898
27831W        W43965   7.265   4.512   0.705 -0.2604 -0.0133  0.0453
27832W        W43966   8.222   6.654   5.687  0.0329  0.0431 -0.2352
27833W        W43967  17.752   8.318   5.891  0.0087  0.2156  0.0982
27834W        W43968   6.452   7.202   2.203 -0.4307  0.0062  0.1864
27835W        W43969  15.941  15.810   1.358 -0.1164 -0.1218  0.0616
27836W        W43970   3.764  13.346   2.915  0.1327 -0.1233  0.0069
27837W        W43971   8.045  11.136  12.934  0.0133 -0.0267  0.0995
27838W        W43972  16.567  16.958   5.827  0.0072  0.4961 -0.0218
27839W        W43973   3.920  13.104  11.208  0.2035 -0.1273 -0.1176
27840W        W43974   9.083  16.463   3.673  0.0740  0.3235  0.0661
27841W        W43975   6.551   9.328   2.228 -0.2733  0.0869 -0.0843
27842W        W43976   8.471  12.726   4.240 -0.0870  0.1077  0.0825
27843W        W43977  17.942   7.389   4.833  0.1326 -0.0145  0.1627
27844W        W43978   3.031   4.673   5.127 -0.2184 -0.1079  0.1373
27845W        W43979  12.693   1.227   2.905 -0.0780 -0.2241  0.1536
27846W        W43980  10.025   8.811   2.027 -0.0172  0.3315  0.1524
27847W        W43981   6.195   4.788  14.665 -0.0205  0.1067  0.0222
27848W        W43982  15.996   1.799  13.307  0.2129 -0.2865 -0.0886
27849W        W43983   8.012  11.302  15.558 -0.0288  0.3570 -0.3618
27850W        W43984  16.472   8.647   4.444  0.0055 -0.0525 -0.0486
27851W        W43985   8.907   9.605  11.347 -0.1521  0.2934 -0.1936
27852W        W43986  10.277   5.716   3.634  0.5825 -0.2771  0.1224
27853W        W43987  14.789  15.933  11.430 -0.0966  0.1140  0.3489
27854W        W43988   9.875  14.933  15.186  0.0682  0.3825  0.0511
27855W        W43989  18.654   6.464  13.453 -0.1592  0.1331 -0.2145
27856W        W43990   8.991   5.010   0.989 -0.2408  0.0396 -0.0442
27857W        W43991   4.107   9.202  12.208  0.0399  0.1502 -0.2412
27858W        W43992  16.825   7.477   3.529 -0.0421 -0.0068 -0.3448
27859W        W43993   9.773   0.243  11.063  0.0287  0.1405  0.0209
27860W        W43994  12.696  15.759  15.519 -0.0215 -0.0716 -0.0013
27861W        W43995  18.262  18.379  13.163 -0.2282 -0.0175  0.2242
27862W        W43996   8.521   4.070   4.976 -0.1321 -0.0433  0.1559
27863W        W43997  16.245   7.217   3.943 -0.0851 -0.1583  0.1235
27864W        W43998  17.702   6.623  13.432 -0.2950 -0.0912  0.1627
27865W        W43999  16.091   0.572  13.247  0.2372 -0.1109 -0.3463
27866W        W44000  17.891   4.127  11.193  0.4776  0.2099  0.1454
27867W        W44001  16.519  13.716  12.619 -0.0879  0.0839  0.1113
27868W        W44002   7.784   1.892  14.008  0.1030  0.0909 -0.1849
27869W        W44003  16.577  16.359   0.350  0.4080  0.5756 -0.2522
27870W        W44004   5.906  15.756   5.085  0.0466  0.3116 -0.0405
27871W        W44005  16.312  18.589  15.564  0.3706  0.0271  0.0166
27872W        W44006   9.675  15.259  13.016 -0.0710 -0.0437  0.4181
27873W        W44007   4.710  16.623  10.695 -0.0673 -0.0296 -0.0832
27874W        W44008  15.679   0.008   0.295 -0.1327  0.2630 -0.2089
27875W        W44009  11.188   4.164   0.295  0.2553  0.0915 -0.1752
27876W        W44010   5.201  14.555   4.343  0.2789 -0.1057  0.3197
27877W        W44011   6.564   2.390   4.780 -0.2782  0.0488 -0.3174
27878W        W44012  17.436   2.141   0.086 -0.2851 -0.1555 -0.0173
27879W        W44013   2.154   3.557   0.925 -0.0045  0.0434 -0.0337
27880W        W44014   5.534   0.090   0.020  0.1338 -0.1587  0.1419
27881W        W44015   9.547   1.808  13.158 -0.0442 -0.1813 -0.2447
27882W        W44016   4.064   8.618  15.367 -0.2506 -0.3171  0.3321
27883W        W44017  16.771   3.700  13.528  0.0510  0.1945  0.3733
27884W        W44018  14.637  10.645  13.987  0.2558 -0.1761  0.0616
27885W        W44019   9.910  14.549  15.555  0.3207 -0.0259  0.0127
27886W        W44020   5.139  18.238  12.366  0.0582 -0.0523 -0.0853
27887W        W44021   8.136  12.704  10.789 -0.3676 -0.1559  0.0913
27888W        W44022  12.564   0.418   3.402 -0.0179 -0.0425  0.2673
27889W        W44023  14.091   7.688   1.162 -0.0592  0.1696 -0.0105
27890W        W44024  14.927   5.818   3.489 -0.0742  0.0786  0.3535
27891W        W44025  13.452   4.393   1.879  0.1827  0.0663 -0.0803
27892W        W44026  16.870  13.769   0.384 -0.0166 -0.0328  0.1418
27893W        W44027   9.711  10.972   0.062 -0.1075 -0.1272  0.1110
27894W        W44028  12.487  18.180   0.181 -0.2578 -0.4265  0.0947
27895W        W44029   6.501  11.629   0.663 -0.5178 -0.0208  0.3133
27896W        W44030  17.822  10.052   1.986  0.1801 -0.0092 -0.3534
27897W        W44031  17.456  17.764   0.489  0.2383  0.1299  0.0818
27898W        W44032   2.468   1.298  13.882  0.1269 -0.0278 -0.2044
27899W        W44033   9.602   7.558   5.134 -0.1776  0.1016  0.0048
27900W        W44034   8.270   7.986   4.104  0.3283  0.3094 -0.0491
27901W        W44035   5.858  13.534   2.687 -0.0266 -0.3624  0.0163
27902W        W44036   4.558   1.279  11.936  0.4075  0.0567  0.0124
27903W        W44037   3.449  12.745  10.229 -0.0843 -0.1793 -0.2107
27904W        W44038   0.268   3.320   3.959 -0.0395  0.1575 -0.0966
27905W        W44039   0.575  15.155  11.755 -0.0948 -0.1246  0.0030
27906W        W44040  18.291   3.924  11.319 -0.1724  0.0592 -0.2462
27907W        W44041   3.604  13.278   5.170 -0.0225  0.0629 -0.0162
27908W        W44042   6.762   9.093  14.566  0.2294 -0.1817 -0.2104
27909W        W44043   3.176   1.136  15.307 -0.2667  0.1223 -0.2869
27910W        W44044   1.726   5.638  10.773  0.1484 -0.2631  0.1893
27911W        W44045   7.274  18.094  14.043 -0.1591  0.0371  0.3603
27912W        W44046  14.180   7.063  13.184  0.2959  0.0612  0.3871
27913W        W44047  13.886   4.728  11.265  0.3017  0.0614  0.0149
27914W        W44048   0.311  11.222   0.537  0.1215 -0.1209  0.0543
27915W        W44049   9.656   1.706   2.805 -0.2333  0.2462  0.1028
27916W        W44050  13.892   4.326   0.617  0.1496  0.1149 -0.1928
27917W        W44051  18.387  18.291   1.487 -0.3625  0.0600 -0.0341
27918W        W44052   6.160   1.233   4.832 -0.4458  0.1135 -0.2671
27919W        W44053  15.914  11.344   3.170  0.2915  0.2387 -0.3884
27920W        W44054  11.685  13.812  10.924  0.2942  0.0605 -0.1743
27921W        W44055  13.728   6.225  10.914  0.0418 -0.1786  0.0869
27922W        W44056  11.936  11.973  15.137  0.4172  0.2286 -0.0351
27923W        W44057   5.330   8.573   2.013 -0.0355  0.1420  0.1593
27924W        W44058   4.876   8.226   3.805 -0.1076  0.0156 -0.0309
27925W        W44059   4.337   1.919  14.472 -0.0390  0.0565  0.3791
27926W        W44060   7.617   6.653  14.364  0.0402  0.2001  0.0945
27927W        W44061  13.656  18.575  15.229 -0.1839  0.1582 -0.0630
27928W        W44062   0.696   1.234  10.790  0.0399  0.0769 -0.3040
27929W        W44063   0.394   1.315  11.631 -0.1490  0.0468 -0.2260
27930W        W44064  15.611  12.949   1.409  0.0234  0.2023  0.3035
27931W        W44065   3.319   3.670   0.154  0.2108 -0.0446  0.2087
27932W        W44066  12.421  10.538  12.906 -0.0495  0.0010  0.1385
27933W        W44067   2.473   9.288   5.130  0.0831  0.3919  0.1264
27934W        W44068   1.508  11.048   1.843  0.0167 -0.1332  0.0728
27935W        W44069  15.797  14.110   2.585  0.1562  0.2675  0.1353
27936W        W44070   9.512  14.870  11.507  0.0728 -0.0971 -0.2094
27937W        W44071   0.674  12.419   1.012  0.1755 -0.4117 -0.1533
27938W        W44072   1.299  16.888   5.033 -0.0888 -0.1475  0.0436
27939W        W44073   6.953  16.078   0.401 -0.0135 -0.2282 -0.1198
27940W        W44074  14.284   0.141   3.372  0.3886  0.0289 -0.1871
27941W        W44075   2.720  17.158   5.613  0.0671  0.0813 -0.1765
27942W        W44076  14.890  16.589  11.212  0.1308 -0.0928 -0.2807
27943W        W44077   1.664   6.405  13.347  0.1494 -0.1304 -0.1118
27944W        W44078  18.286   0.545   2.415 -0.2885 -0.0260 -0.1148
27945W        W44079  14.169  15.455  14.230  0.0630  0.2874  0.0184
27946W        W44080  12.988   6.197  12.949  0.1078  0.1249 -0.4267
27947W        W44081   9.257   1.344   4.238 -0.2328  0.0613  0.0829
27948W        W44082   7.868   9.040  13.558  0.1416  0.2191  0.2247
27949W        W44083   2.192  16.878  11.018  0.0033 -0.0321 -0.1177
27950W        W44084   8.867   1.195   0.824  0.4094  0.0904  0.0891
27951W        W44085   5.476  15.809   4.850  0.0568 -0.0942  0.0819
27952W        W44086  12.470   6.098  12.682 -0.1296  0.2380  0.0357
27953W        W44087   4.382   9.424  14.030 -0.2796  0.1136  0.0873
27954W        W44088  15.202  13.764   4.647  0.0146 -0.0688 -0.0657
27955W        W44089   7.635   0.488   2.320  0.0377  0.0481  0.1494
27956W        W44090  18.118   0.554   1.478 -0.0583  0.0910  0.2699
27957W        W44091  13.741   0.387   4.532  0.1332  0.0351  0.1447
27958W        W44092   5.440  16.071  13.173  0.3167 -0.0191 -0.0683
27959W        W44093  10.832  13.245   2.037 -0.2155  0.0348  0.1094
27960W        W44094  10.020   6.624   5.768 -0.1414  0.1637 -0.4153
27961W        W44095   1.762   1.388  14.475  0.1904  0.0878 -0.3015
27962W        W44096  12.482   4.242  14.374  0.2304  0.0688 -0.0788
27963W        W44097  15.697   8.862  14.683 -0.3427  0.0555 -0.1058
27964W        W44098   7.829   3.748   1.841  0.2677 -0.0354 -0.0120
27965W        W44099  13.286  14.587  10.589 -0.2796  0.0403 -0.0661
27966W        W44100  11.179   9.762   0.653  0.0480  0.0462  0.2492
27967W        W44101  17.772  11.530   0.825 -0.2805 -0.0447 -0.1251
27968W        W44102   9.121   7.082   5.130 -0.1113 -0.1872 -0.1743
27969W        W44103  11.169   1.916   3.074  0.0242 -0.0347  0.0247
27970W        W44104  15.898  17.795   2.524 -0.1019 -0.0086 -0.0386
27971W        W44105   3.132   3.951  10.840 -0.0903 -0.1210 -0.2479
27972W        W44106   4.700   2.798   2.967 -0.0154 -0.0343  0.0532
27973W        W44107  14.504  15.495  10.573  0.0955 -0.2966 -0.1766
27974W        W44108  10.340   8.221  11.725 -0.1273  0.1252  0.2292
27975W        W44109  13.529   4.680   3.134  0.0039  0.2140  0.0111
27976W        W44110  16.199   8.089   3.704  0.1069  0.5407 -0.0312
27977W        W44111   3.025   4.967  13.534 -0.0390 -0.2430 -0.2378
27978W        W44112   6.218   9.569   0.580 -0.0315 -0.0238  0.1197
27979W        W44113   6.801  16.669   2.894  0.1494  0.0096 -0.1433
27980W        W44114  11.788  12.342  15.451  0.0118 -0.0767 -0.0706
27981W        W44115   0.271  16.733   2.852 -0.0458 -0.0623  0.1000
27982W        W44116   2.808   2.447  12.085 -0.0086  0.1700  0.2135
27983W        W44117   7.471   8.276  13.256  0.0975  0.0809 -0.0466
27984W        W44118   5.900   8.453   3.908  0.2542  0.0304 -0.0259
27985W        W44119  18.236  13.990   2.941  0.0738  0.0524 -0.2605
27986W        W44120   9.281  14.507   0.222  0.0583 -0.2904  0.0527
27987W        W44121  17.236   6.525  13.660  0.1937 -0.3806  0.2263
27988W        W44122  10.434  14.359  14.465  0.1476  0.1657  0.0352
27989W        W44123   0.526   1.685   1.261  0.1767  0.1824 -0.1160
27990W        W44124   4.660   6.205   2.870  0.1120 -0.0014 -0.3035
27991W        W44125   8.683  16.241  11.107 -0.2808 -0.0853  0.0944
27992W        W44126   0.605  12.007   2.543 -0.1057  0.0512 -0.0154
27993W        W44127  12.492  10.273   4.379  0.0014 -0.3812 -0.0996
27994W        W44128  14.794  11.301   4.065  0.0198  0.1144 -0.0509
27995W        W44129  14.251  18.057  12.426  0.0081  0.0511  0.3969
27996W        W44130  11.724  15.653  10.985 -0.1537  0.0542 -0.1437
27997W        W44131   2.351   5.156   5.383  0.0684 -0.1212  0.2302
27998W        W44132  12.125  15.117  13.860  0.0660  0.2187 -0.1950
27999W        W44133   5.123  15.685  13.228 -0.0608  0.2194 -0.1437
28000W        W44134  18.413   9.121  11.086  0.2071  0.0166  0.2669
28001W        W44135   5.291   4.560  10.960 -0.2881  0.1843 -0.3681
28002W        W44136   0.318   1.519  12.452 -0.0595  0.0319  0.2669
28003W        W44137  14.784   8.406  14.771  0.2971 -0.1839  0.0976
28004W        W44138  15.263   9.894   1.275  0.1951  0.1056 -0.0012
28005W        W44139  17.228  15.666  14.729 -0.0873  0.1355 -0.3109
28006W        W44140   5.993   4.555   1.998  0.1579  0.1469  0.4091
28007W        W44141   8.731   2.875  11.786  0.0103 -0.2453 -0.1298
28008W        W44142  15.214  10.148  10.745  0.0804  0.5008  0.2706
28009W        W44143  11.424   4.112   2.925  0.1005 -0.0775  0.1227
28010W        W44144  13.123  10.221  13.634  0.2453 -0.1572 -0.1920
28011W        W44145  14.825  10.217   0.136 -0.0719  0.1943  0.2088
28012W        W44146   7.965   4.113  12.402  0.0794 -0.0594  0.2231
28013W        W44147   5.108  18.013   0.725 -0.1143 -0.2898  0.2806
28014W        W44148   4.579   1.325   4.171  0.0189 -0.2132  0.0811
28015W        W44149  15.959   9.778   4.666 -0.0231 -0.0718  0.1598
28016W        W44150  17.379  16.471   4.968 -0.0258  0.1770 -0.0311
28017W        W44151  15.233   2.833   4.678 -0.0628 -0.0819  0.1977
28018W        W44152  12.062   6.530  12.636 -0.1056 -0.1964 -0.2386
28019W        W44153   1.591   1.340  13.755 -0.0398 -0.0436 -0.0437
28020W        W44154  12.120   8.425   2.807  0.0136  0.0886 -0.1855
28021W        W44155  12.479  14.766  10.535 -0.0585 -0.1085 -0.1738
28022W        W44156  17.973   1.942  11.351  0.0905 -0.1820  0.1410
28023W        W44157   2.464  18.413  14.450  0.3784 -0.1390 -0.0337
28024W        W44158  13.697  12.254   2.053  0.1233 -0.0666 -0.2001
28025W        W44159   5.523  13.901   3.665 -0.0982 -0.0103 -0.1017
28026W        W44160   0.572  13.473  14.939 -0.1960  0.3317  0.4042
28027W        W44161  15.575  15.185   1.110  0.1771  0.2171  0.0325
28028W        W44162   9.953   2.034  13.878  0.3148  0.1158 -0.1318
28029W        W44163   3.884  13.971   0.571  0.1582  0.0021  0.3021
28030W        W44164   6.404   3.917   4.820  0.0019 -0.3768  0.1819
28031W        W44165   4.036   4.929  13.588  0.0466  0.0368  0.0508
28032W        W44166  12.482   2.511  15.474  0.3919 -0.1047 -0.0401
28033W        W44167  12.729   5.123  14.434  0.0784  0.3233  0.2581
28034W        W44168   4.988  15.175  15.326  0.0906  0.1527  0.1012
28035W        W44169   6.513   3.169   1.440 -0.0236 -0.0431  0.0533
28036W        W44170   3.874   0.322  14.500 -0.0376 -0.2164 -0.3007
28037W        W44171  18.023  16.300  12.822 -0.0180  0.2054  0.0473
28038W        W44172  18.713  16.375   3.822  0.0582 -0.0247 -0.1925
28039W        W44173   6.690  10.175   4.594  0.1185 -0.1489 -0.2168
28040W        W44174  13.837   8.905   0.300 -0.0263 -0.1561 -0.2132
28041W        W44175   7.411   7.814  13.471  0.2976 -0.1402  0.0070
28042W        W44176   6.402  16.836  12.339 -0.2022 -0.0029 -0.1790
28043W        W44177   0.942  12.540   4.515  0.2402  0.2623  0.1670
28044W        W44178   9.456  18.520  10.767  0.2258 -0.1057 -0.1581
28045W        W44179  17.407   1.984   4.340 -0.1715 -0.1105 -0.0871
28046W        W44180   5.177  18.042   2.211 -0.2436 -0.4831 -0.1792
28047W        W44181  11.926  12.294   3.721  0.0498  0.2760 -0.4064
28048W        W44182   1.990  15.921  12.416 -0.0558  0.4354  0.0679
28049W        W44183   8.957  16.350  15.116  0.0243  0.0818  0.0804
28050W        W44184   4.951  10.689   2.777 -0.1417 -0.0121 -0.2171
28051W        W44185  17.211   9.033  15.075 -0.0548  0.1154  0.0791
28052W        W44186  13.949   4.510   1.736  0.2643  0.0358  0.1597
28053W        W44187  10.894  11.384   0.295  0.1375  0.2629 -0.0673
28054W        W44188   0.085   9.990  14.315  0.0634  0.1928  0.2574
28055W        W44189  16.906  16.679  12.631  0.2098 -0.1521 -0.2922
28056W        W44190  16.284  11.676   3.406  0.0065  0.0390 -0.0893
28057W        W44191  13.567  13.097  13.474  0.0572 -0.1086 -0.1313
28058W        W44192  14.002   5.795   3.691  0.1631 -0.2277  0.4417
28059W        W44193  16.575  18.395   5.124  0.0442  0.3431  0.1866
28060W        W44194  11.845   4.408  12.234  0.0772 -0.1979  0.2777
28061W        W44195   7.655   5.281   0.842 -0.2424  0.0842  0.1155
28062W        W44196   9.276   2.913   3.148  0.0546  0.1432 -0.1390
28063W        W44197   0.781   2.182  13.791 -0.1372  0.0183  0.3073
28064W        W44198   5.604   3.577  11.047 -0.0601 -0.2378 -0.0021
28065W        W44199  14.376  14.735   5.016 -0.3366  0.1138  0.0950
28066W        W44200  15.711   6.406  10.869 -0.2472  0.0815 -0.0756
28067W        W44201   6.514   4.465   2.859  0.2330 -0.2743 -0.0269
28068W        W44202   9.714  14.207  12.110  0.0530 -0.0959 -0.1979
28069W        W44203  15.038   3.756  15.013  0.1935  0.0130 -0.0057
28070W        W44204   9.523   1.939  15.279  0.1209 -0.2567 -0.4532
28071W        W44205   4.771  14.554   3.412 -0.0483 -0.0877 -0.1393
28072W        W44206  16.840   0.562   0.941  0.0316 -0.2028 -0.0020
28073W        W44207   7.211  16.434   3.932 -0.2355 -0.1917 -0.0755
28074W        W44208  14.602   0.389   3.114 -0.2852 -0.0079  0.0086
28075W        W44209   0.413   6.612   0.986 -0.3872 -0.0267  0.1571
28076W        W44210   0.668   4.376  12.113 -0.2676  0.1454  0.2467
28077W        W44211  18.551  13.056   4.624  0.1511 -0.0607 -0.0188
28078W        W44212   0.134  17.758  11.824  0.1698  0.1473  0.0209
28079W        W44213  17.358   2.860   4.724  0.0050  0.1598 -0.1303
28080W        W44214  17.167   3.426  13.633 -0.2911  0.1454 -0.0056
28081W        W44215  13.021  15.837   3.120 -0.0838  0.1453 -0.2336
28082W        W44216   9.021   5.604  12.145  0.1708  0.1558 -0.1499
28083W        W44217   3.289   3.307   4.356 -0.2215 -0.1562  0.3191
28084W        W44218   6.293  11.839  12.754  0.1931 -0.1775 -0.0515
28085W        W44219   9.359  13.843  13.620  0.1440 -0.0713  0.1961
28086W        W44220  17.099  11.816  15.413 -0.3913 -0.0703  0.3659
28087W        W44221   7.312   3.029   2.121 -0.1482 -0.3124 -0.4589
28088W        W44222   8.190  18.377   2.603 -0.3196  0.0094 -0.0428
28089W        W44223   3.866  11.946   2.625 -0.0649 -0.1342  0.0874
28090W        W44224  11.358  15.795  14.027  0.0295  0.0803  0.2597
28091W        W44225   2.622   2.494   5.169  0.0836 -0.0233  0.0446
28092W        W44226   0.590  11.076  14.441  0.1706 -0.0959  0.1019
28093W        W44227   7.472  10.372  11.980 -0.0025 -0.1027 -0.2844
28094W        W44228   1.884  11.175  15.057 -0.1634 -0.2274 -0.1271
28095W        W44229   9.392   6.870   1.530  0.1069  0.0156 -0.1313
28096W        W44230  17.132   5.328   0.591  0.1128 -0.0802 -0.0129
28097W        W44231   8.472  17.802   0.933  0.2127  0.1267  0.0091
28098W        W44232   5.206   0.108  14.780 -0.0518  0.0138  0.3737
28099W        W44233   3.367  17.169   3.119 -0.1887  0.2465 -0.2036
28100W        W44234  18.563  10.327   4.805  0.0360 -0.1760  0.1635
28101W        W44235   1.096   4.115   4.011  0.3085 -0.1070  0.0943
28102W        W44236   9.334   9.558   4.758 -0.0555  0.2087  0.3016
28103W        W44237   1.539  11.649   4.499  0.2258  0.0790 -0.1941
28104W        W44238  15.524  16.709   3.166 -0.0122  0.1880 -0.0685
28105W        W44239   0.278  13.634   2.760  0.0793 -0.2389  0.3183
28106W        W44240  10.206   4.385  11.024 -0.0310 -0.0478 -0.1611
28107W        W44241   2.993   9.964   1.049 -0.1143  0.1663 -0.2448
28108W        W44242   7.737   3.087   2.433  0.3295  0.1532  0.2162
28109W        W44243  11.956  13.263   4.990  0.6590 -0.1797 -0.0260
28110W        W44244  12.153   3.574   0.090  0.5275  0.0256 -0.0225
28111W        W44245   8.744  17.818  13.067 -0.0073  0.1438  0.0647
28112W        W44246   7.628   0.199  13.852  0.1547  0.0068 -0.1900
28113W        W44247   2.413  18.558   5.137 -0.1273 -0.0757  0.0684
28114W        W44248   0.092  17.965   1.364  0.1810  0.0224 -0.0697
28115W        W44249  10.876  16.329  12.521 -0.0795 -0.0836  0.0697
28116W        W44250  12.333  16.670  11.166  0.1884  0.2081 -0.3618
28117W        W44251  14.318   6.964   5.025  0.4219  0.2207 -0.0764
28118W        W44252  14.658  17.994  11.491 -0.1827  0.3720 -0.2301
28119W        W44253  10.575   2.489   4.670  0.0982 -0.0284  0.2845
28120W        W44254   8.218  12.809   1.850 -0.0099  0.1855 -0.1226
28121W        W44255   0.513  12.853  10.244  0.1036 -0.2724 -0.1002
28122W        W44256  14.681  12.859  12.438 -0.1155 -0.1060  0.3139
28123W        W44257  18.711   9.205   2.764  0.1901  0.0757 -0.0982
28124W        W44258  17.858   1.329  13.191 -0.2036  0.1593  0.1405
28125W        W44259  13.046   5.227   2.012  0.0638  0.0209  0.1531
28126W        W44260  13.878  16.607  14.217 -0.2195 -0.0634 -0.1359
28127W        W44261  11.192   0.110   2.752  0.0072 -0.3652  0.0007
28128W        W44262   2.528   4.264   5.463  0.0358 -0.1904 -0.0997
28129W        W44263  11.235   0.158  15.524  0.0586  0.3102 -0.4439
28130W        W44264   2.241  12.740  11.498  0.1538 -0.3592 -0.1505
28131W        W44265   6.200  16.507   1.692  0.1919  0.1125 -0.0705
28132W        W44266   8.196  18.520  13.363  0.1069  0.3607 -0.2017
28133W        W44267   6.429   6.558  15.031  0.1637 -0.3336  0.0758
28134W        W44268  12.093  18.573  13.738  0.1404 -0.1346  0.5023
28135W        W44269   7.119   9.024   2.084  0.1220 -0.0913 -0.2559
28136W        W44270   6.660   5.288   1.141 -0.1802  0.1971  0.0888
28137W        W44271  18.143   8.636  13.242 -0.2021  0.3763  0.1400
28138W        W44272   0.210  15.128   1.085  0.1501 -0.2119 -0.0691
28139W        W44273   0.213  12.907   3.021  0.0066  0.2408  0.0005
28140W        W44274   3.579  12.084  14.057 -0.1999  0.0955 -0.0315
28141W        W44275  13.838  18.256   4.739  0.2752 -0.0400 -0.0990
28142W        W44276   7.392   7.612   2.726  0.0029 -0.3413 -0.5509
28143W        W44277   0.435  13.904  13.684  0.1644  0.3337  0.0827
28144W        W44278   7.342   6.606   5.110  0.3051  0.0227  0.3326
28145W        W44279   7.105  15.309   3.431  0.0981  0.0356 -0.1362
28146W        W44280   1.880   5.506   4.389  0.0680 -0.0937  0.2124
28147W        W44281  16.970   5.278   5.761  0.0504  0.0316 -0.1697
28148W        W44282   0.073  12.671  13.362  0.1179  0.0606  0.0870
28149W        W44283  11.077   0.450  14.620  0.0047  0.2198 -0.0437
28150W        W44284  12.314  18.028  15.022  0.4463  0.2407  0.1589
28151W        W44285  12.042   1.569  15.415 -0.2038 -0.1826  0.1884
28152W        W44286   5.166   5.911  12.716  0.3836  0.1923  0.0866
28153W        W44287  18.713   4.208  13.061  0.0945  0.1637  0.2173
28154W        W44288   8.540   6.139  13.216 -0.1882 -0.2029 -0.2312
28155W        W44289   2.758   7.702  14.353 -0.1779 -0.0652  0.0272
28156W        W44290  15.506   4.057  13.702  0.1396 -0.0806  0.2439
28157W        W44291  18.658   7.912   2.074 -0.1093  0.2742 -0.0248
28158W        W44292  16.768   2.681   5.239 -0.0606  0.0683 -0.1018
28159W        W44293  12.904   0.420  13.607  0.0038 -0.1342  0.0430
28160W        W44294  12.046   8.750   3.781 -0.2214 -0.2239  0.0163
28161W        W44295   9.501  16.386   0.556 -0.2460  0.0820  0.1348
28162W        W44296   8.983   7.945   0.685  0.0008  0.0501  0.5864
28163W        W44297  17.690   7.954  13.230  0.1795  0.1477  0.0775
28164W        W44298  14.356  15.690  11.557  0.1911 -0.0577  0.4035
28165W        W44299   0.900  12.688  14.026  0.0926 -0.3529 -0.1498
28166W        W44300   1.679  10.565   2.058 -0.0008 -0.3317  0.1095
28167W        W44301  13.904   7.166  13.765  0.0512 -0.0503  0.0110
28168W        W44302   1.395  12.867  11.141 -0.1081 -0.0138  0.0239
28169W        W44303  17.610  15.827  13.863  0.1224 -0.1165 -0.3128
28170W        W44304   9.329  12.070  14.015 -0.2302  0.0620 -0.0684
28171W        W44305   7.740   4.383   0.728  0.1084 -0.0142  0.2600
28172W        W44306   1.627   2.456  14.485 -0.1624  0.1300  0.2707
28173W        W44307   5.370  17.350  13.352 -0.3458 -0.2658  0.1492
28174W        W44308  12.757   0.461  11.328  0.3440  0.1431 -0.0690
28175W        W44309   0.159   9.833   3.741 -0.1512 -0.4441 -0.0359
28176W        W44310   2.933  10.004  11.337 -0.2637 -0.0129 -0.1232
28177W        W44311   3.998   9.078  15.195 -0.0669 -0.2164  0.2288
28178W        W44312   8.703   0.468  15.334  0.0244 -0.1310 -0.2038
28179W        W44313   1.806   5.372   3.566  0.2183 -0.1027  0.2157
28180W        W44314  12.811  14.327  15.223 -0.2827 -0.0247  0.0892
28181W        W44315   9.848   5.159  14.300  0.2485 -0.0397  0.1442
28182W        W44316  12.790  11.229  13.617 -0.0468 -0.1582  0.4020
28183W        W44317  14.311  14.989  10.626  0.0324 -0.1754  0.0395
28184W        W44318  13.001  13.984   5.684  0.1724  0.1162  0.1557
28185W        W44319   1.366  18.018  15.469  0.1984  0.1777 -0.0052
28186W        W44320  16.174  17.967  14.235 -0.0850 -0.2483 -0.0717
28187W        W44321  11.547  16.442   3.458 -0.3661  0.0409 -0.4684
28188W        W44322  12.029  11.260  11.776 -0.1863 -0.1095  0.0276
28189W        W44323   7.034  10.520  13.442  0.0788 -0.0370  0.1324
28190W        W44324   3.202  17.003   3.731  0.2302  0.2525 -0.0006
28191W        W44325  16.135  11.163  11.699  0.0446 -0.1802  0.2135
28192W        W44326  11.005  10.557   4.318 -0.2864  0.1094  0.1882
28193W        W44327   5.508   9.197  13.326  0.1280 -0.1552 -0.0064
28194W        W44328   0.448  14.544  12.068  0.0656 -0.3450 -0.3709
28195W        W44329   9.089  16.031  13.091 -0.2297 -0.1038 -0.0868
28196W        W44330   5.218   2.793  11.013  0.0820 -0.0746 -0.1438
28197W        W44331   4.990  11.660  13.347  0.1140 -0.0570 -0.1042
28198W        W44332   5.621  13.378  13.767  0.0560  0.4224 -0.1605
28199W        W44333   6.002  17.274   2.700  0.1852  0.0176 -0.3105
28200W        W44334  11.866   1.928  12.126  0.4632 -0.2770  0.1043
28201W        W44335  17.690  18.295   1.072  0.0659  0.2028 -0.0443
28202W        W44336  16.815   0.469   3.813  0.1707 -0.1821  0.0133
28203W        W44337  12.108   8.960  10.775 -0.0190  0.4613  0.2346
28204W        W44338  15.964   7.651  14.503 -0.4646 -0.2977 -0.4015
28205W        W44339   9.429  12.058  11.814  0.0847 -0.1694  0.0171
28206W        W44340  16.154   4.029  11.020  0.0288 -0.1746 -0.3789
28207W        W44341  13.042   1.949   5.437  0.2967 -0.0703 -0.0721
28208W        W44342  17.017  16.718   0.251 -0.1155 -0.1930 -0.0378
28209W        W44343   8.176  13.636  13.781 -0.0320  0.1813  0.1038
28210W        W44344  12.519   5.932  13.126  0.0236 -0.0190 -0.0821
28211W        W44345  17.187   7.308   3.861 -0.3191  0.1596 -0.2946
28212W        W44346   3.011  15.834  12.514 -0.0578  0.1161  0.0682
28213W        W44347  11.726   9.298   4.095 -0.1314  0.3713  0.1268
28214W        W44348   8.359   5.662  14.064 -0.1518 -0.1367  0.0909
28215W        W44349  10.687   6.518   1.112 -0.0231 -0.0925  0.1358
28216W        W44350  15.729   6.005   1.562  0.0538 -0.4385 -0.2778
28217W        W44351  13.365  10.370  12.242  0.0070  0.2202 -0.0905
28218W        W44352   0.919   6.498  14.625 -0.2102 -0.0586 -0.1211
28219W        W44353  16.904   8.769  10.860 -0.2708  0.0920  0.1374
28220W        W44354  11.101   3.547  12.968  0.2264 -0.0188 -0.0406
28221W        W44355  10.505  17.929  13.264  0.4674  0.0470  0.1556
28222W        W44356   8.827  14.607   4.124  0.0512  0.0702 -0.3273
28223W        W44357  14.498   8.436  11.752 -0.1595 -0.1444  0.0035
28224W        W44358  11.618  12.332  11.118 -0.2824  0.0328 -0.0055
28225W        W44359   3.724   7.945  13.398 -0.0693  0.0095 -0.0382
28226W        W44360   6.085   4.961   2.797 -0.2291 -0.0233  0.1516
28227W        W44361   4.234  14.437   1.425 -0.0654 -0.0990 -0.1032
28228W        W44362  15.812   6.895  13.262 -0.1438  0.2042  0.1202
28229W        W44363   3.010   2.971  14.139  0.2934  0.3321  0.0628
28230W        W44364  15.124  17.885   2.316 -0.0399  0.0861  0.1424
28231W        W44365   1.194   6.452   5.285  0.1190 -0.0143 -0.0061
28232W        W44366   6.082  13.320  13.708  0.0737 -0.1437  0.2111
28233W        W44367  17.300  10.990  14.811  0.0446 -0.2198  0.0438
28234W        W44368   5.831   5.307  10.646 -0.0745  0.2829  0.2695
28235W        W44369  10.522   5.898   5.419 -0.1379 -0.2024 -0.1383
28236W        W44370  13.267   4.030   2.626 -0.0666  0.0161  0.2029
28237W        W44371  15.788  15.112  13.398 -0.0297 -0.4731  0.1124
28238W        W44372  15.008  13.439  11.265 -0.0262  0.2599 -0.0232
28239W        W44373  17.475  18.722   1.370 -0.1717 -0.2133 -0.3065
28240W        W44374  14.721  17.391  13.298  0.2037 -0.1974 -0.0690
28241W        W44375   1.336   5.027   2.433 -0.0243  0.0178  0.2108
28242W        W44376   2.160   6.209   0.291 -0.2442 -0.2236 -0.1132
28243W        W44377   7.993   0.917   4.167  0.1621 -0.0797 -0.2734
28244W        W44378   2.439  12.583  15.087 -0.0422 -0.1017 -0.0075
28245W        W44379  15.607  16.035   0.778  0.2924 -0.2084 -0.2348
28246W        W44380   4.622   3.505  11.828 -0.0495 -0.1808  0.0627
28247W        W44381  12.770  15.582   4.567 -0.0444  0.0812  0.1133
28248W        W44382   6.139  15.468   4.390 -0.0428 -0.0938 -0.1677
28249W        W44383  13.723  13.108  12.545  0.0155  0.3848 -0.2008
28250W        W44384  15.112  14.752   2.501  0.1648  0.0829  0.0485
28251W        W44385  14.790  17.533  15.069  0.2896  0.1100  0.0179
28252W        W44386   4.187  14.612   0.109 -0.2419 -0.2743 -0.3074
28253W        W44387   9.018  17.630   2.335 -0.1070 -0.0248  0.2121
28254W        W44388   7.783   5.742  10.987  0.1360  0.2595  0.0478
28255W        W44389   5.165  11.949  12.673 -0.0054 -0.1984  0.2809
28256W        W44390   2.414   7.122   0.034  0.0082 -0.3866  0.5300
28257W        W44391  14.779   9.604   0.539  0.0427 -0.2261 -0.1554
28258W        W44392  17.244  13.852   2.013 -0.1382 -0.1353 -0.1444
28259W        W44393   3.200   6.322  13.677 -0.0808 -0.0736  0.3395
28260W        W44394   1.021  16.510   5.804 -0.0531 -0.0425  0.0881
28261W        W44395   8.455  14.251   4.717  0.1736  0.0103 -0.1272
28262W        W44396  13.657   3.870   0.075 -0.2759 -0.2030 -0.1418
28263W        W44397  16.561  10.707  13.824  0.0949  0.0409 -0.0524
28264W        W44398   2.719  12.401  11.289 -0.0489 -0.1331 -0.3331
28265W        W44399   2.334   5.075  12.891  0.3077  0.0769 -0.0233
28266W        W44400   7.761   1.997  11.691 -0.3878  0.0260 -0.0525
28267W        W44401   0.356   9.420   4.030 -0.1487 -0.1818  0.0808
28268W        W44402  13.606   7.496  12.767  0.0164 -0.2318 -0.0901
28269W        W44403   1.256  11.808   0.803 -0.1005  0.0555  0.0318
28270W        W44404  10.690  17.648  12.009  0.0233 -0.1153  0.0375
28271W        W44405  11.339  13.098   0.202 -0.0172 -0.0419  0.0286
28272W        W44406   7.457   8.518  11.112 -0.0110 -0.1649  0.1053
28273W        W44407  13.904   6.793   2.945 -0.0462  0.2134 -0.1862
28274W        W44408  10.434   5.747   2.110  0.5889  0.0511  0.0331
28275W        W44409  16.776   9.666   0.645 -0.1772 -0.1714  0.0342
28276W        W44410  11.851   1.550   3.812 -0.0151  0.0407 -0.0013
28277W        W44411   9.150   0.353   4.278  0.1681 -0.0933  0.0304
28278W        W44412   2.164  17.624  14.105  0.2393 -0.1100 -0.1915
28279W        W44413   1.586  13.964   5.148 -0.3149  0.3711  0.2722
28280W        W44414  15.772   5.890  10.845 -0.1284  0.0101  0.1045
28281W        W44415  14.455   6.048   1.155 -0.0688 -0.0400 -0.2673
28282W        W44416  16.388  13.734   3.401 -0.1662 -0.2838 -0.1224
28283W        W44417  13.405  11.613  11.757 -0.0395  0.1057 -0.3032
28284W        W44418   9.005  13.408   3.487 -0.1545  0.3018  0.1272
28285W        W44419  10.115   8.338   1.845 -0.1024  0.2618  0.1837
28286W        W44420   7.579  15.084   1.881 -0.3384 -0.1097 -0.0493
28287W        W44421   5.643   9.364   2.963  0.1329  0.1739 -0.1155
28288W        W44422  15.295  16.054   5.005 -0.1022  0.0794  0.1735
28289W        W44423  11.987  12.018  10.983 -0.2487  0.1070  0.1746
28290W        W44424   6.253  18.414  15.531  0.2911 -0.1855  0.2166
28291W        W44425   4.495  16.146   0.416  0.3969  0.4003 -0.2389
28292W        W44426  17.233   5.328  14.630  0.0419  0.0562 -0.0571
28293W        W44427  11.044  10.974  12.811  0.1104  0.0589  0.0877
28294W        W44428  17.106   8.638   4.796  0.1815  0.1060 -0.0550
28295W        W44429   0.077   1.607   1.061  0.0964 -0.0055 -0.3434
28296W        W44430   6.916  14.531   2.269  0.4413  0.2992 -0.3437
28297W        W44431   5.760   0.450   2.978  0.1547  0.3215  0.0032
28298W        W44432   0.623   4.374   3.835 -0.0634 -0.1283 -0.2658
28299W        W44433   7.504  10.262  12.674  0.2353 -0.2354 -0.1822
28300W        W44434  15.594   4.036   3.004  0.0135 -0.1102 -0.0654
28301W        W44435   7.858   1.412  12.206  0.1220  0.1558  0.1457
28302W        W44436   4.854  12.635   4.428 -0.1462  0.3397 -0.0534
28303W        W44437   3.084  17.386   1.615 -0.0452  0.2244  0.0265
28304W        W44438   6.724   7.478  11.658 -0.3222 -0.0876 -0.1471
28305W        W44439   4.196   1.102   3.370 -0.1382 -0.0424  0.0741
28306W        W44440  18.201   8.079  14.375 -0.3168 -0.1227  0.0649
28307W        W44441   1.918   5.105   4.042  0.1139 -0.1505  0.0242
28308W        W44442  11.439   5.462  13.744 -0.1331  0.1243  0.0350
28309W        W44443  18.595  12.409   5.408 -0.2603 -0.5241  0.3453
28310W        W44444  10.368   0.655  11.631 -0.2350 -0.2175 -0.1425
28311W        W44445   5.004  13.165   0.127  0.0170 -0.2461 -0.2152
28312W        W44446   0.050  18.510  14.758 -0.1191 -0.2244 -0.1013
28313W        W44447   2.418  12.025  12.706  0.0595  0.0015 -0.0143
28314W        W44448  14.151  10.159   2.271  0.4407 -0.1092  0.0789
28315W        W44449  18.386   1.353   3.852  0.0310 -0.0707 -0.0386
28316W        W44450   8.075   7.663   4.443  0.0339 -0.1349 -0.1526
28317W        W44451   7.174  16.429   2.659  0.4068 -0.1074 -0.4291
28318W        W44452   4.777  18.671   5.271 -0.1491  0.2177 -0.2242
28319W        W44453  13.913  10.120  13.720  0.1326 -0.0415  0.0652
28320W        W44454  16.334   3.248  14.345  0.1455  0.2720  0.1511
28321W        W44455   1.939   9.106  13.653  0.2781  0.4707 -0.2426
28322W        W44456  10.117   1.359  14.531 -0.0363  0.0895 -0.1347
28323W        W44457  14.866  12.648  11.489  0.0128  0.0322 -0.1355
28324W        W44458  12.146  16.333   3.526 -0.0840 -0.0200  0.2117
28325W        W44459  10.841   6.037   3.932  0.0158  0.2920  0.1530
28326W        W44460   1.113   8.087  14.887 -0.2203  0.0801  0.2784
28327W        W44461   6.344   9.584  11.319  0.1723 -0.0672 -0.1587
28328W        W44462  16.372  17.498  12.684 -0.3100 -0.1043  0.0943
28329W        W44463  12.005  11.159   4.449 -0.1046 -0.3033  0.3608
28330W        W44464   1.607   5.130  10.811  0.1439 -0.2496  0.1694
28331W        W44465  15.376   7.114   1.839 -0.0285  0.1674 -0.1216
28332W        W44466  12.843  10.956   2.310  0.3424  0.0484 -0.1677
28333W        W44467  14.341  11.207  10.471  0.2813 -0.2652  0.3568
28334W        W44468  11.714  12.448  12.332  0.0926  0.2361 -0.1839
28335W        W44469   4.304  14.170   4.584 -0.1346  0.1787  0.2215
28336W        W44470  14.389  16.863   0.774 -0.0185 -0.0453 -0.1632
28337W        W44471  10.851   3.522   4.203 -0.1043 -0.0019 -0.2717
28338W        W44472  14.745   0.796  12.942 -0.0277  0.5238  0.1257
28339W        W44473  13.870  10.141   0.133 -0.2105  0.1333 -0.4523
28340W        W44474   7.756   7.611  10.684  0.0806  0.0597  0.0761
28341W        W44475   4.766   1.322   5.025  0.1101 -0.3074 -0.4436
28342W        W44476  11.243   2.111   4.688 -0.0441 -0.1053  0.0237
28343W        W44477  16.364  11.119  13.633  0.0094 -0.3972  0.2336
28344W        W44478  16.142   6.258  11.214  0.1774  0.3236 -0.4433
28345W        W44479   6.981   1.850   4.074 -0.0408  0.2295  0.1104
28346W        W44480   6.516  13.992  10.322 -0.1093 -0.0564 -0.4468
28347W        W44481   2.319   7.472  14.298 -0.0152  0.1972 -0.1574
28348W        W44482  10.706   0.391  15.533  0.0486 -0.1482  0.0271
28349W        W44483   5.018   5.314  13.511 -0.0215 -0.1485  0.0391
28350W        W44484   9.965   6.059  11.743 -0.0048 -0.0451  0.0648
28351W        W44485   9.358  13.664   2.099  0.0987 -0.2193 -0.1874
28352W        W44486   1.516   3.715   2.403 -0.4613 -0.0810  0.2542
28353W        W44487  15.770  13.071   1.888  0.2651  0.0340 -0.1368
28354W        W44488   9.162  11.061  11.037 -0.0721 -0.0354 -0.1417
28355W        W44489   1.677  15.195   1.445  0.4334 -0.2493 -0.0524
28356W        W44490   3.660  12.423  10.799  0.0593  0.3310  0.0821
28357W        W44491   7.964   9.260   0.726 -0.2042 -0.1437  0.1574
28358W        W44492   6.255   4.719  13.086  0.0447 -0.0525  0.3487
28359W        W44493   2.076   6.654   2.628  0.0236  0.2305 -0.0577
28360W        W44494   7.049  10.735   5.456  0.1218  0.0832  0.2793
28361W        W44495   7.402  17.226  13.984  0.0596 -0.0985 -0.0439
28362W        W44496   3.334   5.201   2.796 -0.1180 -0.2443  0.1282
28363W        W44497  11.650  12.197  13.392 -0.0527  0.2090 -0.0967
28364W        W44498   8.169   5.333   0.959 -0.0120 -0.2545 -0.0029
28365W        W44499   1.657  18.208   4.458  0.1439 -0.0866  0.0173
28366W        W44500   6.124   9.842   4.706  0.1628 -0.1079 -0.0265
28367W        W44501   1.298  18.108  14.073 -0.0922 -0.2105 -0.0437
28368W        W44502  14.998   3.594   4.263 -0.3008 -0.2187 -0.1382
28369W        W44503  13.673   8.671  15.472 -0.3803 -0.0350 -0.1047
28370W        W44504  18.413   4.484   4.628  0.0096 -0.1751  0.0095
28371W        W44505  15.125   9.400  12.700 -0.0599  0.0741 -0.0749
28372W        W44506  12.988  17.727   2.657  0.0233  0.2877  0.0147
28373W        W44507  10.471  11.282   0.469  0.2632  0.0698  0.1018
28374W        W44508   0.259   8.104  13.234  0.2539  0.4929 -0.1352
28375W        W44509  12.690  13.742  14.358  0.0873  0.0892 -0.3622
28376W        W44510   0.302   5.162   2.597 -0.0242 -0.2227 -0.0486
28377W        W44511  15.687  10.404  11.541 -0.1446 -0.0340 -0.1143
28378W        W44512  10.807  17.669   5.308 -0.1070 -0.0644  0.1298
28379W        W44513  16.785   0.115  14.811 -0.4713 -0.0095  0.1932
28380W        W44514   0.042  13.264  14.878  0.0003 -0.5347 -0.3956
28381W        W44515  12.919  16.336  14.021 -0.4026 -0.1559 -0.1325
28382W        W44516   5.495  16.333  12.146 -0.0244 -0.0780 -0.1439
28383W        W44517  16.444  13.221   3.507  0.0226  0.0493 -0.1055
28384W        W44518  15.202   0.846  13.958  0.3495  0.2230  0.0001
28385W        W44519   8.311  14.573   1.777  0.0648  0.3066 -0.0464
28386W        W44520   0.840  13.187  11.361 -0.0517  0.2378  0.0867
28387W        W44521  10.842  12.097  11.768 -0.2185  0.0872  0.0546
28388W        W44522   0.745   5.565  14.080 -0.0454  0.0490  0.0068
28389W        W44523   0.358   5.884   1.592 -0.2098 -0.3831 -0.3357
28390W        W44524  17.887  13.133   2.658 -0.0061 -0.0116 -0.2892
28391W        W44525   1.766   5.209   0.779 -0.2834 -0.2864  0.1111
28392W        W44526  17.149   5.829   0.652  0.1731  0.2691 -0.0287
28393W        W44527   5.037  13.066  12.528  0.2192 -0.0701 -0.1591
28394W        W44528  12.166  18.473   1.421  0.1052 -0.2385  0.1359
28395W        W44529  11.382   5.410   0.035  0.1560 -0.0452 -0.0850
28396W        W44530   6.195   0.327  12.572 -0.0062  0.3331 -0.0349
28397W        W44531  12.741  14.898  11.495  0.0541  0.3779 -0.0148
28398W        W44532   0.879   6.885  13.984  0.1865  0.2650 -0.0581
28399W        W44533   9.139   6.691   3.078 -0.1064  0.2008  0.2785
28400W        W44534  18.346  12.112  14.224  0.3535  0.0633 -0.0055
28401W        W44535  15.800  15.405  15.566 -0.0665  0.0585 -0.1349
28402W        W44536   5.494  16.344  12.754 -0.2588  0.1242 -0.0598
28403W        W44537  11.424   9.357  15.362 -0.1216 -0.3230 -0.1709
28404W        W44538  18.719   5.078   1.299 -0.2657  0.1513  0.0591
28405W        W44539   4.895  11.539  12.760 -0.0754 -0.0294 -0.1964
28406W        W44540  11.554   2.788   1.019 -0.0901 -0.0609  0.0827
28407W        W44541   2.636  11.503  12.672 -0.0585  0.0595 -0.0366
28408W        W44542  14.029   5.991   3.062 -0.0247 -0.0664  0.1949
28409W        W44543   7.824   8.140  15.465 -0.1069 -0.1840  0.0699
28410W        W44544  12.911  11.422  11.034 -0.0419 -0.1542  0.1108
28411W        W44545   5.894  17.381  14.130 -0.1196  0.0634  0.0737
28412W        W44546  10.677  13.306  14.784 -0.1351 -0.0442  0.1070
28413W        W44547  14.165   2.270   4.196  0.0750  0.0905 -0.2673
28414W        W44548  17.932  18.312  14.345  0.0537 -0.0958  0.0542
28415W        W44549  10.023  13.544  10.927  0.0437 -0.0535 -0.1649
28416W        W44550   6.995  17.301  13.425  0.0382  0.0119 -0.3298
28417W        W44551  11.538  10.060   0.917  0.0460 -0.0990  0.1102
28418W        W44552   3.480  15.449  10.635  0.1259 -0.1870 -0.0620
28419W        W44553  15.388   5.656   3.411 -0.2631 -0.0248  0.2367
28420W        W44554  18.360   8.193  12.800  0.1214 -0.0933  0.1368
28421W        W44555   3.042  10.994  15.474 -0.0273 -0.2487  0.0544
28422W        W44556   1.389   9.654  12.303  0.1239 -0.2414  0.0458
28423W        W44557   1.953  10.064  13.355 -0.0272  0.3432 -0.2499
28424W        W44558   9.111  16.405  11.230 -0.0157  0.1271 -0.2247
28425W        W44559   9.033   1.759  13.213  0.5483  0.0997  0.1202
28426W        W44560   7.720  14.642   2.443 -0.2860  0.1297 -0.0595
28427W        W44561   2.112   9.634   4.973  0.0323 -0.0825 -0.1489
28428W        W44562   1.492  13.574   4.220 -0.2324  0.0734  0.2284
28429W        W44563  18.251  11.136  15.231  0.1651 -0.1890 -0.0299
28430W        W44564  15.510   6.019  14.187 -0.0584 -0.3567 -0.0328
28431W        W44565   1.587  17.549   2.273  0.1132 -0.1861  0.0522
28432W        W44566   3.623  12.597  13.587  0.1865 -0.0610 -0.1574
28433W        W44567   5.796   0.792   2.524  0.1493  0.0981  0.1865
28434W        W44568  11.582  13.652  12.001  0.1077 -0.0463  0.0484
28435W        W44569   3.454  12.305   2.414 -0.2952  0.0812 -0.1567
28436W        W44570  18.543  14.534  11.465 -0.0251 -0.2622  0.3249
28437W        W44571   3.752  18.661   3.735  0.0534 -0.1517  0.3498
28438W        W44572  16.454  10.081   3.490 -0.2500 -0.1669  0.0177
28439W        W44573   5.517   1.041   4.266  0.2621  0.0610  0.0350
28440W        W44574   5.536   9.487   2.480 -0.0197 -0.0291  0.2203
28441W        W44575  18.153   0.675   3.386 -0.1246  0.0093  0.3415
28442W        W44576   0.140  16.264   1.900 -0.3197 -0.3556 -0.0964
28443W        W44577  10.711   7.346   4.638  0.0936  0.0842  0.0530
28444W        W44578   2.368   3.603   5.133  0.1592  0.0699  0.0654
28445W        W44579   5.638   0.982   0.748  0.2699 -0.0560  0.1115
28446W        W44580  15.035   2.624  12.705  0.0146 -0.0071 -0.5256
28447W        W44581   2.474   1.469   4.704  0.2023 -0.3063 -0.1690
28448W        W44582   3.192  12.816  13.642 -0.0617 -0.1797 -0.1603
28449W        W44583  10.948   5.831  13.883  0.0706 -0.0291  0.0093
28450W        W44584   1.043   0.081  13.006 -0.2698 -0.1447  0.0807
28451W        W44585   6.464   0.575   3.935 -0.1784 -0.0613  0.2221
28452W        W44586  17.796   6.398  15.069  0.2769 -0.4789 -0.1283
28453W        W44587  14.907  14.167   5.771  0.2054 -0.0269 -0.0468
28454W        W44588   8.759   8.073   4.101 -0.2512 -0.1799 -0.1849
28455W        W44589   1.760   2.843   1.615 -0.2645 -0.1965  0.1640
28456W        W44590  13.875   2.841   1.008 -0.1606 -0.0954  0.0952
28457W        W44591   8.898  16.173  12.148 -0.1504 -0.1284 -0.0250
28458W        W44592   6.274  11.519   1.165  0.2262  0.0233 -0.3604
28459W        W44593  15.094   6.200  11.348  0.0862 -0.1049 -0.0247
28460W        W44594  14.090  11.352  15.469 -0.0727  0.0308 -0.1650
28461W        W44595   2.407   9.732   3.850  0.1163 -0.1089 -0.2667
28462W        W44596   4.654   0.797   1.941 -0.0695 -0.0994 -0.0940
28463W        W44597  16.387   3.884  12.101 -0.0076  0.4993 -0.0954
28464W        W44598   6.444   5.485   3.316  0.3731 -0.1751  0.1663
28465W        W44599   5.467   4.472   2.116  0.1188  0.2002  0.2070
28466W        W44600   7.775   6.423  13.713  0.0342 -0.2538  0.0075
28467W        W44601   0.781  11.569  11.972  0.1226  0.1927 -0.3230
28468W        W44602   9.610   8.204   0.081 -0.3076 -0.1572 -0.0104
28469W        W44603  18.568  11.037   0.670  0.1154  0.0610  0.0095
28470W        W44604   1.885   9.189  11.908  0.0989  0.0066 -0.1242
28471W        W44605  10.642  15.907  11.741 -0.1946 -0.2146  0.2029
28472W        W44606   3.509   9.981   4.727  0.0348 -0.1539  0.0537
28473W        W44607  13.583   8.973   3.739 -0.1297  0.0595  0.1451
28474W        W44608   1.584  18.374  14.405  0.5307  0.2537  0.2395
28475W        W44609  13.516   4.491  12.465 -0.1042 -0.0848  0.0651
28476W        W44610   0.043  11.078  11.611  0.3325 -0.3439 -0.1460
28477W        W44611   4.536   3.915   3.242 -0.1130 -0.0619  0.1623
28478W        W44612   1.981  11.852   4.506  0.0412  0.0441  0.1653
28479W        W44613  17.700   2.946   3.922 -0.1781  0.3736  0.1060
28480W        W44614   8.278   3.009   4.768  0.2393  0.0800  0.1861
28481W        W44615   5.891   9.746   2.732 -0.2406 -0.1222  0.2561
28482W        W44616  18.602   8.225   3.753 -0.5576  0.2213 -0.1816
28483W        W44617  10.960   0.919   1.299  0.0137 -0.1192  0.1506
28484W        W44618   6.406  11.753   4.655 -0.0622 -0.1150  0.2441
28485W        W44619   5.099  16.962  14.775 -0.1772 -0.0076 -0.1156
28486W        W44620   9.744  10.494  13.169 -0.1687 -0.1862 -0.0059
28487W        W44621   0.131  10.725  13.646  0.0245 -0.1836  0.1592
28488W        W44622   8.649  18.571   2.050 -0.3989  0.1924  0.1435
28489W        W44623   6.455   7.176  14.697 -0.2188  0.1250  0.0136
28490W        W44624   8.580  13.524  13.603 -0.4976 -0.1487  0.2798
28491W        W44625  11.184   4.812  12.333  0.0150  0.0112 -0.5742
28492W        W44626  11.802   7.322  11.405  0.1480  0.3173 -0.0539
28493W        W44627  11.207  11.516   0.732  0.4198  0.1265  0.2062
28494W        W44628   3.676   1.576   9.950 -0.1756 -0.4755 -0.0134
28495W        W44629  10.381  10.864   4.177  0.2278  0.1032 -0.1703
28496W        W44630   8.075   3.956   1.448 -0.1165 -0.1958  0.1862
28497W        W44631  16.091   1.126   3.921 -0.0623  0.0413 -0.3309
28498W        W44632  12.397   6.696  10.219 -0.3212 -0.3341  0.3304
28499W        W44633   0.217   5.138  13.223  0.2630  0.1130 -0.2174
28500W        W44634   9.676   0.251   4.269 -0.0573 -0.1783  0.1428
28501W        W44635   9.646   9.758  13.936 -0.2118  0.2869 -0.0557
28502W        W44636   2.962  16.223   4.584 -0.0644 -0.1112  0.0520
28503W        W44637   6.936   6.337   0.183 -0.1533  0.0214  0.1788
28504W        W44638  12.427  17.019   5.763  0.3957  0.0106  0.1214
28505W        W44639   0.629   6.866  10.834 -0.2450 -0.0595  0.1055
28506W        W44640  15.494  15.734  11.508 -0.2492 -0.2546 -0.2113
28507W        W44641   3.073   0.094   2.133 -0.0045 -0.0571 -0.2721
28508W        W44642   0.906  17.463   0.313  0.0974 -0.1474  0.1101
28509W        W44643   7.483  13.867  11.068 -0.1190 -0.0612  0.0914
28510W        W44644   8.999   8.709   3.881 -0.2370  0.0995  0.2194
28511W        W44645  10.092   8.069   0.287  0.2872  0.4691  0.0180
28512W        W44646  11.493  13.616   0.838  0.2648  0.0021 -0.0771
28513W        W44647   1.313  11.255  15.175 -0.0547  0.2917 -0.0202
28514W        W44648  18.545   5.191   0.395  0.0158 -0.1163 -0.0877
28515W        W44649   0.721  11.166   3.594 -0.0654  0.0929 -0.0343
28516W        W44650   9.919   5.968  13.879 -0.0776  0.1277 -0.3557
28517W        W44651   8.451  15.181  11.300  0.0212 -0.1710  0.1088
28518W        W44652   2.035   6.101  10.954  0.0652  0.2350 -0.0426
28519W        W44653   0.690  15.322   0.843 -0.3320  0.1289 -0.3116
28520W        W44654   2.167   4.901   4.903 -0.3404 -0.1018  0.2079
28521W        W44655  16.092   4.373   3.624 -0.1201 -0.2302  0.0698
28522W        W44656   0.671  13.067  15.213 -0.1905 -0.0040  0.0729
28523W        W44657  11.210  14.579  15.104  0.3178  0.3853  0.2290
28524W        W44658   9.757  10.684  13.674 -0.3696  0.1398  0.0727
28525W        W44659   1.869  10.513  10.084 -0.0342 -0.2019  0.0444
28526W        W44660   3.141  17.025  13.991  0.0999  0.0061 -0.3237
28527W        W44661   8.329  11.849   0.911  0.3535  0.0519  0.2821
28528W        W44662   2.569   3.741  14.787  0.2418 -0.1829 -0.3045
28529W        W44663  14.306  15.359  13.273  0.0728  0.5550 -0.0195
28530W        W44664  15.852  18.094  13.424  0.3402  0.0614  0.0685
28531W        W44665   2.489   8.984  11.400  0.1358 -0.3014  0.0802
28532W        W44666  12.959  13.641   0.754  0.0085  0.0806 -0.2973
28533W        W44667   4.782  13.785   1.396  0.0467 -0.1403 -0.1117
28534W        W44668  15.734  12.564  12.228 -0.0263 -0.2995  0.3157
28535W        W44669   3.672   1.129   5.313  0.3619  0.0762 -0.1515
28536W        W44670   8.418   2.510  11.273  0.0773  0.3686 -0.2210
28537W        W44671   7.235   6.599  14.954  0.1260 -0.0710 -0.1247
28538W        W44672   9.303  18.191  14.020  0.1761  0.0448  0.0861
28539W        W44673   3.227   6.898  15.350 -0.2118  0.3616  0.3580
28540W        W44674  13.103  12.526   1.465  0.2230 -0.1656  0.3261
28541W        W44675   5.702  11.249  15.533  0.2886 -0.1175 -0.3032
28542W        W44676  16.815   3.825  10.961 -0.0946  0.1618  0.3459
28543W        W44677  14.067   4.278   3.762  0.0437  0.0681 -0.4376
28544W        W44678   4.056  13.407  12.524 -0.2500  0.2910  0.0493
28545W        W44679  18.697  15.500   0.834 -0.0984 -0.1044 -0.1658
28546W        W44680   6.449   3.372   0.329  0.1662 -0.3214 -0.1091
28547W        W44681   1.975   8.480   1.273 -0.0998  0.1662  0.1537
28548W        W44682  10.497  12.771   1.963 -0.2578 -0.3106 -0.0769
28549W        W44683  17.132  12.032   5.207  0.0717  0.0368  0.1603
28550W        W44684   0.707  15.418   4.610  0.2852  0.1111 -0.1895
28551W        W44685  13.920   0.651  11.853  0.1559  0.2101  0.0170
28552W        W44686  10.612  16.416  11.523  0.1553  0.2706 -0.1297
28553W        W44687  12.132   9.509  10.195 -0.2034 -0.0532 -0.2249
28554W        W44688   8.059  10.129   3.807  0.3312 -0.0449  0.0789
28555W        W44689   2.744   9.349  15.450  0.0331  0.1285 -0.2235
28556W        W44690  18.302   8.230   4.427 -0.3722  0.3636 -0.2685
28557W        W44691  11.226  11.168  15.565 -0.2871 -0.1846 -0.2133
28558W        W44692  14.058   2.633   5.035 -0.0685  0.2902 -0.0752
28559W        W44693   6.724  15.114  14.542  0.0032  0.2094 -0.0363
28560W        W44694   5.439  18.455  10.711  0.0618 -0.2869  0.0252
28561W        W44695  16.581  17.590   4.493 -0.0447  0.1230 -0.2153
28562W        W44696  13.735  11.723   2.065  0.0435  0.1415  0.0393
28563W        W44697  13.902  11.050   0.336 -0.0679 -0.1721  0.1933
28564W        W44698  10.390  14.286   2.607 -0.0568 -0.1421 -0.0746
28565W        W44699  18.276   4.377  10.940 -0.0054  0.2971 -0.2635
28566W        W44700  16.079  18.379  13.057 -0.1778  0.2099  0.3874
28567W        W44701  11.658  15.514  14.791  0.2291  0.1762  0.1453
28568W        W44702  10.430   8.684   1.736  0.2527  0.0755 -0.1056
28569W        W44703   6.290   5.962   1.932 -0.1200  0.0397 -0.2366
28570W        W44704   2.941   5.703   3.253  0.1105  0.0088 -0.0315
28571W        W44705  13.150  10.113  12.784  0.0539 -0.4941  0.0234
28572W        W44706  14.651  15.518  14.984  0.4309  0.1488 -0.2948
28573W        W44707  17.750   7.659   3.967 -0.2201 -0.1056  0.3101
28574W        W44708  13.012   7.160   1.805  0.3505  0.1345  0.2467
28575W        W44709  17.327   4.799   3.986 -0.1009  0.0842  0.1112
28576W        W44710   8.765   4.840  14.835  0.1468 -0.0426 -0.2902
28577W        W44711   8.487   6.945   1.697  0.2021  0.0360 -0.2897
28578W        W44712  18.619  11.357  12.514  0.2953 -0.3875 -0.1066
28579W        W44713   3.613  17.255   1.468 -0.0709  0.0783  0.0764
28580W        W44714  12.582  12.951   3.580 -0.0545  0.0353  0.1469
28581W        W44715   8.933  10.855  13.101  0.2796 -0.2626  0.1663
28582W        W44716  11.466   9.377   2.210  0.0086  0.0547 -0.1865
28583W        W44717  14.558   6.147  13.831 -0.1893 -0.1747 -0.0726
28584W        W44718  10.056  11.005  10.899  0.1009 -0.0305 -0.0975
28585W        W44719  16.175  13.503  12.915  0.0695  0.0926 -0.0328
28586W        W44720   9.166  14.829   3.580 -0.1417  0.2990 -0.2309
28587W        W44721  11.791   8.254  13.796  0.0540 -0.1000  0.1244
28588W        W44722  11.595  13.892  13.186 -0.0080 -0.1616 -0.0404
28589W        W44723   6.806   3.396  15.344 -0.0872 -0.0626 -0.0490
28590W        W44724  14.617  13.600   4.096  0.2465  0.0469  0.2479
28591W        W44725   3.482  10.199  12.146  0.2307 -0.1350 -0.1048
28592W        W44726  13.875  11.360   2.879 -0.0681  0.2253 -0.1563
28593W        W44727  16.090   0.163  14.902 -0.0752 -0.3581 -0.2970
28594W        W44728  14.342  12.776   0.771 -0.0082 -0.1178 -0.2188
28595W        W44729  10.811  10.745   3.291  0.1084  0.0780  0.2263
28596W        W44730  15.518   0.726  12.409  0.1137  0.0088 -0.1543
28597W        W44731  18.710   4.492   2.232  0.2367 -0.2476  0.2165
28598W        W44732   2.939   1.733   1.952 -0.1607 -0.2671  0.3047
28599W        W44733   7.912  12.703   0.389  0.2476 -0.0731 -0.1272
28600W        W44734   4.576  11.494   4.166 -0.4194 -0.2475 -0.0070
28601W        W44735   2.659  17.009  11.685  0.0358 -0.0307 -0.3157
28602W        W44736  15.276  14.699   0.270  0.0358  0.0738 -0.1407
28603W        W44737  13.238   8.589   2.086  0.2783 -0.1844  0.0445
28604W        W44738   6.836  17.637  12.207 -0.2328 -0.3285  0.1226
28605W        W44739  13.183  12.975  12.650  0.1175 -0.1821  0.0146
28606W        W44740   0.493   8.120  14.827 -0.0020  0.2323 -0.0373
28607W        W44741  18.690   7.436  11.091  0.2955 -0.2283 -0.1411
28608W        W44742   4.564  15.965   3.924 -0.0494 -0.2081 -0.1722
28609W        W44743   6.658  16.587  11.490  0.0602  0.3213  0.0259
28610W        W44744  11.855   8.911   3.291  0.2823 -0.3356  0.0519
28611W        W44745  12.644  16.774  12.934  0.1129 -0.1429 -0.0714
28612W        W44746   9.639  14.350   1.255  0.0079 -0.0098 -0.0930
28613W        W44747   4.830   0.935  11.695 -0.0193  0.1647  0.3249
28614W        W44748   4.174   2.492  11.798  0.0875  0.2490  0.1206
28615W        W44749  12.077  13.170  14.598 -0.0571 -0.1444 -0.2724
28616W        W44750  10.346   4.734  11.731  0.0799 -0.1866  0.3305
28617W        W44751   2.841   3.967  12.780  0.2856 -0.3293  0.1268
28618W        W44752  17.866  16.252  15.195 -0.1990 -0.2485 -0.2136
28619W        W44753  18.130   5.516  14.616 -0.2304  0.4655 -0.3056
28620W        W44754   5.201  11.180  12.549 -0.1378 -0.0813 -0.0301
28621W        W44755   4.078  12.932   1.311 -0.0765 -0.1459  0.2728
28622W        W44756  11.430   3.861   2.152  0.0944  0.0447 -0.1009
28623W        W44757   7.235   0.818   0.855  0.0942  0.1729  0.2916
28624W        W44758  17.417   2.532  13.884  0.3360  0.1896  0.2607
28625W        W44759  16.675  13.514   0.898  0.1185  0.1856  0.0051
28626W        W44760   7.555   4.435  12.211  0.1500  0.3369 -0.2921
28627W        W44761  17.328   9.677  10.447 -0.1468  0.1526  0.1232
28628W        W44762  10.805   9.160  14.430  0.0258 -0.1588  0.0766
28629W        W44763   4.437  13.508   5.190  0.3833 -0.2080 -0.0777
28630W        W44764  18.337   7.341  12.391 -0.3888  0.0342  0.0316
28631W        W44765   4.363  15.021   3.371 -0.1407  0.0682  0.1989
28632W        W44766   0.663   0.863  12.365 -0.4400  0.1640  0.0994
28633W        W44767   3.065   0.956  13.190 -0.0057 -0.0531 -0.0121
28634W        W44768  13.051   7.890   2.864  0.3417 -0.1417 -0.0263
28635W        W44769   1.894  11.088  12.343 -0.0510  0.1167  0.2562
28636W        W44770  15.433   6.362  15.306 -0.5058 -0.1858 -0.0700
28637W        W44771  17.701  13.706   3.474 -0.2505  0.1075  0.1455
28638W        W44772  13.205   8.873   1.526  0.0668  0.3476  0.2009
28639W        W44773  14.887   9.215  11.695  0.1820  0.0066 -0.0143
28640W        W44774  11.634  10.867   2.408  0.0367 -0.2157 -0.1692
28641W        W44775   0.384   8.321  14.318  0.0217  0.0979  0.1640
28642W        W44776  10.530   7.116  13.649  0.0524 -0.1483 -0.1011
28643W        W44777  16.667  17.259   4.118 -0.0136 -0.3465  0.0294
28644W        W44778  11.768   5.899   5.774 -0.1237  0.0293  0.0943
28645W        W44779  14.997  10.798   3.334 -0.1314 -0.1200  0.0589
28646W        W44780  15.573   5.051   4.190 -0.2142  0.0727  0.0276
28647W        W44781  15.290   0.940  10.094 -0.0271 -0.0986  0.1704
28648W        W44782   8.483  14.927  15.471  0.1526 -0.0397 -0.1917
28649W        W44783  14.551   2.492  12.926  0.0397  0.1491  0.1144
28650W        W44784   8.880  16.065   4.050  0.1708  0.3417  0.1466
28651W        W44785  11.514   0.416   0.336  0.1659  0.1960  0.1231
28652W        W44786  16.794   4.581  11.574  0.2230  0.3040 -0.2194
28653W        W44787  16.691  16.843  14.755  0.2699  0.0612  0.0963
28654W        W44788  17.403  11.737   3.854  0.0985 -0.1012  0.1511
28655W        W44789   9.351   2.187  13.876  0.0856  0.0744  0.1876
28656W        W44790   4.751   2.487  13.733 -0.1505  0.0262 -0.2125
28657W        W44791  16.509   2.188   4.969 -0.0395  0.1604  0.3604
28658W        W44792   7.889   0.069  14.235 -0.0084 -0.0944  0.1249
28659W        W44793   3.275   5.199  13.146 -0.0628 -0.1991  0.1294
28660W        W44794  18.078  14.988  14.005 -0.1967 -0.0219 -0.0860
28661W        W44795  15.649   9.144   4.931 -0.1563  0.1612  0.2018
28662W        W44796   8.663  16.068  12.545 -0.0622  0.1640 -0.1453
28663W        W44797  16.331   7.252  14.980 -0.0281 -0.0493 -0.0848
28664W        W44798   0.500   7.963   0.685 -0.0644  0.2742 -0.1875
28665W        W44799   4.699   2.341   4.501  0.1851  0.0783  0.0025
28666W        W44800   1.825  18.135  13.957 -0.1412  0.0394 -0.4644
28667W        W44801  17.617   8.246  11.907 -0.3614  0.6431  0.1176
28668W        W44802   2.993   8.810   1.766  0.0536  0.1299 -0.2335
28669W        W44803   3.911   6.812  15.321  0.2423  0.0066 -0.1052
28670W        W44804   7.706  15.385  15.110 -0.0325  0.0285 -0.0434
28671W        W44805   2.605   9.135   1.846 -0.0631 -0.0462 -0.0545
28672W        W44806   8.015  12.765  11.795  0.0659 -0.1706 -0.1049
28673W        W44807  16.179   6.978   2.731  0.0977 -0.3022  0.1822
28674W        W44808  13.138   4.119   0.176 -0.0939  0.2616  0.1117
28675W        W44809   5.731  17.194   9.626  0.4444  0.0458 -0.0705
28676W        W44810   8.120   1.640  11.443  0.0420  0.0143 -0.4264
28677W        W44811   8.387   3.400   3.905 -0.0538 -0.0931  0.2021
28678W        W44812   6.385  10.491  14.336  0.2616 -0.2068  0.1653
28679W        W44813   4.687  10.198  11.435 -0.2750  0.3232 -0.0626
28680W        W44814  12.365   6.142   3.221  0.0246  0.2934 -0.1649
28681W        W44815  13.191   2.171   1.795 -0.0029 -0.1290  0.2236
28682W        W44816   8.763  10.707   1.460  0.1924  0.0091  0.4230
28683W        W44817   8.200   3.507   5.097 -0.0041 -0.4544 -0.0324
28684W        W44818   0.645   2.379  14.755  0.2839 -0.2667 -0.3220
28685W        W44819   2.192   5.619   5.346 -0.4715 -0.2284  0.0830
28686W        W44820   3.763   7.362  13.221  0.1700  0.1352  0.2596
28687W        W44821  12.835   9.335   1.401 -0.1337 -0.3386  0.0240
28688W        W44822   6.742   7.541   0.300 -0.2157  0.0164  0.1140
28689W        W44823  16.536   6.433  14.529 -0.0914 -0.0755 -0.2305
28690W        W44824  12.037  13.721   2.536 -0.2102 -0.1355  0.1003
28691W        W44825  17.137   0.167   0.110 -0.3656  0.0877  0.1894
28692W        W44826  14.699   7.778   1.672  0.0554 -0.2484  0.0220
28693W        W44827  11.061   9.812  14.223  0.1319 -0.1397 -0.3092
28694W        W44828   6.290   4.315  11.607 -0.3423 -0.1515  0.0399
28695W        W44829   8.872   2.074  15.330  0.1005  0.1990 -0.0668
28696W        W44830  12.355   4.574   1.767 -0.0156  0.0010  0.0886
28697W        W44831   3.416  17.725   3.985  0.2286  0.2601  0.1362
28698W        W44832  13.663  13.810   3.952  0.0076 -0.2209 -0.0132
28699W        W44833  13.726  15.617   9.763  0.1457 -0.0081 -0.0327
28700W        W44834   5.707  15.930  14.443  0.1454  0.1740 -0.2914
28701W        W44835  14.110  13.331   3.350  0.1184 -0.1275  0.5221
28702W        W44836  12.882  18.415   3.261  0.1285  0.1996  0.1652
28703W        W44837  18.562   8.146   2.893 -0.2052 -0.0827  0.2929
28704W        W44838  17.804   6.505  13.913 -0.0538  0.2174 -0.1414
28705W        W44839  17.872  15.188   1.470  0.0622  0.1471 -0.0465
28706W        W44840  18.183  17.579   3.621 -0.0204  0.0884 -0.3984
28707W        W44841  17.856  14.035  11.492 -0.1326  0.0424 -0.2809
28708W        W44842   4.381  14.854   0.493 -0.0609  0.2077 -0.0052
28709W        W44843  17.180   3.680  11.483  0.0726  0.0999 -0.0183
28710W        W44844  12.950   5.836  13.335 -0.2878 -0.0696  0.1905
28711W        W44845   5.138   6.720  12.325 -0.1019 -0.0964  0.2566
28712W        W44846  11.159  14.302   2.786  0.3963 -0.2980 -0.2885
28713W        W44847   9.173   8.579   4.845 -0.2274  0.2914 -0.1492
28714W        W44848   7.926  17.424  14.138  0.1430 -0.2955 -0.1394
28715W        W44849   2.337  10.821  15.298  0.0918 -0.0912 -0.2765
28716W        W44850  17.634  15.844   0.797 -0.3538  0.1045  0.3809
28717W        W44851   6.824   8.796   4.783 -0.2033 -0.0721 -0.1484
28718W        W44852   6.978  12.160   1.555  0.4523  0.1541  0.0423
28719W        W44853   3.368   1.382  11.123 -0.1256 -0.0209  0.1121
28720W        W44854  10.219   3.681  14.830  0.2182 -0.2421  0.2899
28721W        W44855  10.129   0.172   0.708 -0.1538  0.0991 -0.0355
28722W        W44856   4.415   7.099   1.154  0.4031  0.1051  0.4074
28723W        W44857  14.101  10.613   9.799  0.3371  0.0563 -0.1342
28724W        W44858   6.662   8.046   2.382 -0.0286 -0.1126 -0.1643
28725W        W44859  12.645   4.245   4.629  0.1212 -0.0948 -0.1048
28726W        W44860   9.812   5.028   1.551 -0.0190  0.0037  0.1338
28727W        W44861   8.166   4.199   3.707  0.0173 -0.1242  0.1211
28728W        W44862   9.372   4.672   0.704  0.1591 -0.1112  0.1085
28729W        W44863  13.566   8.084   0.377  0.1387  0.4350  0.2975
28730W        W44864   9.922   4.695  12.366  0.1406 -0.0583 -0.0072
28731W        W44865   7.194  17.399   2.487  0.1629 -0.2247 -0.1061
28732W        W44866   7.672   2.603   5.696  0.1425  0.0515 -0.3513
28733W        W44867   5.049   9.612   1.494 -0.3878 -0.2416  0.0621
28734W        W44868   6.001   8.946  15.561 -0.2049  0.0213  0.0728
28735W        W44869  17.714  15.600   2.143 -0.2145 -0.4224  0.0181
28736W        W44870   8.807   1.231   2.755 -0.4125 -0.2869  0.1662
28737W        W44871   6.045  14.501  12.829 -0.1716  0.1826 -0.1465
28738W        W44872   8.767   8.844   1.292 -0.1344 -0.3426 -0.2170
28739W        W44873   5.449  16.670  11.770  0.1437 -0.0326 -0.0087
28740W        W44874   2.942   2.405   0.787  0.0062  0.1222  0.2380
28741W        W44875   8.800  12.561   4.612  0.5231 -0.0625 -0.1162
28742W        W44876  12.043   3.604  10.702 -0.0571  0.2056 -0.1879
28743W        W44877   4.133  18.249   0.004 -0.0438 -0.3815  0.3207
28744W        W44878  18.678  15.483   5.532 -0.3862 -0.5136  0.2914
28745W        W44879   3.598   3.372  11.495  0.2700 -0.0951  0.0828
28746W        W44880  16.762   7.760  13.289 -0.2102  0.0290 -0.3508
28747W        W44881   7.433   0.382  14.384  0.0681  0.1249 -0.1370
28748W        W44882   9.875   5.276   1.986 -0.2812 -0.0032  0.3863
28749W        W44883  17.871   5.999   3.249 -0.3251 -0.0492 -0.2472
28750W        W44884   9.993   7.733  15.407 -0.2905  0.0575  0.2250
28751W        W44885   9.222  13.496   4.019 -0.1742 -0.0679 -0.0384
28752W        W44886   5.053   8.005   0.652  0.1270  0.2154 -0.1107
28753W        W44887   6.921   5.613   3.627  0.1296 -0.1213  0.2108
28754W        W44888   9.647  12.762   3.041 -0.1956  0.1383 -0.1251
28755W        W44889  10.509  11.676   3.005  0.1129  0.2589 -0.1086
28756W        W44890   0.274  13.097  11.192 -0.3365 -0.0452 -0.3149
28757W        W44891  13.089   7.794  12.534 -0.4364 -0.2044 -0.0856
28758W        W44892  18.665   0.095   0.905 -0.1493  0.0331  0.1572
28759W        W44893   6.458   2.166  10.700 -0.0206 -0.1768  0.0103
28760W        W44894   9.611  12.840  14.696 -0.1188 -0.2025 -0.3967
28761W        W44895   2.707   3.042   0.325  0.0278  0.1796 -0.1627
28762W        W44896   6.719   2.832   4.842 -0.1752 -0.0779 -0.1600
28763W        W44897   5.209   4.112  10.615  0.3089 -0.0880 -0.1688
28764W        W44898   2.010   1.293   3.775  0.0141 -0.1319  0.0724
28765W        W44899  12.266   0.652  14.166  0.1172  0.0308  0.3433
28766W        W44900  17.122   0.869  15.452  0.2690 -0.3548 -0.1537
28767W        W44901   5.763  11.767   4.990  0.3829  0.0803  0.1213
28768W        W44902   8.722   2.241  14.452 -0.3019  0.1295  0.3008
28769W        W44903  13.051   5.696   3.895 -0.3223  0.2192 -0.0553
28770W        W44904   4.862   8.231  11.144 -0.1077  0.0254  0.3606
28771W        W44905   8.432  16.791  14.208 -0.0014  0.3282  0.3522
28772W        W44906  10.131   6.532   2.781 -0.0687 -0.0200 -0.2250
28773W        W44907  15.238   8.600   5.540 -0.2525 -0.1527  0.0533
28774W        W44908   3.397   9.821  13.480  0.0124  0.2281  0.1641
28775W        W44909   0.241   5.115   4.263 -0.0479 -0.0947 -0.6028
28776W        W44910   9.310   5.933  13.983  0.0882  0.1363 -0.1927
28777W        W44911   4.546  17.525   2.834  0.2074  0.3529  0.0373
28778W        W44912  17.517  11.519   3.393  0.0163  0.1327 -0.1917
28779W        W44913   8.567   0.473   1.248  0.0092  0.1455  0.1332
28780W        W44914   1.889   8.865  15.133 -0.3737 -0.0195  0.0575
28781W        W44915  10.166   9.947   5.179 -0.2369 -0.0205  0.1004
28782W        W44916   0.717   1.996   4.862 -0.1623 -0.2642 -0.0669
28783W        W44917  12.130  17.253   2.864  0.2981 -0.0957 -0.2136
28784W        W44918   3.385   7.677   4.349 -0.2946 -0.3015  0.2207
28785W        W44919  17.231   9.797   5.188  0.0273 -0.1723  0.0190
28786W        W44920   8.848  14.699   3.089  0.0980 -0.1176  0.0249
28787W        W44921  13.821   9.469   3.140 -0.2446 -0.0386 -0.0123
28788W        W44922   3.078   1.648   2.417 -0.0877  0.2429  0.3302
28789W        W44923  15.599  16.698  14.274 -0.0681  0.0822  0.3151
28790W        W44924   8.119   2.222   0.722  0.3328  0.0302  0.2725
28791W        W44925  15.271  18.521   3.987 -0.2035  0.2178 -0.3870
28792W        W44926   9.293   9.561   1.590 -0.4500 -0.2638  0.0054
28793W        W44927   8.541  17.334  15.143  0.0422  0.1594 -0.2673
28794W        W44928  13.370   6.659  10.920  0.5321 -0.1437  0.0565
28795W        W44929   6.935   4.155   2.147 -0.0611 -0.0796 -0.0334
28796W        W44930   5.143  17.465  12.929  0.1117 -0.0697  0.4840
28797W        W44931   7.877  13.489  15.482 -0.1057  0.0867  0.1651
28798W        W44932  16.482  15.411   3.438  0.1661  0.0281 -0.1668
28799W        W44933  16.360  11.831   2.530  0.0123  0.1567 -0.1033
28800W        W44934   7.478  13.706  10.173  0.1226  0.0843 -0.0913
28801W        W44935  10.140  17.041  11.338 -0.0283 -0.0006  0.0055
28802W        W44936   0.981  13.771   2.128 -0.2032 -0.0935  0.1592
28803W        W44937  11.702  10.106   5.286 -0.2716 -0.0574 -0.2163
28804W        W44938   2.224  10.145   6.055  0.2508 -0.1501  0.0740
28805W        W44939   4.815   3.938  12.035 -0.2164  0.4564 -0.4175
28806W        W44940  12.697  17.992  13.610  0.3328 -0.1014 -0.3196
28807W        W44941  10.781   0.642   2.361  0.1204 -0.0858 -0.0269
28808W        W44942   4.369  10.761  12.408 -0.1131 -0.1622  0.2726
28809W        W44943   5.319   4.227   1.473 -0.2744  0.1451  0.0766
28810W        W44944   7.158  15.247   2.200  0.1723  0.4312  0.0351
28811W        W44945   0.145   5.540   1.248  0.0338  0.1727  0.2468
28812W        W44946   5.361   4.913  14.149 -0.0775 -0.2750  0.1875
28813W        W44947   1.588   2.733  12.898  0.0680 -0.1934 -0.2423
28814W        W44948   8.896  11.886   0.957  0.0019 -0.3348 -0.1535
28815W        W44949  13.619   3.358   0.310  0.3329  0.3574 -0.0472
28816W        W44950   1.880   7.825   4.095  0.0510 -0.5533  0.2206
28817W        W44951   7.621  13.417  12.518 -0.0109  0.1593  0.3242
28818W        W44952  15.381   5.625   5.247 -0.1379  0.2360 -0.1795
28819W        W44953   4.183  12.014   3.035 -0.1080 -0.3317  0.2816
28820W        W44954  11.729  16.778  15.212  0.0970  0.1728 -0.0254
28821W        W44955   0.297   6.559  11.490  0.0465  0.0634  0.2276
28822W        W44956   9.554  13.325   1.262 -0.0958 -0.0178 -0.0954
28823W        W44957   9.039  17.619  10.959 -0.0154  0.1981  0.1593
28824W        W44958   5.277   2.548  11.401 -0.1773 -0.3468 -0.3550
28825W        W44959  12.267  15.253   3.176  0.0882 -0.0983 -0.0104
28826W        W44960  13.707   2.902   2.120 -0.2373 -0.0407  0.0285
28827W        W44961  17.012   9.367   5.213  0.0512 -0.0172 -0.1564
28828W        W44962  18.001  16.055   0.060  0.1533 -0.0109 -0.1546
28829W        W44963   2.042  10.194  10.883  0.3375 -0.0931 -0.1283
28830W        W44964   0.999   6.966   2.086  0.1216  0.0678  0.1889
28831W        W44965  18.106  14.444   2.677  0.0348 -0.1221 -0.0042
28832W        W44966   2.557   7.900   1.974  0.4362  0.0349  0.0548
28833W        W44967  10.079   0.062   3.406  0.0619  0.0662 -0.0994
28834W        W44968  11.390   7.641  11.366  0.3013 -0.1817 -0.0173
28835W        W44969  15.884   8.048  11.851  0.2466  0.0884 -0.1818
28836W        W44970   0.882  11.958  12.290 -0.4384 -0.0813  0.0865
28837W        W44971  17.634  17.305  14.394 -0.0699  0.0969 -0.0563
28838W        W44972   8.118   0.550  15.508  0.1315  0.0030  0.3264
28839W        W44973   7.207  10.778   2.027 -0.3739  0.2864  0.1786
28840W        W44974   8.134   2.518   3.739 -0.1127  0.0578  0.0134
28841W        W44975  11.890   1.031  14.278 -0.0961  0.0917  0.0340
28842W        W44976  17.502   3.391   3.958 -0.0684  0.0376 -0.1989
28843W        W44977   0.297  15.983   2.493  0.2318  0.2233 -0.2116
28844W        W44978  14.102  16.337  11.788 -0.0512 -0.4771 -0.1674
28845W        W44979  18.217  15.922  11.494  0.0261  0.1186  0.0316
28846W        W44980   4.282  12.439   0.080  0.3018 -0.0237 -0.2084
28847W        W44981   3.483  16.331   4.889 -0.0843  0.2226  0.0979
28848W        W44982   8.506   9.040   3.805  0.3354 -0.2114 -0.2021
28849W        W44983   1.482   6.558   2.917 -0.2258  0.0888  0.1934
28850W        W44984   7.450  10.334  11.485  0.2202  0.1174  0.1341
28851W        W44985   9.505   9.044   3.490 -0.1515  0.1022  0.0366
28852W        W44986   2.796   3.282   1.689 -0.1054  0.1529 -0.0471
28853W        W44987   9.790  13.883  13.395  0.0008  0.0192  0.0354
28854W        W44988   5.373   9.632   4.155 -0.0997 -0.3488  0.2979
28855W        W44989   3.219  10.836   9.937  0.1234 -0.2435 -0.2155
28856W        W44990   9.245   3.339   0.125 -0.1278  0.0538  0.2321
28857W        W44991   3.870   1.365   3.090 -0.1555  0.0495  0.0707
28858W        W44992   4.487   5.564   0.698  0.0565 -0.1971 -0.1225
28859W        W44993   9.648   2.939  15.063  0.2094  0.0001 -0.1592
28860W        W44994   7.146  17.712   0.629 -0.0730 -0.0326 -0.1448
28861W        W44995   0.763   1.482   0.114  0.1638  0.2399 -0.2582
28862W        W44996  12.417   9.735  10.482 -0.2785  0.0903 -0.0903
28863W        W44997   4.303  17.815  12.850  0.0900  0.3553  0.2133
28864W        W44998   7.260  11.736  11.526  0.2473 -0.3413  0.0611
28865W        W44999   8.853  14.503   0.845  0.2831 -0.0497 -0.2927
28866W        W45000  10.973   3.238  11.158  0.1176 -0.0455 -0.1839
28867W        W45001  14.016   2.242   0.047  0.0273 -0.2756 -0.0151
28868W        W45002   3.367   8.474  12.160 -0.2967 -0.1060  0.1263
28869W        W45003   4.213  17.739  15.340  0.1148  0.0492 -0.0218
28870W        W45004  14.788  16.617   0.978  0.0181 -0.0044 -0.0760
28871W        W45005   1.085   0.211  14.373 -0.3977 -0.1815 -0.0968
28872W        W45006   3.887   0.037   2.989  0.2206 -0.0936  0.0158
28873W        W45007  11.684   0.617  11.502  0.0942  0.0057  0.0046
28874W        W45008  15.370  18.587  13.803 -0.0812  0.0464 -0.0858
28875W        W45009   3.447   8.770  10.491  0.0599 -0.1975  0.0486
28876W        W45010  14.298   5.577  14.292  0.0020 -0.1704 -0.1668
28877W        W45011  14.590   8.401  12.222 -0.0132 -0.1658 -0.0371
28878W        W45012   1.482   8.989  11.623  0.0731 -0.2088 -0.3440
28879W        W45013  10.200  16.511  11.197 -0.2679  0.1125 -0.0611
28880W        W45014  17.598   1.482   0.452 -0.0147  0.0763  0.1017
28881W        W45015  12.597   5.301  15.252 -0.0746  0.2320 -0.0710
28882W        W45016   2.986  11.922  12.848 -0.0504 -0.0805  0.0470
28883W        W45017  15.372  10.236  14.975 -0.3058  0.2572  0.0304
28884W        W45018  11.998   6.041  12.926 -0.2527 -0.1985  0.0552
28885W        W45019   7.120   8.801   0.654  0.1640  0.0109 -0.0568
28886W        W45020   2.898  15.201   5.527  0.1319 -0.0436  0.0801
28887W        W45021   1.804   3.119   0.918 -0.0248  0.0524 -0.1408
28888W        W45022  10.158  11.685  13.418  0.1728  0.0157  0.2258
28889W        W45023  10.257   4.358   2.036 -0.0346 -0.4137 -0.0921
28890W        W45024  13.259  14.747   0.707  0.0314 -0.0381 -0.1378
28891W        W45025   6.629  10.384  11.518 -0.1499 -0.3998 -0.2405
28892W        W45026  13.056  17.511   1.692  0.1277 -0.0237  0.1886
28893W        W45027   5.666  17.167  11.735 -0.1440 -0.0286  0.2105
28894W        W45028   9.204   2.703  12.061 -0.1759 -0.0142  0.2428
28895W        W45029   9.244   4.284  13.425 -0.1433 -0.0771  0.1049
28896W        W45030  15.267  15.707   0.571 -0.3058 -0.0556 -0.1799
28897W        W45031  10.616  10.341  14.301 -0.1578  0.0931  0.1487
28898W        W45032   8.399   4.988   2.426 -0.0162 -0.2467  0.2703
28899W        W45033  15.582  16.191  13.780 -0.0659  0.4556 -0.1191
28900W        W45034   2.758  10.162   3.733  0.0108 -0.0217  0.0192
28901W        W45035   6.909   6.320   3.064 -0.2585  0.0514 -0.0269
28902W        W45036   3.001   0.060  14.085 -0.1192  0.1502  0.0013
28903W        W45037  14.838  12.583   3.570 -0.1218  0.0637 -0.4086
28904W        W45038  17.812   3.096   1.639  0.0257  0.1744 -0.0820
28905W        W45039  15.434   7.099   1.281 -0.0207  0.1997 -0.0313
28906W        W45040   6.936   0.933  14.987 -0.0683 -0.1398 -0.4165
28907W        W45041   7.779   1.548   3.067 -0.2384 -0.0461  0.4413
28908W        W45042   7.583  16.645  15.317 -0.3949 -0.4646 -0.1016
28909W        W45043  16.115  13.874   5.618  0.1584 -0.1675 -0.0577
28910W        W45044  15.741  17.079  11.685 -0.0824 -0.3220 -0.1726
28911W        W45045  14.731   3.857  13.021  0.2779 -0.0978 -0.0052
28912W        W45046   5.266  10.933   1.853 -0.2196  0.0846  0.0564
28913W        W45047   0.207  15.326  13.654  0.1781 -0.2281 -0.0343
28914W        W45048   9.769   1.899   0.271 -0.3886 -0.2338  0.2148
28915W        W45049   9.870  13.881   4.347  0.0622  0.1488 -0.2840
28916W        W45050  11.089  10.255  10.830  0.2683  0.0322 -0.0935
28917W        W45051   1.716  11.147   5.287  0.1353  0.1270 -0.1312
28918W        W45052   3.186   6.421   0.028  0.0723 -0.1521 -0.0794
28919W        W45053   1.561   5.166   1.656 -0.2717  0.1947 -0.0576
28920W        W45054  10.752   7.182  12.398  0.1952 -0.0437  0.0312
28921W        W45055   6.397   7.260   4.057  0.1646 -0.1453 -0.1545
28922W        W45056   3.870  10.777  15.113  0.3347  0.0957  0.0261
28923W        W45057  17.114   1.684  11.006 -0.0135  0.0281  0.2137
28924W        W45058   7.190   6.302  12.480  0.2721 -0.0931  0.2094
28925W        W45059   9.016   4.852   3.608 -0.0594 -0.0821  0.2519
28926W        W45060  12.830   4.444   1.563  0.1792  0.1599  0.1532
28927W        W45061  10.912   8.698  14.014 -0.0059  0.3160 -0.1798
28928W        W45062  12.543  15.641  14.483  0.1437  0.2356  0.0419
28929W        W45063   0.713   3.570   5.584 -0.2914  0.0218  0.2728
28930W        W45064   8.493  16.612  13.336  0.0011 -0.3318 -0.2926
28931W        W45065   6.802  15.235   1.303  0.2753 -0.0602  0.1003
28932W        W45066  13.387   9.955  15.069  0.0179  0.0611  0.1680
28933W        W45067   1.844   2.483   2.545  0.0791 -0.0534  0.0214
28934W        W45068  14.645  16.558   2.673 -0.0708 -0.0889 -0.1375
28935W        W45069  12.975  11.133   1.292 -0.1759  0.0601  0.1728
28936W        W45070  11.875   8.058   1.726 -0.0402 -0.0068 -0.0890
28937W        W45071  13.395  11.846   0.834  0.1285  0.1716  0.1440
28938W        W45072   1.631  18.669  12.232  0.0463 -0.0478 -0.3002
28939W        W45073   8.085  13.946   4.412  0.0062  0.0590 -0.2738
28940W        W45074   0.116  16.419   5.542  0.1114  0.0771  0.1600
28941W        W45075  11.476   8.822   2.113 -0.0103  0.4172  0.1950
28942W        W45076  18.509   1.354  14.491 -0.1734  0.1651 -0.1867
28943W        W45077  10.077  14.069  15.358  0.1074 -0.2409 -0.2618
28944W        W45078  11.587   3.268   1.525  0.3009 -0.1590  0.1465
28945W        W45079  12.175   0.072  12.734 -0.0838  0.0666  0.0639
28946W        W45080   4.252   2.430  14.843 -0.1748  0.3393 -0.1024
28947W        W45081  14.236   1.329  14.390 -0.0137  0.2087 -0.1670
28948W        W45082   4.703   9.278   3.655 -0.4134  0.3092 -0.1483
28949W        W45083  12.920  11.235   3.791  0.1317 -0.1281  0.0519
28950W        W45084   4.896  10.455   1.924  0.4049  0.1596 -0.0674
28951W        W45085  17.522   4.806   1.325  0.0256  0.2073 -0.0802
28952W        W45086   8.924   1.176   1.777  0.3921  0.0600  0.1600
28953W        W45087   3.810  17.281   3.405  0.2256 -0.3217 -0.2832
28954W        W45088  12.525  16.145  10.360 -0.0711  0.1780 -0.1315
28955W        W45089   5.541  10.153   0.229  0.0548  0.1587  0.2758
28956W        W45090  14.850   8.812   3.569 -0.1604  0.1040  0.3351
28957W        W45091  16.818   0.707  11.305 -0.0845 -0.1718 -0.2604
28958W        W45092  10.154   2.933  11.841 -0.1728  0.1408  0.0583
28959W        W45093   8.444   3.991  14.152  0.3101  0.0561 -0.2556
28960W        W45094  15.026  15.548   2.998  0.1229  0.0944 -0.0509
28961W        W45095   1.011   0.165   2.857 -0.1240  0.0524 -0.1586
28962W        W45096  14.205   5.776   0.671  0.0424  0.5866 -0.0369
28963W        W45097  10.297  18.180  14.036 -0.0614 -0.0560 -0.0563
28964W        W45098   4.340  18.720   4.246 -0.0030 -0.3212  0.3387
28965W        W45099  18.664  12.373  14.916  0.2673  0.0431 -0.0819
28966W        W45100   2.675  13.901  13.338  0.1835  0.3359  0.0279
28967W        W45101  11.435  17.885   1.428  0.0161  0.2184  0.4545
28968W        W45102  17.730   1.606   1.547 -0.3343 -0.0578  0.0043
28969W        W45103  11.724  16.488   9.917 -0.0306 -0.0325 -0.0032
28970W        W45104  12.784   8.748   1.241 -0.1763 -0.1877  0.3793
28971W        W45105  10.215  15.353  13.758 -0.1585  0.1173  0.0613
28972W        W45106  15.415  13.210   2.731 -0.2051 -0.0331 -0.2590
28973W        W45107   2.430  15.202  11.451  0.2603 -0.5348  0.0282
28974W        W45108  11.271  11.296   5.608  0.2438  0.0254  0.2527
28975W        W45109   5.028   9.504   0.963 -0.1381  0.2407 -0.1580
28976W        W45110   6.692  15.349   1.886 -0.1299  0.1711 -0.0193
28977W        W45111   9.079  14.303   2.843  0.0089  0.2074 -0.0599
28978W        W45112   1.609  12.175   1.032 -0.3878  0.0428 -0.1585
28979W        W45113   3.788  13.713  12.237 -0.0490  0.0283 -0.1243
28980W        W45114  10.715  12.226   0.665 -0.0940  0.1579  0.0584
28981W        W45115   5.774   2.317   4.119 -0.0388 -0.4440 -0.0016
28982W        W45116   7.226   4.776  10.992 -0.2148  0.0075  0.1229
28983W        W45117   9.340   3.406   1.429 -0.0734  0.0827 -0.0551
28984W        W45118   9.487   4.345   5.147  0.2513 -0.2065  0.1504
28985W        W45119  14.891   1.506   3.383  0.1286 -0.0804 -0.0737
28986W        W45120  15.271  10.683   1.931  0.2157 -0.0692 -0.0363
28987W        W45121   0.921  11.561   2.548  0.1518 -0.4064 -0.4739
28988W        W45122   0.481  10.796  14.992  0.1303 -0.0889 -0.1195
28989W        W45123   1.668   8.786  10.560 -0.2402 -0.2064 -0.0385
28990W        W45124  12.872   9.195   0.237  0.0175 -0.3155  0.3052
28991W        W45125   9.707  10.740   2.566 -0.3241 -0.0374 -0.0536
28992W        W45126  14.252  12.868  11.884 -0.0930 -0.0810 -0.1022
28993W        W45127   1.128   0.333  10.839 -0.0589 -0.2020 -0.2969
28994W        W45128   6.944  12.168  14.440 -0.2258  0.0050 -0.3065
28995W        W45129   6.736  10.062   1.049  0.0837 -0.3184 -0.0961
28996W        W45130  11.611   1.894  11.606 -0.2143 -0.1491  0.0200
28997W        W45131  14.262   4.108   5.285 -0.0817  0.1982 -0.0567
28998W        W45132  17.614   0.660  10.301  0.0341  0.1795 -0.0002
28999W        W45133   9.808  15.015  11.020  0.0846  0.0746  0.2457
29000W        W45134  13.387  10.768   1.474 -0.1146  0.0377  0.0662
29001W        W45135   1.177   3.943   3.166 -0.0335 -0.3522  0.0478
29002W        W45136  11.727   2.409  12.842  0.0117 -0.0431  0.3509
29003W        W45137   2.087   8.471   4.964 -0.1952 -0.0003 -0.1443
29004W        W45138  16.497   7.221   4.532 -0.0370  0.1519  0.1512
29005W        W45139  12.252   5.235   3.633  0.1980 -0.3706 -0.0502
29006W        W45140   2.245  17.184  11.399  0.0001 -0.1517 -0.2628
29007W        W45141  13.767  15.307  15.570 -0.0348 -0.1069 -0.0166
29008W        W45142   4.002  17.408   0.513 -0.2203  0.0183  0.0767
29009W        W45143  17.225  11.526  12.209 -0.1699 -0.3252  0.1208
29010W        W45144   0.524   3.749  10.552 -0.3699 -0.0111 -0.3846
29011W        W45145   9.151  12.886  14.987 -0.1106  0.0627  0.4079
29012W        W45146  12.863  10.327   5.032 -0.3212 -0.2630  0.0678
29013W        W45147   0.911   4.903   2.194  0.0087  0.1400  0.2184
29014W        W45148  10.977   5.327   4.788  0.0802 -0.4926  0.3258
29015W        W45149   8.189  10.801   1.073 -0.5258 -0.2437  0.0686
29016W        W45150  14.675  17.630   1.357  0.1208  0.3062 -0.2790
29017W        W45151   8.273   9.474   1.355  0.0709 -0.0169  0.0703
29018W        W45152  18.129  14.476  11.803 -0.3678  0.2106 -0.3569
29019W        W45153  18.017  13.620  12.871  0.0743 -0.2873  0.1396
29020W        W45154  13.703  17.624   5.253  0.1105 -0.0956 -0.3212
29021W        W45155  18.098  12.968  10.918 -0.2172  0.0428  0.3960
29022W        W45156  17.814   8.976  11.544  0.1296 -0.1708 -0.1603
29023W        W45157  12.931   1.700   2.903  0.2505  0.1261  0.0656
29024W        W45158  14.268  12.425  11.642  0.2052  0.0909  0.0050
29025W        W45159   1.367   0.869  13.735  0.0267 -0.2969 -0.4094
29026W        W45160   0.276   4.811   5.544  0.3123 -0.1260  0.2541
29027W        W45161  15.629  14.313   0.165 -0.1996 -0.0488  0.0547
29028W        W45162  16.715   1.408  15.056  0.1080 -0.1430 -0.0842
29029W        W45163  17.551   7.247  12.086 -0.0816 -0.0026 -0.0689
29030W        W45164  14.141  10.591   0.488 -0.2079 -0.2688 -0.2101
29031W        W45165  13.793   2.775   0.051  0.3533 -0.2692 -0.1454
29032W        W45166  18.433  15.765  14.195 -0.1630 -0.1419  0.2468
29033W        W45167  16.716  15.547  13.995 -0.1171 -0.1431  0.1277
29034W        W45168   7.499   8.132  10.528  0.0295  0.0544 -0.0389
29035W        W45169  11.033  15.476  11.945 -0.0707 -0.3785 -0.1573
29036W        W45170  14.345   8.086  12.536  0.1708  0.6553  0.1429
29037W        W45171   3.865   2.050  14.098 -0.1372 -0.1816  0.0410
29038W        W45172   4.595  10.151   3.171  0.1385 -0.0318 -0.0621
29039W        W45173   6.572   7.542   1.069 -0.0720 -0.1668  0.0439
29040W        W45174  12.532   3.137   2.986  0.2329  0.0692  0.1609
29041W        W45175   0.663   2.115  12.829 -0.4061 -0.2473  0.1068
29042W        W45176   0.800  11.895  13.868 -0.1001  0.0442  0.0082
29043W        W45177   1.179  10.449   1.212  0.1358 -0.3851  0.0398
29044W        W45178  17.213   0.406  13.211 -0.4938  0.3688  0.0810
29045W        W45179  13.186   7.719   0.701  0.0660 -0.3002 -0.0347
29046W        W45180  17.750   5.710   1.697 -0.1261  0.1168  0.2893
29047W        W45181   5.083   5.822   4.924 -0.0891  0.0821 -0.2604
29048W        W45182   1.547   8.213  15.135  0.3189  0.0459 -0.0294
29049W        W45183  15.149   8.953   2.491 -0.0999  0.0461 -0.1383
29050W        W45184   4.178   8.828  11.493  0.0246  0.1872 -0.3323
29051W        W45185   5.441  16.784   5.407 -0.1557 -0.0871 -0.0914
29052W        W45186  14.754  15.607   2.599 -0.1035 -0.0627 -0.2967
29053W        W45187  12.712  14.141   2.322 -0.1366 -0.1321  0.2230
29054W        W45188   0.800   6.078  14.393  0.0531 -0.3669  0.1613
29055W        W45189  14.352   4.847   1.999  0.1249 -0.2019  0.3210
29056W        W45190   8.029   4.874   5.030 -0.2653 -0.0060 -0.2487
29057W        W45191   0.436   6.375   3.772 -0.2326 -0.0769 -0.0492
29058W        W45192  11.416  15.577   3.169 -0.3361  0.1672  0.3773
29059W        W45193   6.956  13.109   4.286  0.2251 -0.1288  0.0351
29060W        W45194  14.561   2.808  12.326  0.2041  0.1357  0.1528
29061W        W45195   1.326   7.199  11.721  0.1823 -0.1227 -0.0992
29062W        W45196  15.250  18.156  14.175 -0.1138  0.0437  0.2536
29063W        W45197   1.875  12.347  12.348  0.1289 -0.0178 -0.0653
29064W        W45198   7.405   1.513  15.472 -0.0102  0.1611  0.0501
29065W        W45199  17.149  13.530  10.993 -0.2027 -0.0643  0.0079
29066W        W45200   6.836  16.722  13.593  0.2143  0.4023  0.1468
29067W        W45201  14.089   5.089  14.967  0.0389  0.0057  0.3285
29068W        W45202   9.662  12.641   2.550 -0.0458 -0.3545  0.2383
29069W        W45203  15.996  15.053  15.207 -0.1822  0.1726 -0.0799
29070W        W45204  16.514  18.692  13.967 -0.3056 -0.1324 -0.4469
29071W        W45205  12.521  17.071   4.223 -0.1664  0.0901 -0.1607
29072W        W45206   3.571   6.733   0.132  0.1248 -0.1740  0.1807
29073W        W45207  13.294  15.433   5.554 -0.1431 -0.1597 -0.2176
29074W        W45208  16.716  11.878   3.577 -0.0797  0.1172 -0.1333
29075W        W45209   7.674   1.160   3.744 -0.1166  0.0333 -0.1890
29076W        W45210  14.069   1.229   3.795 -0.3638  0.2021  0.1912
29077W        W45211   3.160  10.020  12.974 -0.2328  0.1871 -0.0957
29078W        W45212  16.211  16.236  15.368 -0.3121  0.0752 -0.1753
29079W        W45213  16.148  12.636   3.671  0.0189  0.0741 -0.0479
29080W        W45214   2.969   8.579  13.957  0.0558  0.0981 -0.0051
29081W        W45215   4.188  14.445  12.202  0.0387 -0.2729  0.0536
29082W        W45216   5.869  11.393   2.543 -0.0259  0.0910 -0.1415
29083W        W45217  16.264   2.626  14.918  0.0785  0.2236 -0.0163
29084W        W45218   5.454   9.536   1.999  0.1073 -0.0253  0.1120
29085W        W45219  16.430  13.073  12.038  0.0045 -0.2334 -0.0425
29086W        W45220  12.832  12.457   4.620 -0.2768  0.0972 -0.0043
29087W        W45221   0.830  18.358   0.726  0.0618  0.0624  0.1470
29088W        W45222  13.396  11.015   0.300 -0.0321 -0.1313  0.1002
29089W        W45223  13.585   0.324   1.305  0.0098 -0.1702 -0.0907
29090W        W45224  11.324   3.876   0.652 -0.0339  0.2656 -0.1899
29091W        W45225   0.018  10.222   5.246  0.0323  0.1014  0.0535
29092W        W45226  11.483   8.531   2.585  0.0020 -0.1351 -0.3117
29093W        W45227  16.946   1.085  11.954  0.3274  0.3490  0.0723
29094W        W45228  15.972  14.983   0.722  0.0421  0.1384  0.1533
29095W        W45229   4.784  15.848   0.709 -0.1016  0.1342 -0.0003
29096W        W45230  18.377  13.392  13.182 -0.2229  0.1660 -0.4406
29097W        W45231   0.373   3.329   4.484 -0.0610  0.0272 -0.0576
29098W        W45232   6.960  12.742  11.354 -0.0591  0.0097 -0.0064
29099W        W45233   1.499  13.279  11.716 -0.0289 -0.3116 -0.1053
29100W        W45234  16.093  18.228  11.874  0.2563 -0.1408  0.0896
29101W        W45235   9.357  16.542   1.116  0.2470  0.0358  0.2511
29102W        W45236   5.761   1.253  14.746  0.0371  0.0127 -0.0439
29103W        W45237   2.685   3.221  13.143 -0.1075  0.0028 -0.0784
29104W        W45238   1.898   9.928   1.557  0.0400  0.3226  0.0573
29105W        W45239   8.358   7.972  11.087  0.2068  0.0463 -0.2070
29106W        W45240   4.385   9.724  14.474 -0.2342  0.1065 -0.0649
29107W        W45241   3.279   5.666   2.480 -0.2849 -0.1021  0.1401
29108W        W45242  18.520  15.019   0.879  0.0225 -0.0460 -0.0797
29109W        W45243   5.450  16.282   4.432  0.0416  0.1650  0.0720
29110W        W45244  11.212  16.496   1.706  0.2958 -0.0753  0.1491
29111W        W45245   5.929   2.980  15.331 -0.2924 -0.3506 -0.0271
29112W        W45246  17.048   2.322   0.705  0.1636 -0.0059  0.3180
29113W        W45247   3.727  12.931   5.585  0.0185  0.0259  0.0641
29114W        W45248   9.072   2.276  14.798  0.2407  0.0339 -0.1407
29115W        W45249  16.483  13.222   4.991 -0.2381  0.0721 -0.0258
29116W        W45250  12.008  13.936   0.995 -0.1617  0.0677  0.0924
29117W        W45251   3.910   9.627   4.815  0.1094 -0.0310  0.1372
29118W        W45252   8.003  13.743  11.748 -0.1310  0.1191  0.1487
29119W        W45253   6.287   2.274   3.387 -0.1596  0.0760 -0.3028
29120W        W45254  16.845  13.525  15.068  0.1167  0.1190 -0.2193
29121W        W45255  18.301  12.032  11.537 -0.0061  0.0283 -0.1924
29122W        W45256  16.656   1.265   1.556  0.1415  0.2168  0.4315
29123W        W45257  15.968  11.730   0.738 -0.1237 -0.0875  0.2202
29124W        W45258  11.147   8.533  13.585  0.1155  0.1594 -0.0806
29125W        W45259   2.407  16.116   4.656 -0.4652  0.3034  0.3993
29126W        W45260   2.630   7.831   5.458 -0.2493  0.0907  0.0835
29127W        W45261  12.112   3.735  14.867  0.0858 -0.1174 -0.1598
29128W        W45262   4.343   5.116   1.484  0.0465  0.1555 -0.0999
29129W        W45263   3.736  15.005  10.290 -0.1845 -0.0796  0.0900
29130W        W45264   8.059   6.980   2.083  0.1632 -0.1849 -0.0680
29131W        W45265  15.380   4.682   3.778 -0.2841  0.0220  0.1044
29132W        W45266  18.698   5.982   5.136 -0.0646 -0.0668 -0.2615
29133W        W45267  10.681  17.780   1.917  0.0475 -0.2897  0.1357
29134W        W45268  17.346   6.250   0.798 -0.1629 -0.0608 -0.1803
29135W        W45269   8.072  17.948  13.605  0.1370 -0.1910  0.0565
29136W        W45270  12.494   7.790  15.347  0.0802  0.1337 -0.4120
29137W        W45271  17.351  13.858  11.536  0.4486  0.0945 -0.2250
29138W        W45272   5.010  13.650   0.915 -0.0568 -0.1034  0.1234
29139W        W45273  13.842   7.153  15.037 -0.1750  0.1156  0.2805
29140W        W45274  17.925  14.317   3.953 -0.1105  0.0699 -0.1517
29141W        W45275  10.423  12.042   4.667 -0.3114 -0.2292 -0.1309
29142W        W45276   9.662  18.594   3.072 -0.2415 -0.3491  0.0395
29143W        W45277   9.538  17.127   4.747  0.1126  0.1082  0.1008
29144W        W45278   2.479   4.193  13.249  0.2249  0.2160 -0.0917
29145W        W45279  16.634   8.842   0.050  0.0195  0.0750  0.0691
29146W        W45280  13.383  14.883   4.192  0.0851  0.0878 -0.1823
29147W        W45281   3.452   9.876   4.283 -0.1503  0.1852  0.3373
29148W        W45282  10.608   3.380   1.866 -0.1398  0.0220  0.0581
29149W        W45283   3.619   8.836  15.427 -0.3677 -0.0544  0.0383
29150W        W45284   0.535   5.886   4.912  0.1750 -0.1566 -0.0222
29151W        W45285   2.177   4.630   2.190  0.4014  0.2114 -0.0518
29152W        W45286   5.518   3.123  10.764  0.0471 -0.1909 -0.1786
29153W        W45287   4.632   2.281   0.268 -0.1318  0.0545 -0.2657
29154W        W45288  12.866   8.502   4.040 -0.1939 -0.3252 -0.2746
29155W        W45289  12.327  11.519   1.844  0.0539  0.3068 -0.0691
29156W        W45290   0.339  18.396  12.932  0.1017 -0.0098  0.0505
29157W        W45291   7.950   9.270   1.789 -0.4843 -0.0650  0.0110
29158W        W45292  10.937   7.825   1.819 -0.2678  0.1412  0.1250
29159W        W45293   0.494   0.146  13.133  0.0197 -0.0585  0.0222
29160W        W45294  17.404  17.132   2.939  0.2615 -0.1799 -0.0523
29161W        W45295   7.027  10.794  11.335  0.1079 -0.0918 -0.0162
29162W        W45296   6.857  16.841  11.109 -0.2231  0.1648 -0.1136
29163W        W45297  15.954  13.035  12.209  0.1577 -0.3176  0.0554
29164W        W45298  18.729   5.426   2.954  0.1394 -0.3055 -0.3112
29165W        W45299  11.832   2.196  14.428 -0.1197 -0.0760 -0.1706
29166W        W45300   9.098   6.397   0.770 -0.1168 -0.2068  0.0720
29167W        W45301  11.004   5.258   4.299  0.0950 -0.2799 -0.3655
29168W        W45302  10.396   3.439   4.029 -0.1158  0.0758 -0.0173
29169W        W45303   9.073   3.290  13.224  0.2209 -0.2446  0.0126
29170W        W45304  11.750  12.655   5.471  0.1908  0.2470  0.1934
29171W        W45305   2.945  10.327  12.638  0.1088 -0.0167  0.2957
29172W        W45306   1.908  14.018  13.373 -0.4999 -0.0495  0.0958
29173W        W45307   8.126  15.462   2.021 -0.2844  0.0865  0.1192
29174W        W45308   9.529   8.443  11.318 -0.1922 -0.1195 -0.0161
29175W        W45309  17.088  15.261  13.719 -0.1635  0.1339 -0.0032
29176W        W45310  16.007   9.436   5.064 -0.2188 -0.0025 -0.0201
29177W        W45311  13.980   4.882   3.041  0.0999 -0.0492  0.1435
29178W        W45312  13.966   7.613  11.765 -0.1494  0.0025 -0.1352
29179W        W45313  16.305  15.897   3.260 -0.1601  0.0815 -0.2611
29180W        W45314   0.779   5.864   1.368 -0.0472 -0.1096 -0.3121
29181W        W45315   1.629   6.482   4.401  0.2695 -0.4540  0.1081
29182W        W45316  12.474   9.275   1.776 -0.0029  0.1981 -0.0649
29183W        W45317   9.013   5.175  14.532 -0.1076 -0.0251  0.4192
29184W        W45318  14.077  10.519   3.279  0.0394 -0.2604 -0.0936
29185W        W45319  13.040   5.060  14.095 -0.2083 -0.2688  0.0526
29186W        W45320   9.945   4.911  12.805  0.0408  0.2291 -0.0531
29187W        W45321  10.903  17.654  14.930  0.2114 -0.1330  0.0457
29188W        W45322  15.049   3.708   3.576  0.1702  0.2923 -0.0254
29189W        W45323   7.110   1.204   2.080 -0.0970  0.3625  0.0405
29190W        W45324  13.344   2.784   0.287 -0.3611  0.1179 -0.0025
29191W        W45325  15.175  16.791   3.540  0.2440 -0.1220 -0.0953
29192W        W45326  11.796  12.714  13.310  0.0134  0.2435 -0.0274
29193W        W45327  18.664  18.233  11.985  0.0371  0.3160  0.0923
29194W        W45328   1.144  15.380   4.299  0.0750 -0.3767  0.1817
29195W        W45329   5.707  15.900   3.090 -0.2339  0.1964 -0.2566
29196W        W45330   5.412   9.207   4.404  0.1559 -0.0569  0.2829
29197W        W45331   6.328   5.409   0.666 -0.2893  0.1397  0.2858
29198W        W45332  17.366   6.057  11.471  0.2902  0.1418  0.1550
29199W        W45333  10.128  11.096   0.760  0.0236 -0.0366 -0.1678
29200W        W45334  18.553   9.839  11.894  0.0459 -0.0630  0.1209
29201W        W45335   3.220   6.892  12.383  0.2624  0.4162  0.0383
29202W        W45336   0.755  14.185  15.568 -0.0878 -0.0121  0.0418
29203W        W45337   4.415  12.375  13.742  0.2067 -0.0227  0.0379
29204W        W45338  12.528   3.957   5.011  0.0896 -0.2059  0.2963
29205W        W45339   2.516   8.420  12.014  0.3877  0.0963  0.3268
29206W        W45340  11.702   5.347  10.870  0.1103 -0.0054 -0.0933
29207W        W45341   0.117  17.938  11.063  0.0879  0.1086 -0.1821
29208W        W45342   1.438   0.006  13.468 -0.0052 -0.3398 -0.1133
29209W        W45343   3.723  14.354   0.292  0.0010 -0.0706  0.2151
29210W        W45344  18.114   7.939   2.043  0.2167 -0.0481 -0.3515
29211W        W45345  10.392   7.947   4.575 -0.0231 -0.1265 -0.3075
29212W        W45346   0.588   3.821   3.126  0.0917  0.0520  0.4065
29213W        W45347  11.062   2.200  10.894  0.6464 -0.0779 -0.2651
29214W        W45348  15.427  12.580   1.089 -0.0145  0.1880 -0.0510
29215W        W45349  11.908   2.751  14.566 -0.0336 -0.4028 -0.1243
29216W        W45350  16.409  14.508   4.830  0.1824 -0.2387  0.1394
29217W        W45351  17.380   1.237  11.344 -0.1439 -0.2811  0.1019
29218W        W45352  12.951  14.009   2.759  0.0499  0.0345 -0.0850
29219W        W45353  13.767   7.289   3.146  0.0073  0.0484 -0.2456
29220W        W45354   3.530  14.813  14.535  0.0973  0.2417  0.5126
29221W        W45355  10.816   9.766   4.177  0.0579  0.1856 -0.1321
29222W        W45356  14.960   4.874   3.202 -0.1677 -0.2815 -0.2064
29223W        W45357   0.008   8.988  11.540  0.1044 -0.0094 -0.1366
29224W        W45358  13.487   9.914  13.978 -0.2181  0.1580  0.0323
29225W        W45359   9.512   5.691   4.348 -0.2246  0.1626  0.3688
29226W        W45360   2.837  18.308   4.908  0.1655  0.0802  0.0634
29227W        W45361  11.673   1.605   4.761 -0.2325 -0.1922  0.0401
29228W        W45362  16.761  13.130  11.662  0.0753  0.0235  0.3962
29229W        W45363   0.779  16.572   1.163 -0.2488 -0.1727 -0.0845
29230W        W45364   4.599  12.093  15.226 -0.1068  0.1566  0.2545
29231W        W45365   1.017   3.568   5.193 -0.1307  0.0855  0.0751
29232W        W45366   5.053  16.119   0.310  0.1459 -0.1999 -0.0394
29233W        W45367   4.268   5.250  11.529 -0.0790 -0.0536  0.5952
29234W        W45368   2.032  12.971   1.023 -0.0244  0.1387 -0.1152
29235W        W45369  13.896  15.368   1.446 -0.0011  0.2250  0.0277
29236W        W45370   4.969   5.823   1.887 -0.0883 -0.2863 -0.4846
29237W        W45371  12.570   2.625   3.341 -0.0045  0.2851 -0.0943
29238W        W45372  14.501  15.666  15.545  0.0062 -0.0017 -0.1690
29239W        W45373   4.165  10.301   2.231 -0.0112 -0.0776 -0.1915
29240W        W45374  14.848   9.807   2.142  0.1073 -0.3365 -0.0337
29241W        W45375  12.525   1.635   4.470 -0.0298 -0.1776  0.1030
29242W        W45376  11.433  15.256   2.668 -0.1446  0.0329 -0.2357
29243W        W45377   4.864   5.091   4.678 -0.0771  0.2233 -0.3069
29244W        W45378  14.196   0.487  15.014  0.1989  0.1563  0.0079
29245W        W45379  15.799  18.301   2.622  0.0340 -0.1904 -0.1103
29246W        W45380   6.740  17.431   2.326 -0.3790  0.0581 -0.1348
29247W        W45381   6.738   3.855  14.941  0.1209 -0.1725  0.0429
29248W        W45382  13.344   9.373   1.454 -0.1917  0.1376 -0.1154
29249W        W45383   5.936  14.340  12.397 -0.0809 -0.3059  0.0368
29250W        W45384  14.081  18.572  12.381 -0.1790 -0.2699  0.0465
29251W        W45385   5.922  12.246   2.980 -0.2299 -0.0584 -0.0181
29252W        W45386  12.727   0.844   4.974 -0.1374  0.1313 -0.1296
29253W        W45387  13.835  14.487  12.246  0.3667  0.0776  0.3384
29254W        W45388   3.172   7.556   5.273  0.3064 -0.1951  0.3572
29255W        W45389  15.576   3.847  15.149 -0.0589  0.0985  0.1998
29256W        W45390  15.098   1.723  13.096  0.0060  0.1616 -0.0469
29257W        W45391   4.804   1.038  14.789 -0.3647  0.1181  0.2890
29258W        W45392  11.255   2.616   0.171 -0.1071  0.0808 -0.0777
29259W        W45393  14.305   1.625  13.221  0.1479 -0.0347  0.0202
29260W        W45394   9.513   4.295  14.746  0.1031 -0.1317  0.4667
29261W        W45395  14.034  11.029  13.780 -0.0130 -0.3690  0.1454
29262W        W45396  16.874  12.362  11.014  0.2563  0.1409  0.4356
29263W        W45397   9.077  10.666  15.198  0.2169  0.0465  0.0456
29264W        W45398   6.986  12.641   5.130  0.0480  0.1548 -0.0159
29265W        W45399   2.580  16.318  10.452  0.1654 -0.4083 -0.0256
29266W        W45400   9.280  11.622  12.637 -0.2476  0.1281 -0.0886
29267W        W45401  18.500   5.072  13.645 -0.1761  0.3886  0.1885
29268W        W45402  15.384  15.070   3.206 -0.2585 -0.2456 -0.3033
29269W        W45403   6.861   7.656  10.904 -0.0761  0.1006 -0.2406
29270W        W45404  16.330   1.530   3.894  0.0467  0.0695 -0.0057
29271W        W45405  17.401  17.555   3.262 -0.1796 -0.1849  0.4810
29272W        W45406  16.240  17.768   4.837 -0.4012 -0.2907  0.0175
29273W        W45407  10.845   7.964   0.852  0.0787  0.0603 -0.1719
29274W        W45408   6.448   7.487   5.421 -0.0725  0.0019 -0.0174
29275W        W45409   7.622   2.351  12.444 -0.2116  0.0695  0.1380
29276W        W45410  18.562  18.144  11.497  0.0015  0.1180  0.0100
29277W        W45411  17.069   7.125   5.366  0.1013 -0.0222 -0.1209
29278W        W45412   5.658  12.474  13.293 -0.2326  0.1901  0.1431
29279W        W45413  10.000   1.991  15.308  0.0712 -0.1471 -0.1932
29280W        W45414   2.559   8.757   2.215  0.1156  0.1396  0.3356
29281W        W45415  13.588  13.972  15.489 -0.2357 -0.3678 -0.0495
29282W        W45416   1.325   1.521   4.215 -0.0336  0.0160  0.0979
29283W        W45417  15.717   0.216  10.802  0.0457  0.1747 -0.4225
29284W        W45418  10.825  12.847  13.990  0.0968  0.1403 -0.0006
29285W        W45419  13.300   6.346   0.841  0.0241 -0.0120 -0.2178
29286W        W45420   7.576   5.214   4.560  0.0520 -0.1683  0.1684
29287W        W45421   2.252  12.243   2.368  0.2789  0.3999 -0.1966
29288W        W45422   2.795   8.833  15.373  0.0604  0.1544  0.1714
29289W        W45423   2.943   9.825   4.153  0.0408  0.0186  0.1570
29290W        W45424  15.796   2.386  12.777  0.2003  0.0532 -0.2673
29291W        W45425  14.290   8.962  10.589  0.0888  0.0047  0.0615
29292W        W45426  10.767   7.529  13.395  0.1034  0.2038  0.0633
29293W        W45427  12.998  10.871  15.552 -0.1079 -0.0096 -0.0479
29294W        W45428  12.909  14.747   3.248  0.0667 -0.1136 -0.1019
29295W        W45429   2.538   4.568  14.936 -0.1327  0.0525  0.2426
29296W        W45430  14.903   4.564  15.072  0.0182  0.2683 -0.0387
29297W        W45431   5.430   9.067  15.205  0.2911  0.0738 -0.1005
29298W        W45432  15.134  12.553  11.025 -0.0768  0.2591  0.0299
29299W        W45433  13.756   3.858   1.002 -0.0658 -0.0779  0.0226
29300W        W45434  14.217  18.697  15.377 -0.0438 -0.0572  0.0035
29301W        W45435  15.196   4.415   0.882 -0.2157 -0.2143  0.2150
29302W        W45436   8.819   5.339  15.487  0.1315 -0.1045  0.0946
29303W        W45437  11.677   2.011  15.361 -0.0607  0.1049  0.3427
29304W        W45438   2.613  11.615  14.885  0.0232 -0.1718 -0.3899
29305W        W45439   2.162  16.878   1.331 -0.2252  0.0090 -0.0186
29306W        W45440   6.455  12.138   0.534 -0.0254 -0.0852  0.0677
29307W        W45441  15.211  12.374   2.791 -0.0871  0.0358 -0.2057
29308W        W45442  16.238  13.287   2.050  0.0579 -0.1156 -0.1748
29309W        W45443  11.439   1.398   1.233  0.0879 -0.0827  0.0865
29310W        W45444  16.656   5.892  13.672  0.0650  0.0259 -0.1059
29311W        W45445   3.218  14.338   3.768  0.2167 -0.0228  0.1712
29312W        W45446  10.578   4.124  14.182  0.0186 -0.1332 -0.0395
29313W        W45447  15.078   5.373  11.823 -0.0471  0.0004 -0.2682
29314W        W45448   5.076  13.652  11.988  0.0648  0.0747 -0.2182
29315W        W45449  10.016  13.629   0.007  0.1536  0.0502  0.1642
29316W        W45450  10.640   6.368  11.071  0.0289  0.3113  0.3187
29317W        W45451  14.969  16.642   2.246 -0.1741 -0.0933 -0.2108
29318W        W45452  13.977  16.226  12.780 -0.1888 -0.0407  0.0289
29319W        W45453  16.988  12.643  12.947 -0.0031 -0.0806  0.1218
29320W        W45454  16.538  14.606   3.904 -0.2397 -0.0685 -0.1463
29321W        W45455   4.245   8.478   5.262  0.1579  0.2644  0.2823
29322W        W45456   7.367  10.610   3.861 -0.2515 -0.1114 -0.0402
29323W        W45457  12.814  18.671  11.437  0.0734  0.0842  0.0830
29324W        W45458  16.362   0.608  12.108  0.4605  0.3807 -0.3136
29325W        W45459  13.573   2.353  10.464 -0.1917 -0.1010 -0.0128
29326W        W45460   5.778  14.721   0.702 -0.0692 -0.3028 -0.1287
29327W        W45461  18.325   4.981   4.870 -0.2576  0.1485  0.2084
29328W        W45462  11.540   1.493   0.786  0.1127  0.1085 -0.1527
29329W        W45463   2.266   7.560   1.111  0.1616 -0.1669  0.3653
29330W        W45464   0.899  12.140   1.679  0.2328  0.0648  0.2455
29331W        W45465   9.468   5.402   3.030  0.0805 -0.1429 -0.4355
29332W        W45466   5.724   4.955  11.018 -0.0252 -0.1721  0.2766
29333W        W45467   9.580   9.926  15.251  0.3919  0.0814 -0.3028
29334W        W45468   4.492  11.041   4.067  0.1243  0.0477 -0.2610
29335W        W45469   9.639   2.521  12.908  0.1118  0.1641 -0.0242
29336W        W45470  18.634   1.147  11.869 -0.4781 -0.1504  0.0739
29337W        W45471  16.304  14.706  13.476 -0.0260  0.0394  0.0431
29338W        W45472  14.393  18.378   2.376 -0.1513  0.0353  0.0046
29339W        W45473  18.236   3.431   1.633 -0.1078 -0.3236  0.4018
29340W        W45474   7.662  10.977  11.342  0.2407  0.3073  0.3010
29341W        W45475  14.196   3.191  11.041 -0.0083  0.0514  0.0892
29342W        W45476  13.771   4.006   5.164  0.0389 -0.1732 -0.1760
29343W        W45477   5.724  15.604   0.023 -0.0475 -0.0944 -0.1966
29344W        W45478   1.061  11.026   4.605  0.0660  0.1474  0.1820
29345W        W45479   9.803   4.563   3.410 -0.2077 -0.2767 -0.2187
29346W        W45480   7.466   1.149  13.998 -0.0953  0.2348  0.1457
29347W        W45481  17.556   2.814   0.079  0.1883 -0.1857 -0.0995
29348W        W45482   5.666   2.237   0.251 -0.0410 -0.0589 -0.0494
29349W        W45483   2.940   7.140  13.731 -0.1741 -0.0569  0.3892
29350W        W45484  16.790   7.171   3.035  0.0731  0.0673  0.2280
29351W        W45485  10.609   4.321  12.819 -0.2126  0.2365 -0.0972
29352W        W45486   1.768   5.054   4.634  0.2226 -0.0188  0.2185
29353W        W45487  16.751   5.672   3.139  0.2823 -0.0643  0.1184
29354W        W45488  15.381   7.968  11.691  0.1006 -0.1153  0.0565
29355W        W45489   4.249   3.977   2.391 -0.1232 -0.3695  0.1811
29356W        W45490  10.789   3.143  15.198  0.0192 -0.2753  0.0269
29357W        W45491  11.951   1.565  11.500 -0.0924 -0.2713  0.1085
29358W        W45492   0.833  17.961  11.278 -0.1413 -0.0894 -0.3223
29359W        W45493   5.272   9.235   0.050  0.2726 -0.0949 -0.1296
29360W        W45494   7.995  11.252   4.697  0.1322  0.3206 -0.1993
29361W        W45495  10.292   4.132   4.744 -0.0311  0.0774 -0.2854
29362W        W45496  17.375  11.821  14.469 -0.0205  0.1726  0.2070
29363W        W45497  15.571  11.671  10.624  0.0276  0.0087 -0.0108
29364W        W45498   6.797   5.851   4.634  0.1570  0.2958 -0.0222
29365W        W45499  10.602   1.518   2.403  0.1826  0.2920 -0.0571
29366W        W45500   4.388  18.538   4.835  0.0521  0.0216  0.2111
29367W        W45501  17.574  16.200   5.340 -0.3166  0.0521 -0.1627
29368W        W45502  10.950   8.645  11.308  0.2034  0.1291 -0.3352
29369W        W45503   2.452   0.309  14.766  0.2980  0.2271 -0.0273
29370W        W45504   8.525  11.248   2.728 -0.0365  0.0125 -0.0563
29371W        W45505  11.119   5.230   0.434  0.2111 -0.1101 -0.2459
29372W        W45506  11.812   0.062   1.141  0.2336  0.0439 -0.1513
29373W        W45507  10.510   7.463  12.981  0.1799  0.1395  0.0533
29374W        W45508   8.999  13.040   3.922  0.0229 -0.2084 -0.2079
29375W        W45509   7.684  15.121  14.674  0.0920  0.0878  0.0671
29376W        W45510  11.671  11.328  13.787  0.2566  0.2199  0.0412
29377W        W45511   2.862  13.696  11.796 -0.3996 -0.1021 -0.0960
29378W        W45512   3.230   0.003   3.959 -0.0848  0.1603 -0.1663
29379W        W45513  13.897   9.711   2.224  0.1277 -0.1431 -0.1491
29380W        W45514  15.856   6.097   3.295  0.3061 -0.0837  0.0324
29381W        W45515  12.654   6.760   3.797 -0.3561  0.0260  0.0436
29382W        W45516   6.374  10.331   1.263  0.1478  0.2629  0.0639
29383W        W45517   4.891  15.735  14.263  0.2143  0.3735  0.0679
29384W        W45518   8.593  18.279   4.421  0.3332  0.0832  0.1353
29385W        W45519   1.603   5.912  11.672 -0.2194  0.1991 -0.2548
29386W        W45520   0.322   5.988  11.686 -0.0429  0.0905 -0.1900
29387W        W45521  11.373   4.749   0.324  0.0292  0.0020  0.0349
29388W        W45522  11.716   7.542  14.275  0.1629 -0.4830 -0.1163
29389W        W45523   7.535  11.066   4.010  0.2165  0.4847 -0.0264
29390W        W45524   9.580   3.883  13.501  0.0630  0.2604 -0.0082
29391W        W45525  11.946  13.578  13.026  0.2601  0.0848  0.0965
29392W        W45526   0.947   9.768  15.189 -0.6580  0.2948  0.0213
29393W        W45527  12.053   0.247  12.284  0.0739 -0.1141 -0.0497
29394W        W45528   5.833  11.973   2.503 -0.1150  0.2291 -0.0620
29395W        W45529   4.049  10.617   0.071 -0.5323  0.3859 -0.1171
29396W        W45530   0.589  11.116  12.668 -0.0283 -0.1648  0.0305
29397W        W45531  11.580  18.161  10.965 -0.0413 -0.0089  0.1410
29398W        W45532  12.771  18.297  12.587  0.0931 -0.2142 -0.3775
29399W        W45533   7.252  16.580   3.138 -0.0261  0.1004  0.1938
29400W        W45534  14.817   5.822  12.097  0.1358 -0.1745  0.1602
29401W        W45535   4.364  12.516   1.495  0.1770  0.1283 -0.1661
29402W        W45536   2.354   7.749   0.246 -0.0066 -0.0248  0.1049
29403W        W45537  13.907  13.871  13.667 -0.3241  0.0570  0.0162
29404W        W45538   2.563  11.582   9.627  0.0735 -0.0158 -0.0560
29405W        W45539  11.112  11.525  14.631 -0.1016 -0.0493 -0.4163
29406W        W45540  16.745  15.948  14.650 -0.1607 -0.1002  0.1401
29407W        W45541  13.414   4.529   0.255 -0.3017 -0.3598 -0.0143
29408W        W45542   6.887   2.925  11.136 -0.2170  0.0627 -0.1586
29409W        W45543   0.066  11.043  15.218  0.2373  0.2934 -0.3103
29410W        W45544  15.627  13.339  15.217  0.2359  0.4149 -0.1835
29411W        W45545  13.305  18.027   2.373 -0.0450 -0.2142  0.0056
29412W        W45546   8.807  16.223   1.889 -0.4167 -0.3398  0.1327
29413W        W45547  13.809  16.738   1.616  0.1805  0.1252  0.3196
29414W        W45548  12.822   0.224   9.914  0.0006  0.0519  0.0869
29415W        W45549   0.163   2.262  14.673 -0.0472  0.0014  0.0902
29416W        W45550   4.718   4.361  13.503  0.0441 -0.2550  0.0844
29417W        W45551   5.231  10.620  12.169  0.1917 -0.1740 -0.0975
29418W        W45552  11.373   1.337  10.839  0.2450  0.2433  0.2250
29419W        W45553  15.961   6.277  11.740 -0.0818 -0.0909  0.0968
29420W        W45554   0.178   6.793   5.181  0.0356  0.2423 -0.0647
29421W        W45555   2.041  18.417  11.093 -0.1683  0.0268 -0.0630
29422W        W45556   1.191   6.161   2.272  0.0375  0.1695 -0.2095
29423W        W45557   1.878  11.809   2.321  0.3589 -0.3115  0.0342
29424W        W45558   2.106  10.129  15.519 -0.0234 -0.0215  0.0655
29425W        W45559   0.838  11.457  13.593 -0.1274 -0.1460  0.2977
29426W        W45560  11.900   3.004  13.204 -0.1730 -0.1333  0.2254
29427W        W45561   2.024   3.518  14.708 -0.0071 -0.1763  0.0103
29428W        W45562   9.022   6.879  12.947  0.4328  0.0766  0.1103
29429W        W45563  12.392  18.539  11.140  0.2131  0.1581  0.0529
29430W        W45564   7.362  18.366  13.621  0.0768  0.0876 -0.1131
29431W        W45565   8.827  12.533   2.372 -0.0279  0.0493 -0.0625
29432W        W45566  14.350   9.025   2.960 -0.0999 -0.1921 -0.2170
29433W        W45567   1.136  12.945   0.134 -0.2842  0.1574  0.2129
29434W        W45568   8.127  11.581  11.000  0.3650  0.1578 -0.3350
29435W        W45569   7.036  12.351   2.026  0.4202  0.0929  0.2598
29436W        W45570  18.200   9.046   2.942 -0.1689 -0.0842 -0.2180
29437W        W45571   5.133  14.142  11.989 -0.3318 -0.0711 -0.1298
29438W        W45572   5.215  11.297  11.522  0.4066  0.0519 -0.2195
29439W        W45573   8.210   5.712   2.948  0.0223 -0.0016 -0.1653
29440W        W45574  15.966   4.645  13.088 -0.0921  0.1633 -0.0332
29441W        W45575  10.891   2.639   1.101  0.1282 -0.0396  0.1455
29442W        W45576   1.390   6.019   5.671 -0.1198 -0.0178 -0.0173
29443W        W45577   5.823   9.015   4.587 -0.1168 -0.1781  0.2692
29444W        W45578   7.618  14.488  15.383 -0.0435 -0.1953  0.0948
29445W        W45579   0.452   7.378  12.055 -0.1589  0.1288  0.0424
29446W        W45580  14.876   3.422   3.016  0.3352  0.2089  0.0163
29447W        W45581   6.401  17.951  15.563 -0.1796 -0.3340  0.0801
29448W        W45582  14.399  16.727  12.065  0.2449 -0.0270 -0.1209
29449W        W45583  15.253   2.465   1.067  0.1161 -0.0801 -0.2342
29450W        W45584   5.682   1.967   2.490  0.4252 -0.0223  0.3543
29451W        W45585   5.520   7.692  14.756 -0.0096 -0.2205 -0.0004
29452W        W45586  17.509   3.112  14.084  0.0494  0.3271  0.1297
29453W        W45587  17.094  13.200   3.756 -0.0110 -0.0738  0.1054
29454W        W45588   0.189  16.977  13.509 -0.0833  0.0183 -0.1377
29455W        W45589   7.387   4.279  10.802  0.0996 -0.1604 -0.1080
29456W        W45590  15.211   9.558   2.399 -0.1413 -0.2532 -0.2127
29457W        W45591   0.863   6.162   0.749 -0.0036  0.2210 -0.0694
29458W        W45592  13.558  17.127   2.185 -0.2136 -0.0919  0.0036
29459W        W45593   4.774   6.589   3.866  0.4218  0.2261 -0.1214
29460W        W45594  13.515   0.501   0.823 -0.1444 -0.3282 -0.0922
29461W        W45595  15.113   3.531   2.369 -0.0069  0.0415  0.0769
29462W        W45596   7.702  11.501   0.358 -0.1480 -0.2032 -0.3998
29463W        W45597  18.311  10.571  13.279 -0.1429  0.0940  0.1226
29464W        W45598  14.161   7.662  10.514 -0.0505  0.0339 -0.2087
29465W        W45599   0.754   9.154   3.952  0.0490 -0.2182 -0.0081
29466W        W45600   1.719  15.843   5.290 -0.0359  0.3881 -0.1798
29467W        W45601   2.433   7.327  13.510  0.1930 -0.0145  0.4846
29468W        W45602   3.566   7.219   3.162 -0.2301  0.2899  0.1609
29469W        W45603   1.648   3.299  12.098  0.3388  0.0150  0.0182
29470W        W45604   0.619   5.032   4.572 -0.0253  0.0285 -0.5244
29471W        W45605   6.996   0.723   3.138 -0.0351  0.1225  0.2824
29472W        W45606  10.165   6.524   1.238  0.0034 -0.4043  0.5305
29473W        W45607   8.554  10.412  13.959 -0.0611  0.2864 -0.0980
29474W        W45608  13.430  17.775  11.941  0.0021 -0.3605  0.0367
29475W        W45609  15.651  16.169   1.920 -0.0841  0.1143 -0.1869
29476W        W45610  12.833   4.797   3.007  0.3007 -0.1134  0.2530
29477W        W45611  13.900   1.688   3.951 -0.0026  0.1542  0.2376
29478W        W45612   3.243  12.617   1.410 -0.2115  0.1079  0.1111
29479W        W45613   1.221   6.732   1.511 -0.2059  0.1025 -0.2017
29480W        W45614   4.691   8.765  14.516  0.2497 -0.0831 -0.1145
29481W        W45615   3.616   3.565  14.726 -0.1567  0.0765  0.0167
29482W        W45616   3.792   6.879  14.635 -0.3237  0.0635 -0.0865
29483W        W45617   7.995   8.797   1.501  0.1242  0.0795  0.0865
29484W        W45618  13.679  10.333  15.284 -0.0112  0.0173 -0.1462
29485W        W45619   8.623  10.962  14.738  0.0419  0.0391 -0.3406
29486W        W45620   6.732  18.244  13.168 -0.3227  0.0383  0.0432
29487W        W45621  14.865   0.952   4.451 -0.0632 -0.0605  0.0349
29488W        W45622   9.653  17.423   2.797  0.1501  0.1927  0.0446
29489W        W45623   3.201   9.130  13.387 -0.3135  0.2897  0.1547
29490W        W45624  14.858   3.368   1.036 -0.0398  0.2563 -0.0160
29491W        W45625   1.169   9.407   3.573 -0.1521 -0.2342  0.0597
29492W        W45626   1.457  13.768   3.708 -0.2190 -0.0309 -0.1428
29493W        W45627  10.748   1.402  15.520 -0.1545 -0.1518  0.1285
29494W        W45628   1.923   2.108  14.353  0.0349  0.1062 -0.0572
29495W        W45629   9.243   0.348   2.433 -0.0562  0.1090  0.0752
29496W        W45630  11.777   7.183   3.268  0.0537  0.0706 -0.1843
29497W        W45631   3.909   9.458  14.378  0.0360  0.0701  0.0112
29498W        W45632  13.654   8.825   1.876 -0.1441  0.0942 -0.0302
29499W        W45633  14.047  15.690  13.638 -0.3452  0.1245 -0.0388
29500W        W45634   5.616  15.466  15.127 -0.0997 -0.1987 -0.1956
29501W        W45635   0.195   6.581   0.204  0.0211 -0.1477  0.0206
29502W        W45636   9.804   1.677  14.959  0.0430 -0.0218 -0.1860
29503W        W45637  15.998   9.307   3.350 -0.1270  0.1338  0.0497
29504W        W45638   4.748   0.709  13.169 -0.1788  0.0407 -0.0515
29505W        W45639   7.708   9.910  13.988  0.1349 -0.3112  0.3570
29506W        W45640   4.912  18.240  13.461 -0.0771  0.0673 -0.0531
29507W        W45641   7.291  12.258  15.557  0.0495 -0.2359 -0.0076
29508W        W45642  11.028  15.091  11.122 -0.2705  0.1569  0.1417
29509W        W45643   6.934   0.731  10.536 -0.0239  0.1099 -0.0731
29510W        W45644  11.003   9.587   4.650 -0.1118  0.0939 -0.1088
29511W        W45645   8.848   9.320   1.056  0.1148 -0.1021 -0.2207
29512W        W45646  16.548   4.062   3.563  0.0713  0.0119 -0.1743
29513W        W45647  10.441   7.938  13.510 -0.0552 -0.1576  0.2109
29514W        W45648   5.097   8.869   3.768  0.0930  0.0675  0.1403
29515W        W45649  12.914   5.029  11.833 -0.0673  0.1737  0.0340
29516W        W45650  12.474  18.698   3.228 -0.1981  0.0089 -0.0713
29517W        W45651   5.334  16.580  14.931 -0.0495 -0.1411  0.1336
29518W        W45652   9.010  11.067  11.968 -0.0156 -0.0264 -0.1704
29519W        W45653   2.079  12.426  12.783  0.0696  0.0832  0.0871
29520W        W45654  18.638   5.684  11.146  0.2355  0.0745 -0.0321
29521W        W45655  10.617  15.027   0.648  0.0456 -0.1223  0.0878
29522W        W45656   4.496   3.356  13.641  0.0413 -0.0494 -0.2777
29523W        W45657   4.384  15.713  14.056 -0.3023  0.0523  0.0986
29524W        W45658  16.004   6.670  14.721  0.2303 -0.0057 -0.2229
29525W        W45659  16.547   5.798  11.365  0.0057 -0.1791 -0.1032
29526W        W45660   1.674   5.682  12.506 -0.2318  0.1618  0.0267
29527W        W45661   8.979  14.593   5.347 -0.1704 -0.0288  0.0945
29528W        W45662  12.993  14.725   4.977  0.3700  0.1567  0.2662
29529W        W45663  17.465   7.563   1.731 -0.1564 -0.1223 -0.3523
29530W        W45664   6.673  13.826  13.904 -0.0691 -0.0620 -0.1791
29531W        W45665  12.564  16.570  14.439  0.2541 -0.0222  0.0370
29532W        W45666   8.865   7.859   1.225  0.2721  0.1494  0.0639
29533W        W45667  10.005  11.587   5.242  0.0746 -0.1884  0.0529
29534W        W45668  14.004   0.473  14.463  0.1375  0.1600 -0.1865
29535W        W45669  11.209  14.509  13.965 -0.1161  0.1384 -0.1640
29536W        W45670   0.703  17.804   2.809 -0.4060  0.1680 -0.1058
29537W        W45671   0.542   1.600  15.243  0.0247 -0.0743 -0.1800
29538W        W45672  17.566   3.837  12.971  0.3198 -0.0811  0.1088
29539W        W45673  14.479  16.013   0.365 -0.0455  0.1318 -0.1992
29540W        W45674   6.051  10.465   0.892 -0.1530 -0.0275  0.1115
29541W        W45675   0.749  11.689   0.506 -0.0274  0.0818  0.1522
29542W        W45676  15.916   3.620  11.232  0.3721 -0.0358 -0.1108
29543W        W45677   5.438   8.231  14.782 -0.0965  0.1820  0.0679
29544W        W45678  11.832  17.236  14.395 -0.3359  0.1083 -0.1129
29545W        W45679  11.291  17.445  11.562 -0.1236 -0.1847  0.1131
29546W        W45680  13.306   5.316   3.772  0.0248 -0.1108  0.0867
29547W        W45681   1.184  13.520  14.997  0.1328 -0.1898  0.3964
29548W        W45682  15.461   2.043   1.377  0.0669  0.1185  0.0141
29549W        W45683   3.263  13.953   4.644 -0.1677 -0.0872  0.0577
29550W        W45684  17.420   8.348  13.143 -0.2036 -0.1171 -0.1815
29551W        W45685   2.717   9.726  13.915 -0.0308 -0.2242 -0.0550
29552W        W45686   6.114   6.797   0.017 -0.2400  0.0671  0.0254
29553W        W45687  18.298  10.901  12.457 -0.1185 -0.1119 -0.0611
29554W        W45688  15.046  15.330   4.386 -0.2107  0.2597  0.1609
29555W        W45689   8.458   4.781  12.656 -0.1459 -0.2966  0.0214
29556W        W45690   4.827   2.105   5.531 -0.1961  0.1522  0.0777
29557W        W45691  14.239   8.754  12.690  0.0038  0.0439  0.0032
29558W        W45692   4.059   6.458  14.845  0.0699  0.1154  0.0978
29559W        W45693   8.440  14.702  14.986 -0.1472 -0.0793  0.1549
29560W        W45694   2.850   3.399  12.086 -0.0405 -0.0151  0.3611
29561W        W45695   9.897   7.766   4.703  0.2537 -0.3278 -0.1198
29562W        W45696  18.537   5.338  10.832  0.1598  0.3771  0.2738
29563W        W45697   4.257   2.746   3.780  0.1104  0.2857 -0.1116
29564W        W45698  18.492   5.316  14.239  0.0125  0.1436 -0.1550
29565W        W45699   4.776   4.320   1.314 -0.3706 -0.3543 -0.4056
29566W        W45700   1.061   5.635   2.381 -0.2715 -0.4710 -0.1764
29567W        W45701   8.686  12.843  14.801  0.0102  0.1021 -0.1165
29568W        W45702  15.026   4.302  13.787  0.2436 -0.2077  0.0241
29569W        W45703   7.385  17.596  10.928  0.0626 -0.0686  0.2027
29570W        W45704   8.246  14.620   2.347  0.1073 -0.2875 -0.0539
29571W        W45705   0.969   8.969   1.976  0.1157  0.5655  0.1476
29572W        W45706   9.323   8.661   2.657  0.2135 -0.0362 -0.1718
29573W        W45707  14.786   9.786  11.326 -0.1802 -0.0052 -0.1139
29574W        W45708  10.404  10.422   0.264 -0.0764  0.1699  0.1290
29575W        W45709  14.769  18.584   0.514  0.0903 -0.0865 -0.1041
29576W        W45710  13.190   9.086   1.049  0.1548 -0.5420 -0.0181
29577W        W45711  16.735  17.467   1.247 -0.3437  0.2280 -0.0674
29578W        W45712   6.497  18.608   2.844 -0.1853  0.0975 -0.0573
29579W        W45713   0.346   1.757   2.090  0.2211  0.1252  0.2987
29580W        W45714  13.246  18.498  12.753  0.2766  0.1082 -0.1079
29581W        W45715  16.498   9.421   3.287  0.4261 -0.0936 -0.1119
29582W        W45716  13.251   6.131  10.727  0.0452 -0.0749 -0.0076
29583W        W45717   1.713  16.573  13.744 -0.1072 -0.1432  0.0531
29584W        W45718  12.348  13.689  12.612  0.0305 -0.2225 -0.0741
29585W        W45719   4.706  17.037   2.928  0.1722 -0.0311  0.0805
29586W        W45720   2.370   5.323  11.423 -0.1241  0.0813  0.1941
29587W        W45721  17.027  17.434  15.294 -0.3257  0.0162  0.1222
29588W        W45722   8.276   3.984   3.299 -0.3172 -0.0930  0.0776
29589W        W45723  13.294   2.287  13.387 -0.1856  0.1480  0.0961
29590W        W45724  14.815   6.497   5.090  0.1581  0.0210 -0.3951
29591W        W45725  12.018  13.107  11.229 -0.1873 -0.1637 -0.2927
29592W        W45726   7.309  11.854   2.021  0.2492  0.2316  0.1613
29593W        W45727   1.008  17.075  10.700  0.1287  0.1034  0.0932
29594W        W45728   3.102   7.239   0.724  0.1396 -0.1329 -0.0075
29595W        W45729   4.347   1.905   1.623 -0.2113  0.2460 -0.1885
29596W        W45730   7.907   2.752   3.336  0.2148 -0.0490  0.1482
29597W        W45731   6.808  10.449  13.893  0.1586 -0.2006  0.3164
29598W        W45732  13.891  18.512  11.859  0.0659 -0.0595  0.3709
29599W        W45733  16.120   1.203  13.948 -0.2673 -0.2613 -0.0660
29600W        W45734   7.138   1.072  15.434 -0.1084 -0.1970  0.0684
29601W        W45735   8.293   5.782  12.820 -0.4111 -0.1668 -0.0918
29602W        W45736  14.322  16.528   0.270 -0.1005 -0.0749  0.0401
29603W        W45737  14.852  12.332   4.565  0.1687 -0.1348  0.3052
29604W        W45738   4.147   6.341  14.332 -0.0353 -0.0329  0.0438
29605W        W45739   5.165   0.568   4.674 -0.0732 -0.3759 -0.2964
29606W        W45740   7.171   8.605  10.676  0.3462  0.0714 -0.0713
29607W        W45741   5.025  14.753  11.010  0.0837 -0.1104 -0.0236
29608W        W45742   2.212  15.202  15.116 -0.1096 -0.2074  0.2685
29609W        W45743   4.973   9.329   4.107 -0.0401 -0.0430  0.1679
29610W        W45744   8.747  16.294   1.307 -0.0444 -0.2737 -0.1686
29611W        W45745   8.281   7.456  11.966 -0.0083  0.2353 -0.0084
29612W        W45746   4.910   0.987   2.697 -0.0552  0.1013 -0.1367
29613W        W45747  11.397   7.783  10.165  0.1103  0.1411  0.0192
29614W        W45748  14.207   7.653   9.619  0.1849  0.3780 -0.0971
29615W        W45749   0.647   5.377   4.972  0.0309  0.0610 -0.3358
29616W        W45750   3.738   6.536   3.906  0.2958  0.0752  0.1041
29617W        W45751  11.198  16.117   0.943 -0.1643  0.3784  0.2663
29618W        W45752   8.202   7.375  13.928  0.0286  0.2243 -0.1467
29619W        W45753  13.823   6.827   1.019  0.0104  0.2589 -0.2037
29620W        W45754   4.257   8.051  11.194  0.1081  0.2628  0.1605
29621W        W45755   2.611  18.221  15.279  0.1946 -0.1707 -0.1827
29622W        W45756  13.921  14.053   2.530 -0.1424  0.3699 -0.1011
29623W        W45757   0.771   7.877   4.971  0.0890  0.3584 -0.1668
29624W        W45758   2.225   7.790  12.094  0.0233 -0.0737 -0.0054
29625W        W45759  13.000  14.669  13.582 -0.1016 -0.0519 -0.0636
29626W        W45760  11.290   2.266  12.090  0.1723  0.2881 -0.0500
29627W        W45761  16.268   5.915   0.724 -0.1111  0.2084 -0.2854
29628W        W45762  16.422  11.309  13.093  0.1357 -0.1660 -0.2586
29629W        W45763   8.221  12.574  13.000  0.0105  0.0961 -0.0728
29630W        W45764  16.754   4.403   3.262 -0.1401 -0.0538 -0.0227
29631W        W45765  10.202  17.867  11.932  0.0203  0.0089 -0.4525
29632W        W45766   2.212   3.180   0.527 -0.1297  0.0125  0.1637
29633W        W45767   9.317   9.046   3.029 -0.0850 -0.0076 -0.2818
29634W        W45768  11.352  11.061   1.543  0.2098  0.1933  0.0856
29635W        W45769   4.454   8.382   0.224 -0.1243  0.1133 -0.0327
29636W        W45770   6.487   5.419  13.843  0.3508 -0.2001 -0.0035
29637W        W45771  10.076  10.427   5.267  0.0402 -0.5094  0.2493
29638W        W45772   7.395   1.476   3.385 -0.1617 -0.0618  0.1521
29639W        W45773  10.364   1.673   9.799 -0.0362 -0.0282  0.0460
29640W        W45774   7.787   7.899  13.086  0.1139 -0.4021  0.0572
29641W        W45775  14.055   9.217  13.973  0.1885  0.1528 -0.1652
29642W        W45776  15.949   4.830   1.506 -0.2074 -0.0565  0.1945
29643W        W45777   8.310  15.477   3.971 -0.0038  0.2560 -0.0426
29644W        W45778   6.980  18.458   4.974 -0.0228 -0.1497 -0.1101
29645W        W45779  16.732   7.581   5.145  0.1969 -0.0132  0.0104
29646W        W45780  16.491   2.660   3.495  0.0743  0.2165  0.1282
29647W        W45781   3.554   8.968   3.731  0.0704 -0.3644  0.2226
29648W        W45782   7.766   3.587   1.245 -0.0540 -0.2054 -0.3459
29649W        W45783   9.228  15.521   4.661 -0.3779 -0.0565 -0.3348
29650W        W45784  12.626  14.296  13.912 -0.1064 -0.0338 -0.3348
29651W        W45785   8.008   9.145   0.077  0.3740 -0.0185 -0.2857
29652W        W45786  15.007  18.183  10.883 -0.2193 -0.0214 -0.2102
29653W        W45787   0.675   8.918   0.721  0.0078 -0.3091  0.1351
29654W        W45788  10.606   9.395  13.266  0.0447 -0.1517 -0.0583
29655W        W45789   1.424  12.208   2.851  0.2812 -0.1984 -0.2969
29656W        W45790  17.804   5.090   5.528 -0.0155 -0.3846  0.1940
29657W        W45791   4.690  15.740   3.442 -0.1847 -0.1211  0.2369
29658W        W45792   8.027   8.282   2.337  0.4591 -0.2697  0.0118
29659W        W45793   8.430  16.795   4.480  0.0570  0.3479  0.3222
29660W        W45794  18.659  18.389   4.405  0.1497 -0.2161  0.2947
29661W        W45795  10.801   8.508  10.855 -0.0176 -0.0611  0.1308
29662W        W45796   0.898   0.511   1.003  0.0531  0.0358 -0.0667
29663W        W45797   7.547  11.112  13.061 -0.0176 -0.3539  0.0261
29664W        W45798  14.663   8.509  10.803 -0.1705 -0.1501  0.2599
29665W        W45799  13.995  13.976  12.133  0.0410 -0.0296 -0.1192
29666W        W45800  11.138   8.857   0.884  0.3425 -0.0383  0.2441
29667W        W45801  16.638  14.538  14.253 -0.3337 -0.0252 -0.1575
29668W        W45802   6.396   1.239  11.701  0.1500  0.4572 -0.1126
29669W        W45803   7.013  13.478  15.335 -0.0874  0.2277  0.0261
29670W        W45804   8.115   9.409  11.205 -0.1462 -0.0204  0.3123
29671W        W45805  16.432   4.157   2.347  0.0230  0.1710 -0.1546
29672W        W45806   2.065  15.801   2.725 -0.4187  0.1090 -0.1714
29673W        W45807  17.867   0.744  15.082 -0.1731 -0.0751  0.4918
29674W        W45808   4.880  12.630   3.914 -0.0590  0.4687  0.2354
29675W        W45809  11.307   7.697  10.882 -0.3233 -0.1049 -0.1168
29676W        W45810  14.393  11.093   0.270  0.2437 -0.2985  0.2571
29677W        W45811   8.627   5.496  14.483 -0.0595 -0.1141  0.1567
29678W        W45812  10.091   4.622   4.699 -0.2342 -0.1398  0.1075
29679W        W45813   6.091  18.297  11.298  0.0053 -0.0508 -0.0978
29680W        W45814  13.049   0.403   3.873  0.1209 -0.3492  0.2891
29681W        W45815  14.023   5.979  15.007 -0.3276 -0.1043  0.0246
29682W        W45816   6.672   2.329   3.775 -0.1615  0.1597 -0.0523
29683W        W45817   8.411   1.132   4.982 -0.0770 -0.1825  0.4166
29684W        W45818   2.174   4.883  11.173 -0.2342 -0.0765 -0.0661
29685W        W45819   4.677  12.664   5.082  0.3116 -0.0119 -0.0959
29686W        W45820   0.590  16.856  12.585  0.0058  0.3238  0.2857
29687W        W45821  16.817   4.717   0.062 -0.1525 -0.3069 -0.2989
29688W        W45822  14.448   0.614  10.012  0.3351  0.1589 -0.2202
29689W        W45823  13.353   6.654   4.792 -0.0169 -0.1587 -0.0106
29690W        W45824  12.736  10.343  12.574  0.4060  0.1072  0.0525
29691W        W45825  14.925  15.359  13.992  0.0417  0.0138 -0.1396
29692W        W45826  18.686   0.155   2.238 -0.1226  0.3316  0.0752
29693W        W45827   3.207   9.114  10.724  0.0730 -0.1420 -0.5090
29694W        W45828  18.696   3.877  15.436 -0.5495 -0.1059 -0.2499
29695W        W45829  18.574  15.544   4.123 -0.0848  0.2401  0.1633
29696W        W45830  18.555  12.648   0.539  0.0011 -0.1535 -0.0702
29697W        W45831  12.963  17.425   3.077 -0.1640  0.2077 -0.0954
29698W        W45832   5.816   6.518  10.148  0.2451  0.1573  0.1290
29699W        W45833  17.504   2.078  10.877 -0.1904 -0.1773  0.1282
29700W        W45834   9.302   3.273  15.224  0.0672  0.0535 -0.0273
29701W        W45835   8.292   5.626   2.469  0.1662  0.0910 -0.2012
29702W        W45836   4.115   2.632   2.773  0.1927  0.1235 -0.0683
29703W        W45837   4.391  11.459   0.110  0.0512  0.0465 -0.1261
29704W        W45838  12.277   8.618  15.341  0.1554 -0.1606  0.1552
29705W        W45839  12.521  16.584   0.637 -0.2382 -0.2369 -0.2206
29706W        W45840  17.960  15.456   3.079 -0.2120  0.1505 -0.1119
29707W        W45841   5.504  17.600  13.789 -0.1671 -0.1088 -0.0086
29708W        W45842  16.837   6.727  12.568 -0.1123  0.1588 -0.2959
29709W        W45843  17.480  11.293  14.353  0.1213  0.1115 -0.0070
29710W        W45844   2.258   4.039  12.276 -0.0335  0.2450 -0.2477
29711W        W45845  11.998   1.264   1.014 -0.3293  0.2734 -0.0389
29712W        W45846  11.908   8.073   4.324  0.0137  0.1721  0.2555
29713W        W45847   2.162   2.119  10.754 -0.3714  0.2710  0.1528
29714W        W45848   4.467   0.257   2.728 -0.1922  0.0794 -0.0292
29715W        W45849  14.060   3.021  15.220  0.0916 -0.1383 -0.0354
29716W        W45850   3.472  10.195   2.976  0.0074 -0.1376  0.1270
29717W        W45851   1.977  16.236  11.981 -0.0283 -0.3715 -0.1228
29718W        W45852  17.594   4.877   0.715 -0.1414  0.1252 -0.1611
29719W        W45853  15.302   6.487   1.903 -0.0148  0.2356 -0.2484
29720W        W45854   4.274   5.204  14.922  0.0358 -0.1685 -0.3171
29721W        W45855  11.684  11.086  10.176  0.0984  0.0276  0.1996
29722W        W45856   4.881   6.703   1.884  0.1329 -0.2591  0.3386
29723W        W45857   1.804   2.881   0.439  0.1248 -0.2466  0.1621
29724W        W45858   7.238   2.238  13.302 -0.2258  0.1398  0.2146
29725W        W45859   7.686   4.199   1.584  0.0973  0.3315 -0.1163
29726W        W45860  11.262  12.892  14.746  0.2290  0.1581 -0.0591
29727W        W45861   5.610   3.297   1.421 -0.4356  0.1588  0.0457
29728W        W45862   2.431  13.988   5.130 -0.1484  0.1597  0.0928
29729W        W45863  13.480  11.088   1.096  0.2974  0.0632 -0.1945
29730W        W45864   5.995   0.816  11.418 -0.0085  0.0556 -0.3399
29731W        W45865  14.912  15.796  12.657 -0.0120 -0.0064 -0.1571
29732W        W45866  18.103   5.619  11.417  0.1726 -0.0402 -0.1701
29733W        W45867   0.322  18.248  13.408  0.1888  0.0356  0.1779
29734W        W45868  12.180  15.900  11.739  0.2463  0.0644  0.0540
29735W        W45869  18.081  10.213   2.462  0.1344 -0.1371  0.0711
29736W        W45870  11.752  16.753  14.273  0.0527 -0.1822 -0.1801
29737W        W45871   0.183   0.060  12.111  0.3459  0.1075 -0.1915
29738W        W45872   6.543   0.010  14.658 -0.2524 -0.0668  0.1476
29739W        W45873   2.549  11.034   0.151 -0.0021 -0.0264  0.0532
29740W        W45874  10.693   6.971   0.625  0.3061 -0.0720  0.0877
29741W        W45875   3.659  14.361   1.268 -0.0745  0.1827  0.2680
29742W        W45876  18.660   5.499  14.668 -0.1727 -0.1908 -0.1258
29743W        W45877  11.843  16.166   4.674  0.0954 -0.1597 -0.2235
29744W        W45878   3.571   0.092   1.921  0.0315 -0.1123  0.0506
29745W        W45879  16.677   2.240  13.392  0.0420  0.0495  0.0576
29746W        W45880   9.868  14.206   2.104  0.0063  0.0750  0.1880
29747W        W45881   8.787  11.497  11.075 -0.2831 -0.2267 -0.1746
29748W        W45882  16.780   9.364  10.435 -0.2782  0.4219  0.0081
29749W        W45883   7.218   2.753   2.490 -0.0314 -0.0292 -0.0242
29750W        W45884  14.053   8.012   3.820 -0.0064 -0.2494  0.1732
29751W        W45885  12.821   6.401   1.197 -0.2637 -0.2566 -0.0356
29752W        W45886  10.203  14.425   3.914 -0.0249  0.2827  0.1351
29753W        W45887   5.935  15.653  14.804 -0.2266 -0.0001 -0.0705
29754W        W45888   5.764   8.385   2.075  0.0675  0.0020 -0.3949
29755W        W45889   4.973  10.787  15.450  0.1659  0.1660 -0.1492
29756W        W45890   8.740   0.704   1.870 -0.0777  0.2115  0.2007
29757W        W45891   3.676  18.020   0.554  0.0952 -0.1343  0.0596
29758W        W45892   3.522   4.071   1.021  0.0661 -0.3934  0.1576
29759W        W45893  10.475   9.021  14.055  0.1913 -0.1773 -0.2144
29760W        W45894  13.068  14.335   1.124 -0.0306 -0.3737  0.0462
29761W        W45895   0.344  15.596   0.575 -0.0711  0.0122  0.3439
29762W        W45896   4.042   1.749  10.700 -0.1572 -0.2916  0.1862
29763W        W45897   8.924  10.368  12.766 -0.0301 -0.2328 -0.0955
29764W        W45898   0.755   6.200  12.265 -0.2652 -0.1020 -0.2328
29765W        W45899   1.068  13.043   1.781  0.2948 -0.2681  0.1677
29766W        W45900  10.515   6.372   4.114 -0.3822  0.3696 -0.2099
29767W        W45901  17.287  18.310   2.134 -0.1935  0.0100 -0.0112
29768W        W45902  18.481  15.611  13.459  0.0185 -0.0238 -0.1879
29769W        W45903  10.359  10.524   3.641 -0.5168  0.0940  0.3345
29770W        W45904  15.188  11.486   1.338  0.0043 -0.0864  0.1716
29771W        W45905  15.303   8.349  11.307 -0.1578  0.2225 -0.3560
29772W        W45906  17.997   9.699   5.459  0.0768  0.2033  0.2370
29773W        W45907   8.153   3.742  12.794  0.2963  0.1912  0.1479
29774W        W45908   5.566   5.126   1.371 -0.0934 -0.1619  0.1998
29775W        W45909   6.955   1.721   3.423  0.1546  0.3098  0.0930
29776W        W45910   3.719   1.824   0.333 -0.0446  0.2766  0.3246
29777W        W45911   6.935   3.937  13.757 -0.3010  0.1499 -0.1197
29778W        W45912   0.384  11.406  15.151 -0.3090 -0.1652 -0.1073
29779W        W45913   4.632  16.333   4.455 -0.0912 -0.1264 -0.1730
29780W        W45914  11.346  17.052  14.400 -0.1208 -0.0744 -0.3030
29781W        W45915   0.793   0.410   4.986  0.0308  0.1205 -0.1670
29782W        W45916   9.775   9.815   4.007  0.3053  0.0147  0.1554
29783W        W45917   3.042  10.487   0.895 -0.3113 -0.1555  0.0863
29784W        W45918   7.412   9.144  11.468  0.1524  0.1009  0.0049
29785W        W45919   7.943  18.464  12.446  0.0196 -0.1846  0.2349
29786W        W45920   7.202  15.817  10.686  0.0545  0.3645 -0.4364
29787W        W45921   9.450  12.531   1.643 -0.4647  0.0635 -0.3703
29788W        W45922   6.486   0.361  11.788 -0.5722  0.0616 -0.3237
29789W        W45923   1.818   9.385  12.876 -0.1168 -0.1759 -0.1100
29790W        W45924   8.645  14.208  13.147  0.0988  0.0853 -0.1791
29791W        W45925  12.832  12.297  13.476  0.0872 -0.1539  0.1119
29792W        W45926  13.737  16.763   1.118 -0.1090 -0.0525  0.2153
29793W        W45927   1.526   5.666   0.679 -0.0067  0.2630  0.1413
29794W        W45928  17.076  16.543  14.927  0.0172  0.0905 -0.1217
29795W        W45929   1.897   0.956   3.421  0.0750 -0.1247 -0.1188
29796W        W45930   9.877  13.193  12.130  0.1868  0.3007  0.3186
29797W        W45931   6.155   9.110  11.469  0.1443  0.0997 -0.0150
29798W        W45932  10.672   3.999  10.324  0.3396  0.2605  0.0727
29799W        W45933   9.412   6.593   9.782  0.2661  0.0243 -0.1189
29800W        W45934  11.424   4.315  12.442  0.1949  0.1454  0.0707
29801W        W45935   8.542   8.461   3.910 -0.3367 -0.3497 -0.1873
29802W        W45936   9.258  13.707  14.554  0.0098  0.0419  0.1627
29803W        W45937  12.046   6.767   3.526  0.0834  0.2464 -0.1146
29804W        W45938  18.241   2.741  10.698  0.1221  0.0299 -0.0064
29805W        W45939   7.384  11.353   1.176 -0.2267 -0.1973 -0.0632
29806W        W45940  17.827   6.374  14.415 -0.1243  0.1723 -0.1333
29807W        W45941  15.202   7.743  14.191  0.5016 -0.2296 -0.1733
29808W        W45942   8.441   3.288   0.841 -0.2024  0.1699  0.0256
29809W        W45943  18.649   0.728   2.080 -0.1809  0.2484 -0.1330
29810W        W45944   2.608   8.529   2.681 -0.2038 -0.0099 -0.1426
29811W        W45945  17.869  15.708  12.422  0.3502  0.0602 -0.1140
29812W        W45946  14.826  18.203   1.579 -0.0897  0.1938 -0.1746
29813W        W45947  15.322   4.825  14.780 -0.1357 -0.2698 -0.0114
29814W        W45948   7.092  18.064   4.122 -0.1899  0.1849  0.2367
29815W        W45949  18.340  17.158   3.300  0.1778  0.2317  0.1000
29816W        W45950   6.514   5.819  12.274  0.2244 -0.4268 -0.0823
29817W        W45951   4.414   6.752  14.290  0.1860 -0.0215 -0.1494
29818W        W45952  14.843  16.368   0.190  0.0195 -0.1201 -0.1126
29819W        W45953  12.004  17.268   1.635 -0.2716 -0.0180  0.0183
29820W        W45954  15.379  10.763   3.714  0.0915  0.1108  0.1296
29821W        W45955   2.484  17.512  11.815 -0.1701  0.2653 -0.1663
29822W        W45956   6.120   4.604   4.397  0.1538  0.2143  0.2279
29823W        W45957   8.986   2.501  15.551 -0.1890  0.5139  0.0458
29824W        W45958   6.272  12.953   2.614 -0.0397 -0.1003 -0.2210
29825W        W45959  13.523   8.453   1.472 -0.3444  0.0180  0.0764
29826W        W45960  14.097  18.371  14.274 -0.0763  0.1756  0.0937
29827W        W45961   4.751  12.001  11.110 -0.2659 -0.0625  0.2077
29828W        W45962   9.879   0.103  14.996  0.0866 -0.1883  0.3472
29829W        W45963   4.593   7.416   3.455  0.0162 -0.1268  0.2074
29830W        W45964   2.538   1.402  12.178 -0.0095  0.0686 -0.1226
29831W        W45965   0.536  10.892   4.856 -0.0618  0.0059 -0.0508
29832W        W45966   7.339  13.712  15.065  0.0529  0.2019 -0.1850
29833W        W45967   1.743  14.613  12.716  0.0606 -0.0773 -0.0202
29834W        W45968   5.067  13.109   2.120 -0.0337 -0.0607 -0.2145
29835W        W45969  11.148  17.980  14.049  0.1901 -0.0542 -0.0469
29836W        W45970   0.671  11.591   9.678  0.0099  0.0075 -0.1543
29837W        W45971   8.540  12.042   2.382  0.0019 -0.0308  0.0365
29838W        W45972   5.667  12.548   0.145  0.2396 -0.1301  0.0394
29839W        W45973  12.249  16.043  13.241 -0.0003  0.4242  0.0961
29840W        W45974   1.708  17.846   0.719  0.0079 -0.0419 -0.0550
29841W        W45975  16.916  12.032  12.175 -0.4120 -0.0115  0.0075
29842W        W45976   2.540   1.681   1.540  0.1220 -0.0402 -0.2085
29843W        W45977  15.095   6.186   4.723 -0.3948  0.0816  0.0008
29844W        W45978   5.924  10.684  11.985 -0.0418  0.1240 -0.1768
29845W        W45979   5.283   4.825   4.831  0.0784 -0.1089  0.1955
29846W        W45980   0.405  18.119   3.735  0.2211 -0.1978 -0.3038
29847W        W45981  14.767  14.512   2.197  0.1516 -0.0537 -0.0029
29848W        W45982  14.232  17.962  11.273  0.1709 -0.2828  0.0966
29849W        W45983  13.731  14.530  11.630  0.2733  0.0127  0.0507
29850W        W45984  14.247   7.917  14.498 -0.2594 -0.0385 -0.4024
29851W        W45985   6.785   8.122   4.187  0.1902 -0.0188 -0.2342
29852W        W45986   1.370   7.768  11.775  0.2154 -0.1741 -0.2769
29853W        W45987  14.183   6.570  12.572 -0.2843 -0.0612  0.1263
29854W        W45988  13.018  14.995  14.512 -0.2799  0.2678 -0.1632
29855W        W45989  14.342   1.874  10.640 -0.0222 -0.1098 -0.1959
29856W        W45990  14.161  11.383   3.337  0.0680  0.0841  0.0685
29857W        W45991  17.665   3.720  15.474  0.2916  0.0729  0.0464
29858W        W45992  14.079  18.540  10.900 -0.0331  0.1138  0.0504
29859W        W45993   2.428   1.102   0.855 -0.2255 -0.3021 -0.0948
29860W        W45994   1.385   9.619  12.880  0.1733 -0.1628  0.0483
29861W        W45995   7.644   6.856   0.803 -0.1846  0.2587  0.0106
29862W        W45996   5.895  10.955   4.657  0.0781  0.0589  0.5162
29863W        W45997  14.894  10.402  12.813 -0.2129  0.0278  0.1939
29864W        W45998  12.344   0.659   4.736  0.2631  0.3880 -0.0193
29865W        W45999   7.025   9.896   0.580  0.1364 -0.1234 -0.1315
29866W        W46000   6.060  14.620   3.906 -0.0555  0.0007  0.5037
29867W        W46001  10.885  14.042  12.589 -0.0163  0.0986  0.0472
29868W        W46002   7.854   9.676   1.571  0.1338 -0.2010 -0.2464
29869W        W46003  15.309  13.325  13.753  0.0565  0.3613 -0.0477
29870W        W46004   5.236   0.799   2.986 -0.0426 -0.0321 -0.1360
29871W        W46005  15.045   7.536  15.195 -0.2028  0.2679 -0.1270
29872W        W46006  12.871   1.825   1.519  0.2749 -0.5309 -0.3544
29873W        W46007   8.277   5.490   3.393  0.1489  0.0857  0.3337
29874W        W46008   0.139   6.325  15.325 -0.0622 -0.1270  0.0107
29875W        W46009  18.594   3.803  13.969 -0.1212  0.0432 -0.1265
29876W        W46010   5.390   6.156  11.408  0.2662 -0.2775  0.0864
29877W        W46011  11.706  18.260   1.126 -0.0847 -0.2209  0.0234
29878W        W46012   4.712   0.226   0.527  0.0918  0.3455  0.0444
29879W        W46013  13.393   7.851  11.052  0.1343  0.1708 -0.2659
29880W        W46014   8.881   9.586  13.601 -0.3548  0.2818 -0.1437
29881W        W46015  14.063   8.790   2.551 -0.0744  0.2645  0.2050
29882W        W46016   9.936  18.684  11.657 -0.0986 -0.1673  0.0584
29883W        W46017  17.841   7.562  14.711 -0.0005 -0.1127 -0.0883
29884W        W46018  11.575   2.314   4.220  0.0860  0.2568  0.3235
29885W        W46019  15.190  15.789  14.311 -0.0356 -0.0533  0.1015
29886W        W46020   4.790   2.267  14.493 -0.1704  0.1626 -0.0267
29887W        W46021  10.528  16.694  12.333 -0.0053  0.2234  0.0724
29888W        W46022   5.435  15.899   1.293 -0.0246 -0.0196 -0.1645
29889W        W46023  15.880  12.798  11.624 -0.0401  0.1442 -0.2555
29890W        W46024   7.832   6.283   3.485  0.0820  0.0739 -0.4858
29891W        W46025   3.889  11.107  13.825  0.2531 -0.1144  0.2436
29892W        W46026  12.410   2.187   2.750  0.0420  0.1647 -0.0690
29893W        W46027  10.728  18.085  13.708  0.3834 -0.2888 -0.0520
29894W        W46028  13.530  17.674   3.479  0.3992 -0.1600  0.1369
29895W        W46029  17.534   2.236   2.799  0.2036  0.2615  0.1099
29896W        W46030   3.776   6.317   3.361  0.1420  0.1313 -0.0707
29897W        W46031  13.995   4.257   4.482 -0.5368  0.0631 -0.2396
29898W        W46032   0.445  18.000   1.823  0.0965 -0.0710 -0.1238
29899W        W46033   0.224   1.782   2.899  0.0980 -0.2495  0.1301
29900W        W46034  15.851   6.106   1.077 -0.0547 -0.1013  0.3016
29901W        W46035   8.785  15.267   4.650 -0.2418  0.0057 -0.1996
29902W        W46036   9.971   6.659  14.482  0.3710  0.2394  0.0951
29903W        W46037   2.996   1.231   4.558  0.1318 -0.4081 -0.2103
29904W        W46038  13.826  14.241  13.249  0.0897 -0.2004  0.1583
29905W        W46039  17.351  17.216  11.276 -0.1048  0.1574  0.1451
29906W        W46040  14.748  16.632  13.691  0.1064 -0.0350 -0.0868
29907W        W46041   0.194   0.430  13.403  0.0672 -0.1189  0.3847
29908W        W46042   5.430   3.291   3.525  0.1829  0.2728  0.0806
29909W        W46043  15.583   0.678   2.817  0.0989 -0.2671  0.1418
29910W        W46044   1.643   6.181   2.052 -0.1688  0.0840  0.2890
29911W        W46045   6.696   6.282   1.939  0.3456  0.0719  0.0790
29912W        W46046   0.614   2.224   2.048 -0.1163  0.0368 -0.1276
29913W        W46047  15.216   2.989  13.565 -0.2827 -0.0756 -0.0479
29914W        W46048   3.541  14.772   2.726  0.1534  0.0417  0.0025
29915W        W46049   6.632  11.732   3.533 -0.0806  0.0266  0.1449
29916W        W46050   5.657  10.151  13.729 -0.0644  0.0836  0.1222
29917W        W46051  13.770  16.249  12.142  0.0130 -0.0039  0.0970
29918W        W46052   2.647   5.367   3.485 -0.0715 -0.0519  0.1583
29919W        W46053  12.159   7.835  10.524  0.1140  0.0215 -0.2105
29920W        W46054   6.644  13.051   1.693 -0.1105  0.0669 -0.0507
29921W        W46055  11.595   1.777  10.663  0.3556  0.0087 -0.3118
29922W        W46056   8.371   6.560  14.634  0.3436 -0.1263 -0.2107
29923W        W46057   6.043   6.371   0.650 -0.1721 -0.1193 -0.1695
29924W        W46058  13.280   3.869  13.471  0.0369  0.2731  0.3121
29925W        W46059   6.397   6.571   1.004  0.1590  0.1611  0.0569
29926W        W46060   6.319   9.957  14.350  0.4836  0.1702  0.3300
29927W        W46061   0.283   1.203   2.924 -0.1599 -0.0905  0.2121
29928W        W46062   9.674  17.433   4.309 -0.2124  0.0882  0.0932
29929W        W46063   0.592   1.050  13.990 -0.0213 -0.0700 -0.0004
29930W        W46064  18.183   3.078  14.738 -0.0646 -0.3171  0.0359
29931W        W46065   5.076  17.967   1.265 -0.1128  0.0479 -0.1032
29932W        W46066  15.638  10.650  10.742  0.0447 -0.0232  0.1749
29933W        W46067   7.586   5.883   1.103 -0.0323  0.0243  0.4465
29934W        W46068  17.799  13.578  13.792  0.0259  0.1412 -0.1568
29935W        W46069  16.258  18.267   4.764  0.0267  0.0947  0.0989
29936W        W46070   0.722   1.766  13.349 -0.1174  0.1599 -0.2187
29937W        W46071   7.920   8.475   2.916 -0.2753 -0.0054 -0.2121
29938W        W46072  11.227  15.781   0.566  0.2161 -0.2783 -0.0036
29939W        W46073   3.323  16.041  13.843  0.0152  0.0400  0.0475
29940W        W46074  16.130   2.376   1.938 -0.0825 -0.1314  0.0081
29941W        W46075  11.508  15.723   0.947 -0.0255 -0.1517  0.1143
29942W        W46076  15.335  17.976  13.684 -0.3899  0.3154 -0.0370
29943W        W46077   2.776  15.886   4.922 -0.1021  0.1176  0.0017
29944W        W46078  17.743   1.887  12.565 -0.1091  0.1278 -0.1530
29945W        W46079  11.459   2.205   2.753 -0.1156 -0.1401  0.0437
29946W        W46080  12.648  10.983  13.228 -0.3899 -0.0742  0.0045
29947W        W46081  15.335   6.798   3.751 -0.0781  0.2283 -0.0117
29948W        W46082  16.239  10.598   2.093  0.2118 -0.2229  0.0589
29949W        W46083   4.029   5.251   2.416  0.0146 -0.0098 -0.0227
29950W        W46084   0.864  15.210   2.486  0.1568 -0.0417  0.3461
29951W        W46085  14.656  11.077   4.734  0.1897 -0.0717 -0.2584
29952W        W46086   2.466   5.470  14.295  0.3077  0.2931  0.0192
29953W        W46087  16.359   4.967  14.804  0.2067  0.0954 -0.0633
29954W        W46088   0.482   5.544  14.738 -0.0075  0.1534 -0.1423
29955W        W46089   8.187  18.285   4.741 -0.0464  0.0290  0.3920
29956W        W46090  14.583   1.312  14.881  0.1832  0.2290  0.2462
29957W        W46091  16.111   3.931  13.746 -0.4383 -0.2096 -0.0177
29958W        W46092  10.605   3.442  13.863  0.0739  0.1223 -0.2781
29959W        W46093  17.497   5.210   1.718 -0.1344  0.0069  0.3937
29960W        W46094   1.061  13.745   4.401  0.1964  0.0562  0.3514
29961W        W46095   2.665  12.563  14.402 -0.4151  0.3085  0.0029
29962W        W46096   8.119  18.685   0.723  0.0560 -0.0025 -0.0384
29963W        W46097  14.847   1.060  13.363 -0.3013 -0.4675 -0.0198
29964W        W46098  18.050   8.077  11.878  0.0843 -0.0011  0.0861
29965W        W46099   1.674   2.424  13.454 -0.1935 -0.1886 -0.2673
29966W        W46100   0.713   5.242   3.073  0.1512 -0.1738  0.1205
29967W        W46101   8.041   3.336   9.944  0.0537  0.0680 -0.1247
29968W        W46102  15.710  13.404  10.108 -0.0028 -0.4784  0.0044
29969W        W46103   1.612  10.087   0.005  0.1903  0.0291 -0.0981
29970W        W46104   4.644  16.790  13.944 -0.0005  0.0747  0.1824
29971W        W46105   4.739   9.837   2.742 -0.2796  0.1021 -0.2618
29972W        W46106   1.883  12.689   2.281  0.2664  0.1982 -0.2391
29973W        W46107   3.093   5.197   5.064  0.0431  0.0378  0.0056
29974W        W46108  10.274   0.034  15.328  0.0144 -0.0514 -0.0445
29975W        W46109   8.870   2.704  14.613  0.1197 -0.2618  0.0659
29976W        W46110   6.990   4.300  13.403  0.3095 -0.0959  0.0522
29977W        W46111   6.152  11.275  11.733 -0.4113  0.1161 -0.2155
29978W        W46112  14.038  15.506   3.728  0.2705  0.2279 -0.3515
29979W        W46113  13.975  10.658   2.277 -0.1345 -0.0576  0.1877
29980W        W46114  17.772   4.294  10.357  0.2076  0.0294  0.1046
29981W        W46115   8.988   5.559   2.068 -0.1180  0.0157 -0.2543
29982W        W46116   8.522  14.221   2.646  0.0823  0.2001 -0.2221
29983W        W46117   9.504  15.563   5.087 -0.2010  0.0862  0.0846
29984W        W46118   9.475   9.950  11.566 -0.0817  0.1890 -0.0014
29985W        W46119  15.164  13.050  14.775  0.3386 -0.1488 -0.0409
29986W        W46120   0.256  16.695  14.450 -0.2673  0.0793  0.2179
29987W        W46121  17.594  10.903   0.233 -0.1531  0.0965  0.3312
29988W        W46122   3.147  12.382  11.032  0.1100  0.5712 -0.2013
29989W        W46123  12.202  14.437   1.825 -0.0883  0.2996  0.2092
29990W        W46124   1.219   4.420  13.097  0.3854 -0.0588  0.2154
29991W        W46125  17.435   8.549  14.924  0.5798  0.1805  0.0117
29992W        W46126   7.548   6.150   5.181  0.0020 -0.0861  0.1532
29993W        W46127   8.125  14.707  12.036  0.1914 -0.2117  0.3918
29994W        W46128   1.651   3.894   1.229  0.0667 -0.1504 -0.2288
29995W        W46129  14.791  13.035  11.107 -0.2487 -0.1716 -0.3878
29996W        W46130   7.279   5.934   4.450 -0.0892  0.0049  0.2051
29997W        W46131  14.615  17.857  10.975 -0.0170 -0.1902  0.0083
29998W        W46132  14.848  11.437  15.365 -0.1424  0.3275  0.1284
29999W        W46133   8.976   9.108  14.441 -0.2509  0.1740  0.1351
30000W        W46134   8.760   1.074  10.660  0.1272 -0.0181 -0.1195
30001W        W46135  17.075   9.169   1.977 -0.0793 -0.2907 -0.0859
30002W        W46136  13.541  15.829   3.143  0.2924 -0.3715  0.2116
30003W        W46137   8.419   2.681   2.567  0.1446 -0.0111 -0.0576
30004W        W46138  16.526   0.632   4.216  0.1160  0.1616  0.0655
30005W        W46139   5.516   7.073   2.147  0.3222  0.0493 -0.1325
30006W        W46140   9.783   6.580   1.595 -0.2270  0.1528 -0.1947
30007W        W46141   5.990   4.850  11.407 -0.0865 -0.0817 -0.5864
30008W        W46142  14.910  10.738   3.887 -0.1041 -0.1000  0.1133
30009W        W46143   8.942   4.644  12.322 -0.3246  0.0806 -0.2760
30010W        W46144  15.193  16.939   1.027  0.2133  0.0525  0.0827
30011W        W46145  13.765  14.660   0.734 -0.2659 -0.1512  0.1652
30012W        W46146   6.899  14.417   3.856 -0.0447 -0.0155  0.0132
30013W        W46147  12.839   7.993   3.283 -0.0714 -0.0663 -0.1110
30014W        W46148   0.922  11.557  15.005  0.0218  0.1318  0.2049
30015W        W46149  15.025   3.818  13.985  0.1312 -0.1625  0.1284
30016W        W46150  11.031  16.458  13.015 -0.0604  0.4052 -0.2886
30017W        W46151   2.618  18.271   2.494  0.2116 -0.2995  0.1158
30018W        W46152  16.194   0.822   5.044 -0.0524 -0.0180  0.0295
30019W        W46153   4.649  10.871   4.984  0.1579  0.0973 -0.0278
30020W        W46154   0.622   1.278   2.158  0.2077  0.0713  0.1342
30021W        W46155   4.816   2.865  13.396 -0.3437  0.2578  0.1204
30022W        W46156   2.221   5.382  15.576 -0.0908 -0.0923  0.0805
30023W        W46157  17.762   0.092   2.871 -0.0715  0.0215  0.1236
30024W        W46158  17.313   9.705   4.706  0.2856  0.0580  0.2313
30025W        W46159   3.449  10.424  14.979 -0.0811  0.0550  0.3070
30026W        W46160  13.753  15.769  14.166  0.2174  0.3364  0.0441
30027W        W46161  11.166   7.416   4.914  0.0115  0.2145  0.3861
30028W        W46162   8.479   6.025  11.503 -0.3889 -0.2173 -0.0871
30029W        W46163   7.382  13.378  14.495  0.1251 -0.2625  0.0169
30030W        W46164   4.587  10.177  13.074  0.1823 -0.0391 -0.0275
30031W        W46165  14.000  11.646   5.736  0.0068  0.0489 -0.0605
30032W        W46166   7.090   9.435  12.213  0.1613  0.1121 -0.2599
30033W        W46167   4.740  12.217   3.619  0.1602 -0.6418 -0.1162
30034W        W46168  13.346   5.655   5.556 -0.2430 -0.0153 -0.2167
30035W        W46169   1.495  16.532  10.002  0.1729  0.0465 -0.2310
30036W        W46170  17.885   7.762  14.134 -0.3798  0.3036  0.2797
30037W        W46171   0.668   3.530  11.720 -0.0052  0.0723  0.2084
30038W        W46172  16.227  18.014   5.342  0.2907 -0.1669 -0.0626
30039W        W46173   8.927   6.541  12.082 -0.1649  0.3562 -0.0732
30040W        W46174  10.588   5.256  11.846  0.2912  0.1032 -0.0141
30041W        W46175   8.968   9.038  10.732 -0.1797 -0.0689 -0.1549
30042W        W46176  16.961   6.578   3.434 -0.1763  0.4041  0.0452
30043W        W46177   9.417   0.081  14.773  0.4639 -0.3310 -0.1334
30044W        W46178  18.216   1.079  15.483 -0.0571  0.0710  0.0808
30045W        W46179   7.533   2.808  15.047  0.0220  0.0495  0.2381
30046W        W46180   5.387   1.902   1.504  0.0541  0.2350  0.2178
30047W        W46181   3.780   5.194  12.167  0.1468 -0.2185 -0.1656
30048W        W46182   4.016   1.392  11.957  0.1671 -0.0662 -0.1024
30049W        W46183   7.796  14.820   0.955  0.1293 -0.0750  0.1798
30050W        W46184  13.212   4.595  13.996 -0.0542  0.0938 -0.0843
30051W        W46185   5.975   0.643  12.274 -0.0043  0.0596  0.1357
30052W        W46186   8.525   4.172  11.854  0.0329  0.0357  0.1581
30053W        W46187   7.202  12.183   5.058  0.0350 -0.0299  0.0561
30054W        W46188  11.032  17.980  14.577  0.1948  0.3123 -0.1474
30055W        W46189  18.567  16.281   1.241 -0.2812 -0.0750 -0.1548
30056W        W46190  17.077   8.453   3.344  0.0822 -0.0010 -0.2606
30057W        W46191   6.608   0.121   1.227 -0.0635 -0.0293 -0.1444
30058W        W46192  14.443   3.579   1.590 -0.2225 -0.0692 -0.1341
30059W        W46193   9.358   5.838  12.886 -0.1050  0.1444 -0.1736
30060W        W46194   6.314   1.739  15.357 -0.1566 -0.3272  0.1520
30061W        W46195  11.630   9.840  15.441 -0.0887  0.0674 -0.0903
30062W        W46196   0.818   6.293   4.960 -0.1990  0.1944  0.1453
30063W        W46197  18.262  15.228   1.957  0.4013  0.0234 -0.2200
30064W        W46198   2.994  11.527   3.282  0.0969  0.0883 -0.0355
30065W        W46199   1.618  16.107   3.970 -0.4496  0.1704  0.0206
30066W        W46200  11.033  14.779   4.674  0.1567 -0.0127  0.1004
30067W        W46201  12.152  13.237   2.288 -0.1487 -0.0436 -0.1229
30068W        W46202   4.281   7.615  15.444  0.0559  0.3366 -0.1342
30069W        W46203   7.962  14.151   3.587  0.1056  0.0472  0.2391
30070W        W46204  14.766   4.667   5.479  0.1469  0.0355 -0.0541
30071W        W46205   2.524   5.408   2.008  0.1140 -0.3355 -0.0555
30072W        W46206   8.010  15.871   4.394 -0.1481 -0.1586 -0.2309
30073W        W46207   1.230  18.532   5.759 -0.0582 -0.0779  0.0896
30074W        W46208  14.954  16.876  14.980  0.0503 -0.2139 -0.1063
30075W        W46209   8.079   1.120   1.400  0.2442 -0.2631  0.2441
30076W        W46210   1.337  14.736  10.214  0.1201 -0.0187 -0.1381
30077W        W46211  15.994   8.275   1.387 -0.0015  0.3210 -0.1507
30078W        W46212  17.756   9.479  14.419  0.3591  0.0766 -0.1924
30079W        W46213  17.230  10.301   0.339  0.2593 -0.1570 -0.3562
30080W        W46214   2.930  13.348  10.873  0.0677 -0.1806 -0.1932
30081W        W46215   6.256   9.514   1.167 -0.2118 -0.1664 -0.0372
30082W        W46216  13.066   3.278   1.029 -0.0688  0.1064  0.1846
30083W        W46217  17.858   2.373  15.447  0.2044 -0.1181  0.1025
30084W        W46218  16.757  15.230   4.401 -0.1227 -0.0725 -0.2576
30085W        W46219   4.968   2.621  14.154  0.0277 -0.1157 -0.1601
30086W        W46220  11.278   2.471   3.186  0.0797  0.2524  0.1234
30087W        W46221  14.291  14.434  14.554  0.0263  0.1837  0.1964
30088W        W46222  13.385  17.321  11.712 -0.2793  0.0869 -0.0936
30089W        W46223   2.981  13.170  13.351  0.0942  0.0545  0.0997
30090W        W46224   0.462  13.523  14.180 -0.1670 -0.1210 -0.0348
30091W        W46225   5.566   9.546   0.649  0.3747  0.0120  0.2588
30092W        W46226  11.819  10.913  14.923  0.0961 -0.0293  0.0110
30093W        W46227  12.095  18.147  10.960  0.0388  0.0299 -0.0457
30094W        W46228   4.532  14.800  11.920  0.0766  0.1032 -0.0763
30095W        W46229   0.207   6.884   0.633  0.0267 -0.1359  0.0456
30096W        W46230   1.917   1.011   1.906  0.0648  0.0706  0.0972
30097W        W46231  11.662   7.395   4.990 -0.3231  0.1967  0.0814
30098W        W46232   6.672  16.578   0.446 -0.2048 -0.1222 -0.0795
30099W        W46233   1.281  16.922  13.421 -0.2389 -0.0123 -0.2576
30100W        W46234  13.092   9.164  15.033  0.3048 -0.2318  0.1695
30101W        W46235   2.466  14.626   2.264  0.3181 -0.1164 -0.0417
30102W        W46236   8.250   4.517  14.100  0.1633  0.2397 -0.0742
30103W        W46237   4.717  17.079   4.962  0.0708 -0.6922  0.1157
30104W        W46238  14.080   9.149   3.543  0.0292  0.1751  0.0850
30105W        W46239  16.478   6.240  11.691  0.1225 -0.4187  0.0908
30106W        W46240   5.141   2.266   4.758  0.1247  0.0655  0.2388
30107W        W46241  16.311  14.080   3.834  0.0902 -0.2355  0.2262
30108W        W46242  14.197   2.744   2.224 -0.1450  0.2139 -0.1373
30109W        W46243   5.889  15.182  11.349  0.1000  0.0333 -0.1570
30110W        W46244  10.710   7.635   2.241 -0.3064 -0.0277  0.1897
30111W        W46245   1.881  13.543  12.724  0.3354  0.1223 -0.1380
30112W        W46246   5.662   0.239  11.367 -0.0338 -0.0845 -0.1337
30113W        W46247   3.829   2.578  13.359 -0.2836  0.0648 -0.3076
30114W        W46248  11.376   7.528   3.571 -0.2274  0.2616 -0.3560
30115W        W46249  15.431   1.441   3.559 -0.0004 -0.1375 -0.1345
30116W        W46250  14.523   5.273   2.580  0.3427 -0.2406  0.1263
30117W        W46251   9.623  17.660  11.834 -0.1111 -0.1179  0.0165
30118W        W46252  14.202  11.705  10.976 -0.0890  0.0362  0.2734
30119W        W46253  11.437  16.900   1.481  0.0847 -0.4415  0.2720
30120W        W46254   4.066   9.759   2.493  0.0271 -0.2322  0.0869
30121W        W46255  17.285   4.833  14.610 -0.0323  0.1038  0.0895
30122W        W46256  18.287   9.297  11.522 -0.0302 -0.2939 -0.2580
30123W        W46257   8.946  12.246   5.583  0.1516  0.0479 -0.0010
30124W        W46258  14.867  16.171   0.636  0.1984 -0.0282 -0.0642
30125W        W46259   0.591   9.025  14.710 -0.1173  0.0527 -0.0250
30126W        W46260   9.127   0.856   0.477 -0.1437  0.1619  0.0082
30127W        W46261   9.436   3.277   4.113 -0.1505 -0.2621 -0.1491
30128W        W46262  17.970  10.301   4.901 -0.1010 -0.4023  0.4875
30129W        W46263   7.445  11.637   0.800  0.3075 -0.0629  0.2016
30130W        W46264   8.651   2.289  13.916 -0.0163 -0.2966 -0.0571
30131W        W46265  11.516  18.188  10.051  0.0685  0.1665  0.1140
30132W        W46266   0.848  16.834  10.265 -0.1612  0.1190  0.0214
30133W        W46267   9.285  14.117  10.995  0.0736 -0.1587 -0.2318
30134W        W46268  14.469   5.973   3.302  0.0070 -0.1316 -0.2691
30135W        W46269   2.562   0.593   4.976  0.0341  0.0094  0.1957
30136W        W46270   8.067  17.325   2.281 -0.2574  0.0157 -0.1171
30137W        W46271   0.627  15.462   2.889  0.0370  0.1434  0.0844
30138W        W46272   2.241  13.205  11.131 -0.0347  0.1189 -0.1325
30139W        W46273  18.052   5.782   1.176 -0.0628  0.0793 -0.2155
30140W        W46274  17.530   7.982  13.757  0.1172  0.2637  0.0822
30141W        W46275  15.393  10.270   3.829 -0.0810 -0.0703  0.1085
30142W        W46276  17.858   8.513   0.104  0.1873  0.1810 -0.1908
30143W        W46277  11.054   2.550   4.763  0.2264 -0.2019 -0.0056
30144W        W46278  16.693   3.759   6.089 -0.2090 -0.2158 -0.2500
30145W        W46279  18.693  15.691   1.327  0.0842  0.0462  0.1369
30146W        W46280   7.989  14.937  15.057  0.0921  0.0642 -0.2834
30147W        W46281   7.230   3.795   4.023  0.4348  0.1798 -0.1174
30148W        W46282   5.978   1.076   1.499  0.1514  0.1243  0.0140
30149W        W46283  16.095   3.626   2.401 -0.0113  0.1221 -0.3421
30150W        W46284  15.832   3.245  14.314 -0.1565  0.1513 -0.0619
30151W        W46285   8.422  13.027  15.229  0.0943  0.3918  0.3117
30152W        W46286   0.145  15.080   5.966  0.2122  0.1311 -0.2002
30153W        W46287   5.112   4.165  11.660 -0.0830  0.2147  0.2292
30154W        W46288   3.795  12.605  13.023 -0.2497  0.1356 -0.2816
30155W        W46289  13.993   9.146  14.530 -0.1359  0.4096  0.2398
30156W        W46290   9.305   4.741  11.329 -0.0274  0.4040  0.0127
30157W        W46291   0.533   7.100   0.976  0.0151 -0.0445  0.0901
30158W        W46292  18.446  12.059  10.016 -0.0388  0.1220 -0.1182
30159W        W46293   4.424   9.633  11.415 -0.0380  0.0496  0.0710
30160W        W46294   4.970  13.968  13.378  0.2890 -0.1218 -0.0508
30161W        W46295   9.378   4.276   0.999 -0.1565  0.4530  0.2796
30162W        W46296  14.243  16.580  13.592  0.1398 -0.1390 -0.2385
30163W        W46297  16.727  11.401   3.310  0.1571 -0.0043  0.2095
30164W        W46298   4.028   9.974  11.464 -0.1819 -0.5068  0.0715
30165W        W46299  13.106   3.191   0.485 -0.2109  0.1024  0.0603
30166W        W46300   8.680  13.363  10.808 -0.2363  0.0893 -0.0905
30167W        W46301  12.179   4.137   1.770  0.2433  0.2812 -0.0144
30168W        W46302  15.568   7.919  14.473  0.2982  0.2830  0.0138
30169W        W46303   5.962  12.113   4.642 -0.1735  0.0836 -0.0754
30170W        W46304   8.170  15.607  11.468 -0.1076 -0.3630 -0.0483
30171W        W46305  12.872  11.885  13.812  0.0949 -0.0440 -0.0793
30172W        W46306   9.392   0.274   3.322 -0.1825 -0.2262 -0.0149
30173W        W46307   1.373   7.386   3.706 -0.0137 -0.2004  0.0518
30174W        W46308  17.085   9.498  10.047  0.0674 -0.1326 -0.2735
30175W        W46309   0.858   1.178  11.284  0.0613  0.0161 -0.2996
30176W        W46310  15.040   4.340   4.612  0.2205  0.3675  0.1711
30177W        W46311  16.261   3.415  11.547 -0.0380 -0.1191  0.2292
30178W        W46312   6.971   2.855   1.453 -0.0008 -0.0033  0.2757
30179W        W46313   0.327  18.558   3.505  0.3322  0.0402 -0.0411
30180W        W46314  11.739  10.411  15.007  0.2691 -0.0487 -0.0168
30181W        W46315  15.954   1.393   2.606 -0.0712  0.0324 -0.3005
30182W        W46316   2.373  14.635  15.162 -0.0785  0.0978 -0.1619
30183W        W46317  12.513  14.631  11.076 -0.3292  0.2786 -0.2159
30184W        W46318   9.873   6.845   0.628  0.0575 -0.0946 -0.0539
30185W        W46319   7.380  18.697  14.669  0.1349  0.0805  0.0283
30186W        W46320   7.206  13.894   3.241  0.0130  0.1277  0.0087
30187W        W46321   9.486   5.860   0.624 -0.1971 -0.0093  0.2206
30188W        W46322   2.352  12.833  12.165 -0.1837  0.2363  0.0930
30189W        W46323  10.407   4.976   5.919 -0.2271  0.1738 -0.0120
30190W        W46324   6.989   8.571  13.109 -0.2102  0.3116  0.1864
30191W        W46325  17.504   6.772  14.327  0.0809  0.0140 -0.2012
30192W        W46326   0.459   0.392   4.216 -0.0914  0.0162 -0.1429
30193W        W46327  10.183   3.835  10.637  0.0177  0.0782  0.4298
30194W        W46328   8.049   7.051  14.253 -0.2696  0.3883 -0.0766
30195W        W46329  17.972  17.747  15.267 -0.0151  0.0534 -0.0725
30196W        W46330   2.704   7.266  10.550 -0.2033 -0.3633  0.0886
30197W        W46331  15.802   2.797   1.136  0.0986 -0.2101  0.0141
30198W        W46332   2.260  17.491  12.822  0.4741 -0.3063 -0.1245
30199W        W46333   1.996   8.454  12.049  0.0919 -0.0769  0.2819
30200W        W46334   2.643   6.813  14.667  0.0971  0.2147  0.1773
30201W        W46335  16.738   5.127  13.446 -0.0108 -0.1562  0.0476
30202W        W46336   3.214  11.928   2.630 -0.1140  0.0182  0.1562
30203W        W46337   1.384  15.427  10.652  0.0727  0.4029  0.2221
30204W        W46338   1.776   3.968  12.565  0.0611  0.0426  0.1339
30205W        W46339   7.187   5.898   2.050 -0.2671  0.0786  0.0927
30206W        W46340   0.867  13.001   4.564 -0.1352 -0.1616 -0.0146
30207W        W46341   0.452  14.324  11.646 -0.4003 -0.1468 -0.2976
30208W        W46342   3.693   7.157  11.433 -0.0572 -0.1950 -0.2217
30209W        W46343   2.844   6.718   3.061 -0.2766  0.1184 -0.0720
30210W        W46344  17.256   5.435  14.100  0.0520 -0.1063  0.1538
30211W        W46345   6.285   0.592  13.946 -0.4019 -0.0787 -0.1015
30212W        W46346   2.156  13.413  14.266  0.2544  0.1391 -0.2399
30213W        W46347  11.767  11.912   2.394  0.1348  0.3550  0.2054
30214W        W46348   7.683   7.611  12.684 -0.0099  0.0580  0.1663
30215W        W46349  12.442   7.793   2.286 -0.1480  0.0057  0.1642
30216W        W46350   2.306  17.829   4.209 -0.0413 -0.2614  0.1858
30217W        W46351   8.144  12.955  14.656  0.1479 -0.1108  0.3233
30218W        W46352  11.682   4.278   0.454  0.1870  0.1711 -0.4045
30219W        W46353  12.387  14.034  15.202  0.0302  0.2839  0.0207
30220W        W46354  18.650   5.878  15.484  0.0631 -0.0113  0.1760
30221W        W46355  16.045  15.982  13.708  0.3743  0.0915  0.3071
30222W        W46356  17.670  13.272  12.637  0.1894  0.2741 -0.0656
30223W        W46357  12.585  14.796  14.971 -0.0662 -0.0710  0.3158
30224W        W46358   5.438   3.888   0.299 -0.1869 -0.2096  0.1737
30225W        W46359  18.222   8.574   3.253  0.0628 -0.0118 -0.0721
30226W        W46360  13.749   5.583  14.083  0.1639  0.1260 -0.4221
30227W        W46361   9.154   8.068   1.626  0.1069 -0.1322  0.0758
30228W        W46362   0.399   3.841   1.586 -0.0464 -0.0144 -0.1295
30229W        W46363  17.510  10.956  11.038  0.2389 -0.2851  0.2275
30230W        W46364  13.994   2.177   1.330 -0.2111  0.0144  0.0337
30231W        W46365  12.773  17.215   2.425  0.4020 -0.2283  0.0890
30232W        W46366  13.103  15.582  11.928  0.0665  0.3180  0.0385
30233W        W46367   8.892  13.681  12.330  0.0368  0.2135 -0.4809
30234W        W46368  11.151  13.469  15.502 -0.1025 -0.2090  0.3247
30235W        W46369   5.517  15.298  12.657 -0.1485 -0.0762  0.0600
30236W        W46370   6.076   1.162  12.246  0.1693  0.1008 -0.0596
30237W        W46371   9.571   7.920  11.198  0.3154  0.1756  0.0917
30238W        W46372  18.340  15.432  12.946  0.0357 -0.0558  0.2945
30239W        W46373  16.967   1.888  11.429 -0.3364 -0.0840 -0.0310
30240W        W46374  11.377  11.027  11.610 -0.1887 -0.0481  0.0582
30241W        W46375   3.248  13.704  12.553 -0.1635  0.0354  0.0333
30242W        W46376   2.009   6.284  12.619  0.0192  0.0269  0.3771
30243W        W46377  13.455   3.065  13.779 -0.1468 -0.0584 -0.0153
30244W        W46378   0.099  12.829  14.405 -0.1034  0.2565  0.1110
30245W        W46379  14.935   3.294  10.811  0.4312  0.2382  0.2108
30246W        W46380  11.109   2.193  15.514  0.0742  0.0085  0.0694
30247W        W46381   7.858  14.504  12.512  0.2085 -0.2951  0.0357
30248W        W46382   5.802   3.037   3.239 -0.1599  0.2782  0.1738
30249W        W46383   1.281   9.013   3.314 -0.1974 -0.0925 -0.1300
30250W        W46384  10.598   4.394   3.913  0.1557 -0.0651  0.2409
30251W        W46385   1.831  16.484  11.182  0.1556  0.1522  0.0210
30252W        W46386  11.221  15.758   2.296 -0.2568  0.0642  0.0186
30253W        W46387  17.553   6.729  15.436  0.1292 -0.1419 -0.3133
30254W        W46388   8.778   3.277  15.119  0.0830  0.1816 -0.4018
30255W        W46389   2.534  16.860   2.402 -0.4668 -0.1993 -0.1335
30256W        W46390  12.473   5.099   4.253  0.0017 -0.0843  0.1134
30257W        W46391   2.129  10.573  13.764 -0.0823  0.1015 -0.0191
30258W        W46392  16.053  16.477  13.563  0.1898  0.2963 -0.0614
30259W        W46393   0.876   7.552   4.631  0.0555  0.1558  0.1754
30260W        W46394   8.405   3.009  14.193 -0.2542 -0.1940 -0.0239
30261W        W46395   6.161  11.881  10.631  0.2220  0.1844  0.0801
30262W        W46396   2.325   3.128  13.597 -0.0360 -0.1253 -0.0685
30263W        W46397  17.909  17.936   0.129  0.0534 -0.2688 -0.1990
30264W        W46398  16.033   8.150   0.555  0.1330  0.2245 -0.1029
30265W        W46399  16.669   3.155   3.297  0.1320  0.0734  0.1529
30266W        W46400   7.561  13.059  12.054 -0.1371 -0.0717 -0.0661
30267W        W46401   6.442   7.307   1.699  0.0889 -0.0097  0.3742
30268W        W46402   8.281   3.515   5.592  0.0616 -0.0177 -0.0957
30269W        W46403   2.469   8.326  13.320 -0.1669  0.0420  0.1497
30270W        W46404  15.813   5.012   0.080  0.1578  0.0964 -0.1366
30271W        W46405   6.016   3.983   3.383  0.0943  0.3684  0.2096
30272W        W46406  11.102  17.884  10.165  0.1194  0.1403  0.2761
30273W        W46407   2.206   6.239   1.675  0.5333 -0.0950 -0.0587
30274W        W46408   8.335  16.005   4.760  0.1986  0.2160 -0.1560
30275W        W46409  12.590  18.366   2.830 -0.4390 -0.1101 -0.0869
30276W        W46410   0.415   3.068  12.038  0.3348  0.2689 -0.5456
30277W        W46411   1.445   1.049   3.184  0.0295  0.0898 -0.2620
30278W        W46412   7.068  14.699  10.925 -0.4378  0.0721 -0.2314
30279W        W46413  16.699   2.646  14.709  0.1850  0.1631  0.1337
30280W        W46414   9.960   9.634   4.553 -0.0103  0.0012  0.2564
30281W        W46415   0.920  10.793   5.699  0.1618  0.0213 -0.3644
30282W        W46416  16.859  14.917  14.617  0.0343  0.0888 -0.2093
30283W        W46417  17.450   8.971  11.013  0.2920  0.1034 -0.0436
30284W        W46418  10.931  14.965  10.584 -0.2002 -0.3108 -0.1337
30285W        W46419  17.543  12.901   3.899 -0.2783  0.1521  0.3975
30286W        W46420  18.031   6.624  13.054 -0.3271  0.1340  0.2756
30287W        W46421  17.644  15.359   1.010 -0.0862 -0.1908 -0.1583
30288W        W46422  12.571  12.239   2.315 -0.0741 -0.0865 -0.2923
30289W        W46423  18.320  15.394  11.831 -0.2360 -0.4326  0.3065
30290W        W46424   4.371   1.657   4.935  0.2079 -0.2121  0.3584
30291W        W46425   3.862  17.350   1.931 -0.2057 -0.1782  0.0667
30292W        W46426   9.763  18.175   1.750  0.1088 -0.2383  0.0858
30293W        W46427   0.366   6.317   4.783  0.0504 -0.0535 -0.1316
30294W        W46428   6.020  15.788   2.715 -0.1365 -0.4975  0.4226
30295W        W46429  10.107   2.601  10.797  0.2721  0.1155 -0.0305
30296W        W46430  10.407   9.530   0.508  0.2209 -0.1548  0.2498
30297W        W46431   0.567   4.619  10.731  0.0790  0.0935 -0.0626
30298W        W46432   8.589   1.535  11.700  0.5328 -0.2934  0.1668
30299W        W46433   6.334  11.538   2.724  0.1793 -0.0068 -0.2604
30300W        W46434  11.255  14.048  10.768  0.0021  0.1369  0.2219
30301W        W46435  10.934  13.593   3.892 -0.0057 -0.1184 -0.0847
30302W        W46436   6.922   7.385  15.265 -0.0102  0.0749  0.0895
30303W        W46437  13.844   1.785   4.860 -0.1370  0.1918  0.0774
30304W        W46438  10.664   6.760  12.137  0.0246 -0.1035 -0.2730
30305W        W46439   2.913   8.666   0.365  0.3468  0.0995  0.2274
30306W        W46440   6.519   5.513  15.300 -0.0049 -0.0568  0.0387
30307W        W46441  10.572   6.897  15.427  0.0626  0.0270  0.0004
30308W        W46442  12.903   8.731   4.892 -0.0894 -0.0087 -0.1790
30309W        W46443   7.181  14.749  13.601  0.0447  0.0795 -0.1064
30310W        W46444   3.684   8.790  12.419  0.2227 -0.0468 -0.0232
30311W        W46445  14.897   1.981   2.566 -0.0702  0.1907  0.0401
30312W        W46446   1.757  17.213   1.427  0.0791  0.0308  0.0098
30313W        W46447   4.742   1.728  11.757  0.1346  0.2313  0.1771
30314W        W46448  14.965  12.550  12.784 -0.1022 -0.1263  0.1606
30315W        W46449   8.283  17.139   3.109  0.0667  0.0160  0.1444
30316W        W46450   6.022   8.756  14.599 -0.1177  0.0470  0.3011
30317W        W46451   4.647  15.418  11.633  0.1284  0.1782  0.3857
30318W        W46452  13.503  10.826   3.004 -0.2404 -0.1016  0.3576
30319W        W46453  16.877  16.550   4.935  0.2961 -0.2180 -0.0966
30320W        W46454   7.536   1.927  14.441 -0.0133  0.2523 -0.3400
30321W        W46455  13.280  17.270   2.605  0.3966  0.0671  0.0168
30322W        W46456   1.112   3.848   0.915 -0.0147 -0.2031  0.2839
30323W        W46457   3.194   0.035   4.875  0.0945  0.0775 -0.2223
30324W        W46458  11.550   9.819   1.370  0.2621  0.0817  0.0413
30325W        W46459   8.855   4.161  15.429 -0.0585 -0.0148  0.2805
30326W        W46460  12.869  18.457   1.050  0.1092  0.1159 -0.1827
30327W        W46461  16.809   4.076  12.524  0.1441  0.1991  0.0479
30328W        W46462  18.065   4.986   4.350  0.1085 -0.2472 -0.0443
30329W        W46463  17.920  14.547  14.035  0.1855  0.4353  0.1911
30330W        W46464  10.202   8.234   4.919  0.0872  0.0915 -0.0280
30331W        W46465   1.520   2.737   5.750  0.1397  0.1451 -0.1450
30332W        W46466   1.361   7.777   0.238  0.1105 -0.1229  0.0143
30333W        W46467  16.862   1.458   2.384 -0.0699 -0.0670 -0.0307
30334W        W46468  16.931  16.568   2.444 -0.3076  0.0549  0.1934
30335W        W46469   8.218  17.274   1.040 -0.0463 -0.0033  0.2408
30336W        W46470  12.011   8.019   2.416  0.3307 -0.0203 -0.1575
30337W        W46471  16.782   8.587  14.404  0.0023 -0.1518  0.2769
30338W        W46472   5.236   4.977  11.190  0.0687 -0.4156  0.0617
30339W        W46473  16.780   2.828   1.464  0.0263  0.3946 -0.0037
30340W        W46474  17.336   6.275  14.049 -0.2360 -0.1121  0.3313
30341W        W46475  15.294   2.015  10.627 -0.0530  0.2201 -0.2168
30342W        W46476  17.720   0.598  12.460 -0.1609  0.0384 -0.0055
30343W        W46477  12.603   8.295   0.529  0.0605  0.0385  0.3226
30344W        W46478  17.774  16.311  13.899  0.1900  0.1197 -0.0111
30345W        W46479   0.345  16.121   3.544  0.0032 -0.3353 -0.0142
30346W        W46480  13.201  13.522  11.558 -0.1981  0.0874  0.0025
30347W        W46481  14.860  11.383  11.418 -0.2850 -0.0534  0.1340
30348W        W46482   6.225   2.081  11.235  0.2511 -0.0005  0.0786
30349W        W46483   5.804   0.107   1.782 -0.1504 -0.1084  0.2216
30350W        W46484  13.003   1.735  12.764 -0.1537  0.0610  0.1991
30351W        W46485  13.902   9.184  15.472  0.1882  0.3437 -0.1771
30352W        W46486  10.301  11.241  13.203 -0.1946  0.0939 -0.3500
30353W        W46487  13.285   6.490  12.668 -0.0759 -0.0442 -0.1985
30354W        W46488  10.093  11.744   1.338  0.3662  0.3338  0.1994
30355W        W46489   7.546   0.716  12.441 -0.0589 -0.0961  0.1524
30356W        W46490  15.141  13.013  12.809  0.3332  0.0181  0.3194
30357W        W46491  17.354  12.049   0.262  0.1079 -0.1139  0.0397
30358W        W46492   9.796  12.248   0.244  0.3226 -0.0748 -0.2091
30359W        W46493  16.507   8.771  13.495  0.4502  0.1094 -0.2329
30360W        W46494   8.883  11.374  12.920  0.0781  0.1966 -0.0098
30361W        W46495  14.149   6.348   9.554  0.0160  0.1857 -0.1202
30362W        W46496  14.019  17.765   3.287 -0.0661  0.0983 -0.0013
30363W        W46497   9.103   6.389   3.843  0.0969  0.0784 -0.2708
30364W        W46498   8.117  11.172   4.147  0.1492 -0.1387  0.0814
30365W        W46499   3.078  11.314  12.705  0.2571  0.2217 -0.0231
30366W        W46500   6.569   9.515  14.251 -0.1261 -0.0357 -0.0457
30367W        W46501  12.642  10.178   3.516  0.0099  0.1203  0.1140
30368W        W46502  18.295  10.812   4.863 -0.0577  0.0213  0.1769
30369W        W46503   9.035  16.933   3.487  0.0558 -0.2078  0.0260
30370W        W46504   9.516  10.396   1.308  0.2734 -0.1883  0.0231
30371W        W46505   8.242  17.615  12.913  0.2868  0.0539  0.0904
30372W        W46506  14.973   7.241   2.353  0.4289  0.0562  0.0350
30373W        W46507   9.530   6.347   0.597 -0.2182  0.1048 -0.3537
30374W        W46508  16.051  17.398   3.219 -0.0433  0.0808 -0.0503
30375W        W46509   1.678  16.676   4.732 -0.2507 -0.2381 -0.1683
30376W        W46510  18.587   9.392   3.630 -0.2745  0.0048 -0.1868
30377W        W46511   4.806   0.468  14.172  0.0251 -0.1036 -0.3063
30378W        W46512   8.380   6.470   0.292 -0.1659  0.0824 -0.3371
30379W        W46513   7.801  13.062  14.248 -0.0563 -0.2123 -0.0687
30380W        W46514  10.157   8.857  12.763  0.3462 -0.0436 -0.2328
30381W        W46515   5.477  16.853  10.858 -0.1871  0.2423 -0.0308
30382W        W46516  13.499  12.215   2.717 -0.0071  0.3011 -0.4280
30383W        W46517   2.608  16.641  13.035 -0.0593  0.1456  0.1060
30384W        W46518   0.855  14.830  10.252 -0.2326  0.2061  0.1687
30385W        W46519   4.474  16.256  15.086 -0.2946 -0.0420  0.2440
30386W        W46520   3.480  11.655  12.774 -0.0635  0.1531  0.1593
30387W        W46521  13.536   2.013  14.341 -0.0431 -0.3184  0.1941
30388W        W46522  10.906  12.401  15.319  0.0766  0.0333 -0.0987
30389W        W46523  17.847  13.257  14.497  0.0270  0.0276 -0.1661
30390W        W46524  14.764   8.942  14.484 -0.1270  0.0426  0.1481
30391W        W46525  14.424   6.425  14.857  0.1542  0.0985  0.0941
30392W        W46526  15.992  15.288  14.283 -0.1631  0.2187 -0.0555
30393W        W46527   2.072   1.732   3.453 -0.0548 -0.0505  0.1773
30394W        W46528   2.836  12.266   0.667 -0.1208  0.1282  0.0277
30395W        W46529   9.411   6.665   5.127 -0.4954 -0.2141  0.0390
30396W        W46530  16.262  10.415   0.493 -0.2776  0.0209  0.1917
30397W        W46531  15.218  10.942  12.827  0.0806 -0.0143 -0.0115
30398W        W46532  18.361   5.381  15.536  0.0113  0.1552  0.1493
30399W        W46533   1.879   2.249  12.824  0.1416 -0.0900  0.0703
30400W        W46534   4.257  17.692   4.595  0.0624  0.1800 -0.0211
30401W        W46535   1.337   9.456  14.812  0.1915  0.0227  0.1949
30402W        W46536   3.522   6.547  12.156  0.1444  0.0012 -0.1121
30403W        W46537   6.320  15.931   0.230  0.1038  0.0199 -0.2273
30404W        W46538  16.479   8.246  14.138  0.1980 -0.0184  0.1413
30405W        W46539  18.459  17.320   3.944  0.2168  0.1802  0.0769
30406W        W46540   7.850  16.905  10.925  0.1655  0.1022 -0.1902
30407W        W46541   2.372  12.473   0.743  0.3053 -0.0092  0.1535
30408W        W46542   7.705   9.002  14.892  0.0078  0.1816 -0.0858
30409W        W46543   2.701  11.166   5.142 -0.2982 -0.2174  0.0526
30410W        W46544  15.543   2.572   1.493  0.0906 -0.4111  0.3231
30411W        W46545  17.050   1.936  15.387  0.2925  0.0385 -0.2089
30412W        W46546   7.475   9.197   0.846 -0.1247  0.0744  0.1855
30413W        W46547   9.313   0.167  15.279  0.0457  0.4448 -0.2291
30414W        W46548  10.429  10.357   4.101  0.2345  0.1382 -0.1161
30415W        W46549  12.465   2.964  12.589 -0.1949 -0.0801  0.1615
30416W        W46550   9.667  11.159  11.209  0.2073 -0.0127 -0.1528
30417W        W46551  17.573  17.837   2.829 -0.2079 -0.0528  0.1866
30418W        W46552  13.928   0.536  12.826  0.1189 -0.2100 -0.0349
30419W        W46553   4.347  14.041  11.362  0.0020  0.1854  0.3571
30420W        W46554   2.768  14.419  13.335  0.0759 -0.0748 -0.0444
30421W        W46555   3.231   4.926   5.461  0.0816  0.0965  0.1556
30422W        W46556   7.462   4.268  14.525  0.2837 -0.1003 -0.0605
30423W        W46557  12.981   0.586  12.880  0.0236  0.0424  0.1486
30424W        W46558   4.240   9.368   3.744  0.0546  0.4069  0.1545
30425W        W46559  12.855   5.878  14.476  0.0152  0.0328 -0.0541
30426W        W46560   1.517  10.781  15.066 -0.1146 -0.0116 -0.1297
30427W        W46561  18.425  13.584  12.617 -0.0282 -0.3217 -0.1444
30428W        W46562   7.152  14.326   0.738 -0.2652 -0.0652  0.0898
30429W        W46563  10.820   9.483  11.898 -0.3433  0.0473 -0.3822
30430W        W46564  10.672   7.399   4.169 -0.0516  0.0733  0.0600
30431W        W46565   9.583  10.905   4.142  0.1240  0.1617  0.1512
30432W        W46566  18.362  14.068  11.563  0.1477 -0.0352 -0.0950
30433W        W46567   3.056   0.422  11.162 -0.0911  0.2227 -0.3563
30434W        W46568  14.482  18.693  14.226 -0.1463 -0.1061 -0.1976
30435W        W46569   9.456  14.926  13.461  0.1307  0.0398  0.0648
30436W        W46570  15.740   1.855   1.953 -0.6774  0.1300 -0.1427
30437W        W46571  15.502   2.299   1.906  0.3419  0.2199 -0.1570
30438W        W46572   9.788   0.915  11.516 -0.4186 -0.2235 -0.4534
30439W        W46573  17.511   3.978   2.377  0.1250  0.1226 -0.0232
30440W        W46574   6.833  12.456   1.162  0.2138 -0.1878  0.1644
30441W        W46575  16.217  11.753  11.498 -0.0938 -0.1179 -0.1026
30442W        W46576   8.747  10.499  11.349  0.0452  0.0269 -0.1155
30443W        W46577  16.806   0.263   3.086  0.0761 -0.2639 -0.0399
30444W        W46578   0.324  13.472  11.540 -0.1119  0.0596 -0.0796
30445W        W46579  13.806  10.102   1.832  0.0535  0.1536  0.2851
30446W        W46580   2.404  10.346   2.821 -0.2137 -0.0235  0.0541
30447W        W46581   4.094   4.802  15.102 -0.0927  0.0070  0.1928
30448W        W46582   7.940  10.211   0.888  0.3399  0.0370  0.1609
30449W        W46583  18.081   4.946  13.312 -0.0346  0.0848 -0.1002
30450W        W46584   2.703  15.439  11.113  0.1240 -0.2035 -0.0127
30451W        W46585  16.996   4.593   2.787  0.1920  0.1906  0.2231
30452W        W46586  13.381   6.102  13.227 -0.3613  0.1163  0.1389
30453W        W46587  13.586  14.533  15.394  0.0431  0.1325 -0.0015
30454W        W46588   9.083   9.187  11.240 -0.1054  0.0320  0.1965
30455W        W46589   1.059  10.266   0.151  0.2109  0.1311  0.0850
30456W        W46590   7.590  13.600   4.930  0.0874  0.2480 -0.0097
30457W        W46591   6.639   2.853   0.443 -0.2809 -0.0877 -0.2034
30458W        W46592  17.228   9.523  13.150 -0.2296 -0.1064 -0.1235
30459W        W46593   4.651   1.556   2.131  0.2767 -0.1919  0.1787
30460W        W46594   8.743   5.897  14.758 -0.1987 -0.1909 -0.0305
30461W        W46595  12.512   0.510   5.350 -0.1177  0.1294  0.1700
30462W        W46596   6.510   0.548  12.250  0.0535 -0.0787  0.1688
30463W        W46597  11.627  16.140  11.079  0.0679 -0.1227  0.4923
30464W        W46598   4.867   7.872   5.038  0.0922 -0.0928  0.0574
30465W        W46599  13.489  17.941   4.577  0.0850 -0.1667 -0.3302
30466W        W46600  12.167  12.052  13.347 -0.1760 -0.0338 -0.0344
30467W        W46601  10.936  11.554   2.900 -0.4633 -0.2275  0.2279
30468W        W46602  13.750   3.594  14.667  0.0559 -0.0643 -0.2074
30469W        W46603   7.832   8.905  13.083  0.0909  0.2466 -0.0734
30470W        W46604  11.514   7.133   1.906  0.5196 -0.4345 -0.1196
30471W        W46605   4.610  14.934  13.628 -0.0968  0.1155  0.2802
30472W        W46606   9.682  15.774  13.784  0.0131 -0.0035  0.0646
30473W        W46607   3.716  15.648  12.942  0.2393  0.2601 -0.0960
30474W        W46608   8.394  13.121  13.870 -0.0114 -0.0942 -0.0749
30475W        W46609  11.164   4.278  12.912 -0.0277 -0.1917  0.1959
30476W        W46610  16.996  11.202   1.332 -0.1706  0.2485 -0.0898
30477W        W46611   1.236   7.876   3.496 -0.0258  0.1644 -0.0542
30478W        W46612   3.423  17.634  11.243 -0.3524  0.1512 -0.3807
30479W        W46613   1.260  16.622   2.603 -0.0853  0.1268 -0.2946
30480W        W46614  16.977   4.907   5.351 -0.2616  0.1269  0.2350
30481W        W46615  10.468   8.870   1.307  0.0067 -0.1615 -0.0611
30482W        W46616  18.318   4.032   0.173 -0.0943  0.0755  0.2961
30483W        W46617  13.693   7.094   0.493  0.1446  0.0945 -0.0111
30484W        W46618  11.154  18.165   0.823 -0.6485 -0.1076 -0.0025
30485W        W46619   4.270   1.350   2.802 -0.1480 -0.0819  0.2293
30486W        W46620   2.855   4.136   4.631 -0.3267  0.3596  0.0056
30487W        W46621  16.967  11.294  14.440  0.0270  0.0883 -0.2197
30488W        W46622   9.488  18.149   0.235 -0.5246  0.1304 -0.1309
30489W        W46623  13.248  15.476   4.000  0.1957  0.1082 -0.1054
30490W        W46624   2.538   4.189  11.442 -0.1309 -0.1814 -0.2918
30491W        W46625  12.032  14.030  12.837  0.4715  0.1334  0.5295
30492W        W46626  17.146   9.689   2.187 -0.0012 -0.5334 -0.0928
30493W        W46627  17.346   7.841  14.370  0.0205  0.2710  0.1577
30494W        W46628   5.470  14.938  15.219  0.0531  0.0671  0.1767
30495W        W46629  10.812  11.667   4.080 -0.1386 -0.0480  0.0452
30496W        W46630  11.209  13.603   2.066 -0.0297  0.4345 -0.0413
30497W        W46631   3.197  11.135  12.081  0.2074  0.1117  0.0369
30498W        W46632   5.535   7.896  14.258 -0.3238  0.0258 -0.2704
30499W        W46633  14.890  12.245  14.090  0.1799 -0.0489 -0.3063
30500W        W46634   3.393  17.738  14.994  0.1527  0.3417 -0.0485
30501W        W46635   9.592   8.381  12.390 -0.5070 -0.0671  0.2021
30502W        W46636  14.658   9.018  13.377  0.0502 -0.0045  0.0735
30503W        W46637   0.692   8.072  13.055 -0.0748  0.0143 -0.1558
30504W        W46638   3.643   6.386   1.504 -0.0340 -0.0916  0.0641
30505W        W46639  14.634  17.666  14.587 -0.0582  0.3395 -0.0650
30506W        W46640  16.714  17.811  11.829  0.1891 -0.0621 -0.2398
30507W        W46641  16.327  17.064   5.400  0.2816 -0.3398 -0.2389
30508W        W46642   5.157  17.159   4.568 -0.0617  0.3711  0.1382
30509W        W46643  12.960   4.832   1.197  0.1247 -0.1094  0.2075
30510W        W46644   6.357  13.542  12.678 -0.0726  0.3439 -0.0728
30511W        W46645   2.579  11.968  13.622 -0.0550 -0.3479 -0.0997
30512W        W46646  16.945   7.701   1.676 -0.1921  0.3192  0.0564
30513W        W46647   8.400  10.109   0.637  0.2338 -0.0240 -0.3108
30514W        W46648  13.920  10.599   4.731 -0.2896  0.0779 -0.0343
30515W        W46649   1.784   6.891  14.827 -0.1019  0.1168  0.1927
30516W        W46650   2.415  18.159   2.006 -0.0290  0.1493  0.0179
30517W        W46651  15.988   6.386  14.333 -0.0307  0.1385  0.1146
30518W        W46652   7.060  17.013   3.296  0.0271  0.1390 -0.3042
30519W        W46653   5.711  10.764   3.320 -0.3146 -0.0128 -0.0511
30520W        W46654   4.520  12.434  11.185 -0.1595  0.0517 -0.0462
30521W        W46655  10.138   8.589   3.984 -0.1089 -0.1599  0.1228
30522W        W46656  12.482   7.150  10.485 -0.0565 -0.0610  0.1131
30523W        W46657  17.380   1.129   5.737 -0.0385 -0.1928 -0.0378
30524W        W46658  15.516  14.478  11.319 -0.0936  0.1823 -0.2170
30525W        W46659   7.069   7.968   0.346 -0.1365 -0.0124 -0.3204
30526W        W46660  12.422  17.074  13.328 -0.0066 -0.1973 -0.1220
30527W        W46661  13.498   5.171  13.961  0.1244  0.0672 -0.1304
30528W        W46662  16.574  16.020  11.101 -0.0318  0.0472  0.0368
30529W        W46663   1.864   1.639  12.523  0.1432  0.1090  0.3037
30530W        W46664  10.618  13.426  13.803 -0.0085 -0.0908 -0.0799
30531W        W46665  15.765   3.296  11.747 -0.0108 -0.0459  0.1101
30532W        W46666  14.892   9.040   3.059  0.1483 -0.0824  0.3386
30533W        W46667  14.063  14.498   1.592 -0.1306  0.1319  0.0521
30534W        W46668   4.395   5.657  12.972 -0.1494  0.0569 -0.0090
30535W        W46669   1.697   2.149  15.550  0.1910 -0.0984  0.2028
30536W        W46670  17.932   2.847   4.777  0.1704  0.2322  0.1634
30537W        W46671   2.510   8.337  14.700 -0.2188  0.1534  0.0972
30538W        W46672  17.806   4.503  13.448 -0.0936 -0.0403 -0.1157
30539W        W46673   9.399   6.221  12.319  0.1160  0.2625  0.0988
30540W        W46674   8.233  18.253  12.137  0.2030  0.2351  0.2535
30541W        W46675   2.423   4.677  12.523  0.0543 -0.1227 -0.2612
30542W        W46676   3.412  18.157  13.044 -0.2149 -0.0558 -0.1207
30543W        W46677  16.024  11.379   0.361 -0.1134 -0.1352 -0.2432
30544W        W46678   5.630   9.116   5.678  0.0223 -0.1874 -0.0007
30545W        W46679  15.314  18.340   1.501  0.2135 -0.2561 -0.0860
30546W        W46680  15.714   7.623  11.324 -0.1143  0.3030  0.0730
30547W        W46681   5.264   7.021  14.322  0.2824  0.2207 -0.1756
30548W        W46682   4.384   6.609   2.085 -0.1202 -0.1069 -0.0354
30549W        W46683   7.529   6.993   4.706 -0.0207  0.3260  0.1344
30550W        W46684  15.870   2.170  11.550 -0.1524  0.0685  0.0087
30551W        W46685  13.599   3.530   4.035 -0.3419  0.0010 -0.2460
30552W        W46686   7.443   9.097  13.893 -0.0197 -0.0026 -0.0368
30553W        W46687  18.664   7.619  10.607 -0.1808 -0.0723  0.0488
30554W        W46688  15.252   8.225  12.171  0.0020  0.1335  0.3242
30555W        W46689  13.372   2.078   3.265 -0.2555 -0.2540  0.1773
30556W        W46690  16.313   1.035   1.833 -0.0666 -0.2328 -0.0198
30557W        W46691   6.529   0.352  14.308  0.1553  0.0745 -0.0999
30558W        W46692  13.538  11.882  13.227 -0.0756  0.3928  0.3871
30559W        W46693  13.939  10.103  11.528 -0.1924  0.3678  0.1035
30560W        W46694   1.989  13.887   4.808  0.1584  0.1363  0.1080
30561W        W46695  13.584   2.955   3.391  0.0717  0.0889  0.1975
30562W        W46696  16.165  12.251   2.805 -0.0484 -0.0446 -0.1328
30563W        W46697  13.276  10.614   4.293 -0.3230  0.3078  0.3410
30564W        W46698  16.410  16.317  10.732  0.1084  0.1902  0.0871
30565W        W46699   8.129   7.262   5.218 -0.4315 -0.3253  0.1774
30566W        W46700   5.371  13.193  12.121 -0.1195 -0.1917 -0.1227
30567W        W46701  12.627   0.923  11.101 -0.1362  0.0799 -0.0617
30568W        W46702   2.789   3.182  14.749  0.1045  0.0582  0.1625
30569W        W46703  11.491  14.057   3.105  0.2292  0.1935  0.0530
30570W        W46704  15.750  11.300   3.672 -0.1306  0.1003 -0.2993
30571W        W46705  14.330  15.732   0.791 -0.1203 -0.3277 -0.1852
30572W        W46706  13.813   4.716  13.322  0.0051  0.0485  0.2550
30573W        W46707   1.601  15.169   4.487  0.1214  0.0967  0.1868
30574W        W46708  11.653  15.910  15.142 -0.1944  0.0961 -0.3349
30575W        W46709   4.762   4.735  11.102 -0.0047 -0.1813 -0.0056
30576W        W46710  16.456  17.165   2.581  0.1648  0.1464  0.0859
30577W        W46711   3.139   1.948   2.822  0.1500 -0.0846  0.2051
30578W        W46712  16.420  15.966   4.637 -0.0086  0.4812  0.1093
30579W        W46713   3.379   6.779   2.984  0.1178 -0.1445 -0.0358
30580W        W46714  10.642  13.096   0.934 -0.4329 -0.1189  0.3543
30581W        W46715   2.862   5.336  11.206  0.1353  0.1144  0.0112
30582W        W46716   9.796   7.120  12.494 -0.0111  0.2381 -0.0009
30583W        W46717   7.158   9.614   1.029 -0.0749 -0.0343  0.0888
30584W        W46718   2.936  14.019   1.460 -0.3070  0.0958 -0.0528
30585W        W46719   9.211  17.251   0.523 -0.1761 -0.0765 -0.0653
30586W        W46720  12.461   4.675   1.282  0.0390  0.3998 -0.1429
30587W        W46721  17.466  10.251   5.154  0.0896  0.1792 -0.2080
30588W        W46722  15.650   4.796  12.739  0.3403 -0.1792 -0.1169
30589W        W46723  15.382  12.191  14.433 -0.0014 -0.3332  0.0860
30590W        W46724  16.178  16.830   1.156  0.0487  0.0782 -0.0943
30591W        W46725  13.310   9.645   2.377 -0.2358 -0.0992  0.1999
30592W        W46726  11.115   7.257   3.280 -0.4585  0.0715  0.1148
30593W        W46727   3.892  10.280   6.109 -0.1867 -0.0467  0.0129
30594W        W46728   8.762   8.142  13.032  0.1048 -0.3082  0.2440
30595W        W46729   2.805   5.672   2.288  0.1177  0.2023  0.0002
30596W        W46730   1.722   2.185   0.885 -0.0919  0.0340  0.0160
30597W        W46731   8.693   8.158  12.544  0.2203  0.0813  0.2416
30598W        W46732  14.302  17.730   1.733 -0.0505  0.2223  0.0381
30599W        W46733  10.788   4.832   6.176 -0.2258 -0.0045  0.1069
30600W        W46734  18.128   0.050   5.183  0.1356 -0.2534 -0.2457
30601W        W46735   0.076  17.760   3.860  0.0525 -0.0057  0.0373
30602W        W46736   3.934   8.435  13.390 -0.1651  0.0677  0.0208
30603W        W46737   4.727  13.159   3.694 -0.1391 -0.4299  0.0457
30604W        W46738   2.906  17.039   2.894  0.3901  0.1351 -0.1450
30605W        W46739  14.987   1.336   1.369 -0.1360 -0.2540  0.2303
30606W        W46740   2.286   9.624  14.217 -0.3043  0.4135  0.0387
30607W        W46741   9.696   5.239   4.259  0.0206 -0.3545 -0.0604
30608W        W46742   7.698  16.368  14.908 -0.2468  0.0370 -0.0770
30609W        W46743   7.660   6.082  12.197 -0.3054  0.0983 -0.1010
30610W        W46744  11.736   1.548  12.483 -0.1064  0.2406 -0.3001
30611W        W46745  10.572  10.750   0.600  0.0335 -0.1448  0.0189
30612W        W46746   5.790  14.136  10.932  0.1055  0.2530 -0.1196
30613W        W46747   8.898   7.335   0.932  0.0819  0.1900 -0.0838
30614W        W46748   1.011  15.104  13.156  0.0540 -0.0373 -0.0158
30615W        W46749  10.389   4.082  13.212  0.0572  0.1796  0.0880
30616W        W46750  15.547  16.674  13.699 -0.1936  0.1732 -0.1656
30617W        W46751  14.456   9.259  12.059 -0.3272 -0.1297 -0.2090
30618W        W46752   1.663   4.387   5.453 -0.0647  0.0022  0.0264
30619W        W46753   4.676   0.871  12.162 -0.0972 -0.2326 -0.1670
30620W        W46754   4.120   4.743  12.788  0.1015 -0.1149 -0.1103
30621W        W46755   3.091   4.154  13.153 -0.4535  0.1458 -0.2392
30622W        W46756   1.496   2.792   5.282  0.1710  0.0961 -0.1306
30623W        W46757  16.904   3.425   2.245  0.0011  0.0802  0.0532
30624W        W46758   4.552   5.723  12.292  0.1212 -0.2495  0.0581
30625W        W46759  17.958   8.734   2.321 -0.0833 -0.0894  0.0505
30626W        W46760   1.271  18.007  10.447  0.1396 -0.3380 -0.2208
30627W        W46761   3.935  10.138   1.636 -0.1096 -0.1142 -0.0098
30628W        W46762   2.714   8.995   4.396 -0.0877 -0.2316 -0.0687
30629W        W46763   7.647   1.622  11.276  0.2447 -0.1132  0.0109
30630W        W46764   7.169   6.658  12.891 -0.2052  0.0826 -0.2883
30631W        W46765   0.940   9.959   0.526 -0.2175  0.0884  0.2446
30632W        W46766  16.457  14.153  15.047  0.0591 -0.0542 -0.1987
30633W        W46767   4.204   0.307  10.582  0.1987 -0.0737 -0.1380
30634W        W46768   8.149   4.669   2.848 -0.2914 -0.1459  0.0691
30635W        W46769  11.689  11.177   5.175 -0.0863  0.2433 -0.2355
30636W        W46770  16.842  13.020   2.840 -0.3469  0.1103 -0.3506
30637W        W46771  14.897   1.666  14.066 -0.0681  0.0972 -0.4043
30638W        W46772  16.929  13.935   2.474  0.2105 -0.3734  0.2137
30639W        W46773   1.029   3.501   0.296 -0.1335  0.1253  0.0150
30640W        W46774  18.690   6.028   2.200  0.2921 -0.1475 -0.0595
30641W        W46775  18.313  14.910  12.624  0.0486 -0.0151 -0.0135
30642W        W46776   9.285  15.204   0.450  0.0649  0.2189  0.0998
30643W        W46777   3.289  16.870   1.470  0.3354  0.3076 -0.1485
30644W        W46778   3.927   7.314   4.606  0.2518  0.0403  0.1832
30645W        W46779  12.187   7.056  11.242 -0.0935 -0.0821  0.0691
30646W        W46780   4.072  14.805   2.010 -0.1336  0.0254  0.2380
30647W        W46781   2.651   8.056  15.080 -0.0018 -0.0076  0.0395
30648W        W46782  15.623   7.047  13.780  0.0705 -0.0818  0.1321
30649W        W46783  12.814   2.561   4.631 -0.1092  0.1369 -0.3075
30650W        W46784   9.363   0.968  14.258 -0.1326  0.2920 -0.2624
30651W        W46785   0.695   7.375  13.038 -0.0235 -0.0118  0.0642
30652W        W46786  17.516  14.498  13.149 -0.3081 -0.1751 -0.3076
30653W        W46787  14.908  18.399  11.732  0.1209  0.0570  0.0647
30654W        W46788   9.489   3.763   5.918 -0.2675  0.1743  0.1434
30655W        W46789   3.959   1.973   5.668 -0.1983  0.0093  0.0999
30656W        W46790  18.618   2.454  10.827  0.0224 -0.1644 -0.3286
30657W        W46791  11.517   4.050   3.483 -0.2148  0.0998  0.3283
30658W        W46792  16.825   7.376  13.648 -0.1538  0.1903 -0.0865
30659W        W46793  17.078   4.710  12.827 -0.0715  0.0179 -0.0721
30660W        W46794   5.108   0.986   1.660 -0.0800  0.0412 -0.2467
30661W        W46795   4.843   4.543   4.542 -0.0099 -0.0881  0.3415
30662W        W46796   8.911  16.499   3.209 -0.0381  0.1882  0.0011
30663W        W46797   9.518   6.297  13.632 -0.3046 -0.2354 -0.0624
30664W        W46798   1.620   7.361   3.251 -0.2265 -0.3069 -0.2252
30665W        W46799   1.848   6.400  14.992  0.1695 -0.0203  0.0427
30666W        W46800  10.675   2.874  11.920  0.4742 -0.4953 -0.3138
30667W        W46801   6.528  17.463  13.435  0.0695 -0.3297 -0.0151
30668W        W46802   4.799   5.441   1.639 -0.2214  0.0001  0.0821
30669W        W46803  10.789  11.591  12.089 -0.1083  0.1955 -0.1188
30670W        W46804   6.589   0.497   1.597 -0.1193 -0.1363  0.0085
30671W        W46805  10.326  10.202   4.756 -0.0513 -0.1425 -0.1414
30672W        W46806  12.200   9.389   2.585  0.3646 -0.0407  0.2103
30673W        W46807   3.901   8.258   4.974  0.4189  0.0297 -0.1413
30674W        W46808   2.342   7.997  11.228 -0.4369 -0.1429  0.1941
30675W        W46809   1.167  14.104  11.511  0.1052 -0.3152 -0.1903
30676W        W46810   8.257   3.076   0.428 -0.1319  0.0325 -0.2693
30677W        W46811   8.678   0.450  11.958  0.0381  0.0715  0.0978
30678W        W46812   7.816   9.851  14.510  0.0386  0.1315 -0.0082
30679W        W46813   0.557   0.258  14.403  0.3771 -0.0470 -0.6078
30680W        W46814   3.395   7.886   0.041 -0.1428 -0.3286 -0.3522
30681W        W46815  12.086   0.928  13.770  0.0360  0.1238  0.1096
30682W        W46816  12.624   0.995   2.228 -0.1247  0.2345  0.0007
30683W        W46817  17.289  10.601   2.101 -0.0400  0.1321 -0.3754
30684W        W46818  16.627   9.573  14.360  0.1938  0.0583  0.3008
30685W        W46819   0.283  13.950   5.341 -0.0610 -0.0630 -0.0992
30686W        W46820   3.978   7.557   2.852  0.2056  0.0214  0.2891
30687W        W46821   8.005  15.632  12.052 -0.1904 -0.0189 -0.1223
30688W        W46822   6.606  16.970  14.631  0.0041  0.1235  0.0051
30689W        W46823   1.392  18.238  13.610 -0.0006 -0.0438  0.0806
30690W        W46824   1.583  13.795  15.416  0.0488 -0.1159  0.3188
30691W        W46825  17.650   1.391  12.677  0.1951  0.0643  0.0917
30692W        W46826  18.074   5.601   2.690 -0.2051  0.1204 -0.1045
30693W        W46827  17.666  17.320   1.595  0.0370  0.0102  0.0559
30694W        W46828  17.706   9.356   3.979  0.1675 -0.1659 -0.0798
30695W        W46829  13.971  17.323   2.460  0.2956 -0.0592 -0.2350
30696W        W46830   7.648   5.390  13.378 -0.3216 -0.0842 -0.2737
30697W        W46831  18.355  17.402   0.841 -0.1908 -0.0660 -0.0283
30698W        W46832  18.109  18.302   4.387  0.1140  0.3907 -0.2264
30699W        W46833   6.624  18.255   3.948 -0.0527 -0.3139  0.1422
30700W        W46834   7.756   4.353  10.207  0.3391  0.0350  0.1157
30701W        W46835   0.150   3.640  14.354 -0.2039  0.1031 -0.0974
30702W        W46836   6.136   4.518   3.666  0.0519 -0.2437 -0.2268
30703W        W46837   5.382  17.307  11.093 -0.4271 -0.0539  0.1138
30704W        W46838   4.293  13.222   1.903  0.2318 -0.1288  0.2559
30705W        W46839  15.818  17.917  11.426 -0.2160  0.4287 -0.2295
30706W        W46840   6.339   3.713  14.576 -0.2351  0.0665 -0.1985
30707W        W46841   9.645  17.132  11.470 -0.0181  0.1186 -0.1164
30708W        W46842   0.740  14.827   9.786 -0.0037 -0.1499 -0.2535
30709W        W46843  10.841   9.235  12.317 -0.0159 -0.0357 -0.1073
30710W        W46844  13.303  10.740  15.234  0.2030  0.2406 -0.1398
30711W        W46845   9.927   7.561  11.301  0.0918  0.2050  0.0693
30712W        W46846   4.376   1.770   5.488  0.0408 -0.0832  0.0239
30713W        W46847   6.063  14.298  14.009  0.4239  0.1956  0.1342
30714W        W46848   1.776  16.732   0.977  0.2839 -0.1072  0.1420
30715W        W46849   2.161  11.280   5.183 -0.1826 -0.0796  0.1760
30716W        W46850  17.307   2.881  12.582 -0.0017  0.0137 -0.0069
30717W        W46851   4.733   8.090  13.690  0.4831  0.1050  0.3438
30718W        W46852  10.333   1.875   2.565 -0.0998  0.0756  0.1250
30719W        W46853   5.936  10.373   2.525  0.2729  0.2317 -0.0837
30720W        W46854   3.038   5.415   4.265 -0.3011  0.0261  0.1064
30721W        W46855   7.538  14.145  12.169 -0.0470 -0.0845 -0.3598
30722W        W46856   2.185  10.977   0.566 -0.0905  0.0130 -0.1074
30723W        W46857  16.281   7.870  13.341 -0.3606  0.3867  0.0281
30724W        W46858   8.984   4.840   2.028  0.0629 -0.0293 -0.0776
30725W        W46859   4.830  12.239   4.678  0.3154  0.1463 -0.0099
30726W        W46860   9.954   5.062  14.771  0.2962 -0.1198  0.0685
30727W        W46861  18.592  12.570  14.049  0.1858  0.2791  0.1366
30728W        W46862   3.105  11.462  15.048  0.1476  0.2390  0.0550
30729W        W46863  10.657  13.815   4.676  0.0013 -0.0976  0.1012
30730W        W46864   8.669   5.438   0.957 -0.2044 -0.2536 -0.1262
30731W        W46865  10.562   2.390   4.179 -0.0580 -0.0472 -0.1905
30732W        W46866   0.357   3.908   0.796  0.1716  0.1413  0.2023
30733W        W46867   9.978   4.004   2.226  0.0957  0.0926  0.2258
30734W        W46868   4.949  10.552  11.111  0.0250 -0.1005 -0.3372
30735W        W46869   7.814   5.476  15.205  0.2672 -0.1402 -0.0519
30736W        W46870  16.203  15.724   3.809  0.1298  0.0179 -0.1455
30737W        W46871  15.092   0.934  14.560  0.0148 -0.2239  0.0984
30738W        W46872   9.242   4.591  13.879 -0.1356  0.0929 -0.2355
30739W        W46873  16.422  12.332   0.254  0.0794 -0.1148  0.0777
30740W        W46874   2.837   9.813   5.354 -0.3379 -0.0676  0.1543
30741W        W46875   1.981  15.261  13.465  0.6066  0.6424 -0.2059
30742W        W46876   5.130  15.503   3.430 -0.3153  0.0539  0.0452
30743W        W46877   4.459   7.892   3.707  0.0021 -0.0653 -0.1153
30744W        W46878   9.928  15.430  15.235  0.0783 -0.2636 -0.1166
30745W        W46879   3.293  15.191  14.832 -0.1436 -0.0022 -0.2629
30746W        W46880   5.291  17.898  14.758  0.0941 -0.0068  0.0453
30747W        W46881   2.574   2.847  12.781 -0.2507 -0.2061  0.1446
30748W        W46882  17.980  18.464  12.036 -0.3641 -0.2620  0.2275
30749W        W46883   7.214   6.563   0.571  0.0082  0.1041  0.0350
30750W        W46884   7.370  14.165  13.475  0.2224  0.3091 -0.3175
30751W        W46885   3.268  17.214   2.592  0.0882 -0.1421 -0.0974
30752W        W46886  14.920   8.218   0.588  0.0890  0.1423 -0.0113
30753W        W46887  17.685   7.113   1.520 -0.0345  0.1462 -0.0045
30754W        W46888  11.938   8.566   1.821 -0.0456 -0.2074 -0.1118
30755W        W46889   8.567   9.362   2.591  0.0521 -0.0984  0.1373
30756W        W46890  16.479   4.403   0.685  0.1278  0.1910  0.1136
30757W        W46891   7.156   9.028  13.169  0.1275 -0.2000  0.1004
30758W        W46892   5.613   9.273  14.626  0.2833 -0.1386  0.1764
30759W        W46893   4.049  13.312  10.738 -0.2156  0.2206 -0.1445
30760W        W46894  13.322  11.593   1.351 -0.2522  0.1382 -0.1501
30761W        W46895  17.335   6.156   3.188  0.0702 -0.1119  0.1946
30762W        W46896   2.732  12.327   3.262  0.2424 -0.1279 -0.3216
30763W        W46897   7.856   4.283   4.262 -0.2857 -0.1069  0.0411
30764W        W46898  14.685  12.980   3.906 -0.2284  0.2601 -0.1934
30765W        W46899   9.229   2.430  14.329 -0.0826  0.0003 -0.0650
30766W        W46900  12.858  13.654  15.287 -0.0672  0.0042  0.0700
30767W        W46901  10.062   5.779   1.799  0.0531  0.3136 -0.0198
30768W        W46902  16.882   5.584  14.374 -0.3277  0.1403 -0.3003
30769W        W46903   6.731  12.885  15.526  0.4359  0.0226 -0.0076
30770W        W46904  15.429   7.503  14.844  0.2628 -0.4444 -0.2336
30771W        W46905  14.653   7.000   0.697 -0.3568  0.2699 -0.1332
30772W        W46906  17.200  14.022   5.099  0.2464 -0.0569 -0.0286
30773W        W46907   0.337  16.872  13.014 -0.1365 -0.2426  0.2827
30774W        W46908   0.723  10.451  15.409 -0.1541 -0.1763 -0.0403
30775W        W46909   0.372  10.918  13.212  0.0196 -0.3370 -0.0709
30776W        W46910   5.653  14.107  11.886  0.0074  0.1386  0.0730
30777W        W46911   5.862   8.246  11.111  0.0279 -0.0204 -0.0916
30778W        W46912  15.004  12.212   5.055  0.2896  0.1966  0.0617
30779W        W46913  13.192  10.627   0.528 -0.4529 -0.0250  0.4377
30780W        W46914   9.537   4.552  13.121 -0.0608  0.0967 -0.2126
30781W        W46915   3.198   8.653   4.007 -0.1782  0.2078 -0.2436
30782W        W46916  17.888  15.598  11.273 -0.0978 -0.2339 -0.1994
30783W        W46917  17.796   6.464   2.968  0.1489 -0.2465 -0.1250
30784W        W46918  17.943   0.735  13.309 -0.0152  0.0724 -0.0078
30785W        W46919   5.057   4.092   2.992  0.1075  0.5472  0.1209
30786W        W46920  15.750   6.070   2.739  0.1070  0.0422  0.1338
30787W        W46921   8.363  10.743  13.010 -0.3761  0.1116  0.1820
30788W        W46922  10.365   4.641  12.480  0.0744  0.0497 -0.0383
30789W        W46923   3.418   3.307  12.942 -0.0208 -0.1572  0.1440
30790W        W46924  11.353   2.253  11.263  0.0243  0.2348  0.3337
30791W        W46925   2.993  18.240   3.812 -0.2055  0.0323 -0.1142
30792W        W46926  16.985   3.428  14.993 -0.0939  0.0407  0.0996
30793W        W46927   1.208  10.387  11.166  0.0135  0.3764  0.1105
30794W        W46928  12.285   5.513   1.593  0.2799 -0.0387 -0.0308
30795W        W46929   2.990   4.285  11.212 -0.0017 -0.0580 -0.0340
30796W        W46930  17.078   9.665   2.713 -0.3139 -0.0941 -0.2132
30797W        W46931  14.807  16.223   4.873  0.2422 -0.3276 -0.0035
30798W        W46932  18.551   8.366   5.887 -0.1538  0.2612 -0.1063
30799W        W46933   0.868   3.960   4.904 -0.1007 -0.0929 -0.0070
30800W        W46934  13.860  17.468   4.288  0.0910  0.0466  0.2731
30801W        W46935   6.403  18.465   2.172  0.1423  0.3502  0.1562
30802W        W46936   4.232   2.797  13.143 -0.1095 -0.0545 -0.1274
30803W        W46937  13.851  14.705   3.111 -0.1625 -0.1011 -0.0463
30804W        W46938  11.127   1.147   4.838 -0.0000  0.2666 -0.2141
30805W        W46939   2.291   8.858  11.927  0.0146 -0.0555 -0.0351
30806W        W46940  14.572  12.579  10.780 -0.1443  0.0377 -0.1145
30807W        W46941  15.080  17.120   3.073  0.2724  0.0328  0.0966
30808W        W46942   4.641   1.315   0.070 -0.0024  0.0872  0.1916
30809W        W46943  11.788  18.234  10.489 -0.1525 -0.0022 -0.0185
30810W        W46944   4.708   7.442   0.204 -0.0660  0.0699 -0.2840
30811W        W46945   9.444   2.829  15.511  0.0633  0.0009  0.2244
30812W        W46946   9.884  11.509  10.828 -0.0855  0.4241 -0.2240
30813W        W46947   1.853  11.946   1.578  0.0268  0.1505  0.2662
30814W        W46948   7.917  15.491   3.386  0.0949 -0.3081 -0.0405
30815W        W46949  15.508   8.502   1.277 -0.2210  0.1873 -0.1215
30816W        W46950   5.967   7.067   4.099 -0.2127  0.1280  0.4266
30817W        W46951   3.026  11.590  10.430  0.0973 -0.2307  0.1104
30818W        W46952   9.907  13.651   1.984 -0.3821 -0.0518 -0.1691
30819W        W46953  12.442  10.066   5.857  0.2988 -0.1539  0.5071
30820W        W46954   6.810   6.322  14.133 -0.2272  0.1017 -0.0610
30821W        W46955   0.140  14.768  12.954  0.0759  0.1877 -0.0538
30822W        W46956  12.101  17.859   0.040  0.0483 -0.0112 -0.0757
30823W        W46957  13.309  11.723   1.853 -0.0325  0.1117  0.2279
30824W        W46958   6.050  14.036  10.411  0.0254 -0.2023  0.1543
30825W        W46959   1.759  10.934   2.380  0.1580 -0.0681  0.0270
30826W        W46960  12.677   8.150   1.328 -0.0051 -0.1875  0.2516
30827W        W46961   1.349   3.710  10.119  0.2504  0.3992  0.1756
30828W        W46962  16.003  16.852   5.709 -0.0534  0.0884 -0.0721
30829W        W46963   3.305   4.344  14.969  0.0813 -0.2178 -0.0792
30830W        W46964   0.131  15.651   2.815 -0.0129 -0.0689 -0.0984
30831W        W46965  12.636   7.232   2.183 -0.2119  0.2755 -0.1739
30832W        W46966   6.076  13.116   3.536 -0.2103 -0.0626  0.1851
30833W        W46967   9.018   3.363   2.951  0.1027 -0.3050  0.3061
30834W        W46968  12.635  10.894  12.692 -0.2045 -0.2110  0.0114
30835W        W46969   6.525  17.752   3.829 -0.1463  0.0971  0.2394
30836W        W46970   3.306   0.393  14.528  0.0117 -0.0664  0.1065
30837W        W46971   6.271  15.381   0.266  0.1911  0.1921 -0.2860
30838W        W46972  11.268   8.511  11.669 -0.0473  0.2116  0.0847
30839W        W46973  12.249  11.794  12.944  0.4684  0.1831  0.0864
30840W        W46974   7.816  13.709  15.022  0.1922 -0.0221  0.1048
30841W        W46975  10.407   5.422   3.128 -0.0677 -0.0086  0.2452
30842W        W46976  12.982   1.080   4.668 -0.1638  0.0522 -0.3173
30843W        W46977   9.924   3.420  10.930  0.3252 -0.1923 -0.0937
30844W        W46978   1.760  11.291   3.604  0.0944  0.2298  0.1256
30845W        W46979   9.411   9.315  14.222 -0.0932  0.2359  0.1612
30846W        W46980  11.880   4.095   2.695 -0.2887 -0.0240  0.0393
30847W        W46981  18.350  17.657   1.433 -0.0538 -0.0668 -0.1894
30848W        W46982   1.749   1.341   4.527  0.1917 -0.1369  0.2487
30849W        W46983   3.602   3.471   1.794  0.2083  0.0501  0.1554
30850W        W46984   1.756  14.206  10.654  0.0489 -0.0482  0.2952
30851W        W46985  11.792   6.220  13.405 -0.2312  0.0385 -0.0335
30852W        W46986   6.114   5.610  11.605 -0.0451  0.2334  0.0067
30853W        W46987  17.980   0.760   4.612 -0.0307  0.2854 -0.2213
30854W        W46988   3.672   4.249  10.538  0.0373  0.3243 -0.0363
30855W        W46989   9.646   6.917  14.215 -0.0282 -0.2020  0.3898
30856W        W46990  18.540   5.829   2.655 -0.2294  0.1107 -0.3471
30857W        W46991   4.830  11.874   0.018  0.1074  0.0875  0.0349
30858W        W46992   6.889  14.323   0.311  0.1858  0.0625  0.0291
30859W        W46993   6.575  17.964   3.357 -0.2545  0.0926  0.3140
30860W        W46994   9.904   9.576  11.666 -0.2063  0.0274  0.1811
30861W        W46995   8.016   2.634  15.021 -0.1519 -0.4314 -0.0862
30862W        W46996  10.950   8.909   3.904  0.0741  0.3005  0.2699
30863W        W46997   2.093  10.578   4.758 -0.0914  0.0906 -0.2418
30864W        W46998  15.838  17.647  14.280  0.0945  0.1724 -0.1085
30865W        W46999  11.275   4.386   4.999  0.1131  0.0441  0.0551
30866W        W47000  10.088  14.644   2.381  0.1340  0.1064 -0.1696
30867W        W47001   8.299   9.695   1.849  0.0725 -0.3048 -0.0130
30868W        W47002  13.258   4.583   2.652  0.0030 -0.2188 -0.0639
30869W        W47003   1.889   1.163  15.125 -0.0382 -0.1551 -0.3153
30870W        W47004  18.379   6.907   4.520  0.0563 -0.0209  0.1265
30871W        W47005  13.979  13.943  11.040 -0.3299  0.0909 -0.1153
30872W        W47006  13.908   5.508   4.828 -0.2579 -0.3872 -0.0247
30873W        W47007  12.122   6.415  14.003  0.1921  0.2919 -0.1669
30874W        W47008  17.270   4.349  14.758  0.3197 -0.1222 -0.1318
30875W        W47009  15.627  10.044   4.412 -0.2326  0.0409  0.1761
30876W        W47010   5.755   0.638  13.409  0.0362  0.3897 -0.1404
30877W        W47011   2.918   2.773  13.338  0.0344  0.0071  0.0072
30878W        W47012  15.525   8.987   0.132  0.0399  0.1889  0.0627
30879W        W47013   1.716  10.181  10.429  0.0816 -0.0002 -0.0332
30880W        W47014  11.666   4.714   4.814  0.0927  0.0678  0.1776
30881W        W47015   3.034   6.695  13.393 -0.0124  0.2109  0.0121
30882W        W47016  11.412  12.414   3.086 -0.0010  0.0267 -0.1275
30883W        W47017   1.427  18.632   3.494 -0.0588 -0.0717 -0.0801
30884W        W47018  11.746   7.745  13.306 -0.1978  0.1037  0.1043
30885W        W47019   0.565   7.399   1.393 -0.2800 -0.0534  0.0161
30886W        W47020   5.799   3.424  13.600  0.0405 -0.0657  0.0181
30887W        W47021  14.317   6.759  13.576 -0.1246  0.0465  0.2364
30888W        W47022   8.481   8.901   4.400  0.0313 -0.2770 -0.1546
30889W        W47023  16.479  15.134   0.760 -0.0696  0.1072 -0.1382
30890W        W47024  10.823  12.941   4.749 -0.3352  0.0353 -0.1144
30891W        W47025   8.990   0.402  11.432  0.0112  0.4196 -0.1073
30892W        W47026   4.747  13.155   4.530  0.1058 -0.1830  0.0714
30893W        W47027  16.620  16.416   3.982 -0.0240 -0.0548  0.1069
30894W        W47028   4.549  13.197  13.510  0.1432 -0.2878 -0.4891
30895W        W47029   7.988   6.546  12.096  0.4228  0.3478  0.2976
30896W        W47030   5.201   4.767   2.665  0.0205  0.0405  0.0680
30897W        W47031   8.493   2.027   2.053 -0.1511 -0.1235 -0.1158
30898W        W47032  17.106  12.261  13.980 -0.1810  0.0994 -0.0789
30899W        W47033  14.879   2.014  11.478  0.1242 -0.1566  0.2740
30900W        W47034  10.760   5.235   2.226  0.0228 -0.5334  0.1811
30901W        W47035   2.152   3.007  15.311  0.1244 -0.0900 -0.1162
30902W        W47036  10.259  15.314  14.317  0.6301 -0.0404 -0.2572
30903W        W47037   2.602   7.401  14.754 -0.1007 -0.1888 -0.2571
30904W        W47038   9.738   2.826   4.144 -0.0150 -0.0044 -0.1472
30905W        W47039   2.545  13.626   3.017  0.1602  0.1720  0.3774
30906W        W47040  15.325   2.584  12.206 -0.1359  0.0197 -0.0300
30907W        W47041   6.364  17.556   0.761  0.4203 -0.0772  0.4316
30908W        W47042   1.724  13.219  13.741  0.3250  0.3361 -0.2851
30909W        W47043  13.560   1.080  11.079 -0.1065 -0.4605 -0.0435
30910W        W47044  18.650   6.073   1.251  0.0558 -0.0690  0.0424
30911W        W47045   1.991  15.337   5.024 -0.2267 -0.3288 -0.1729
30912W        W47046   7.420   9.680  12.588 -0.0375 -0.1249  0.1769
30913W        W47047   5.386  15.292   3.797  0.4372  0.2600  0.3333
30914W        W47048   1.265  12.539   0.942  0.5586  0.2086  0.0471
30915W        W47049  18.283   0.023   4.518 -0.2593 -0.0691 -0.0475
30916W        W47050   7.578   3.123   0.403  0.3181 -0.0989 -0.2633
30917W        W47051   6.466  11.319  13.657  0.0447 -0.1312  0.2430
30918W        W47052  11.033   7.058  12.020 -0.0526  0.1464  0.0177
30919W        W47053   8.704  10.155  15.481  0.0224 -0.0363  0.2474
30920W        W47054  18.413   4.181  12.521 -0.1559  0.1260  0.0295
30921W        W47055  17.883  14.656   4.971  0.0401  0.0660  0.0530
30922W        W47056   9.471   6.172  11.484  0.1810 -0.0208 -0.1583
30923W        W47057   5.534  16.022   5.297 -0.0518  0.1278  0.1676
30924W        W47058   1.978  18.262   4.813 -0.1207 -0.1769  0.0539
30925W        W47059  16.050   5.858  11.460  0.0619  0.2366 -0.0074
30926W        W47060   8.109  10.972  13.410 -0.0366  0.3926 -0.1062
30927W        W47061  12.224   1.895  14.561 -0.1651 -0.2398  0.2698
30928W        W47062  10.417  18.461   0.367 -0.0078 -0.1829 -0.0377
30929W        W47063   2.160  13.647  13.512  0.1065  0.0990 -0.0430
30930W        W47064   0.707  17.198  12.229  0.1232  0.1187 -0.3345
30931W        W47065  11.992   0.106  15.486 -0.0786 -0.1046 -0.0161
30932W        W47066  14.228   3.546  10.130  0.0322 -0.0131  0.2137
30933W        W47067   5.614   2.582  14.110  0.1079 -0.3660  0.0686
30934W        W47068   5.268   7.199   1.356  0.0834  0.0975  0.0890
30935W        W47069  15.236   9.684  12.307 -0.1519  0.2397 -0.2158
30936W        W47070  18.377  14.274   4.177  0.2386 -0.0907  0.4323
30937W        W47071  15.963   5.761   5.048  0.1347  0.0115 -0.0922
30938W        W47072  12.410   3.851  15.286 -0.1403 -0.1515 -0.1284
30939W        W47073   8.459   6.581  12.348 -0.3711 -0.2031  0.2773
30940W        W47074  13.865   1.751   0.124  0.1825  0.0650  0.3185
30941W        W47075  16.042  16.062  13.120 -0.2782 -0.0158  0.3299
30942W        W47076  13.891   6.068  13.115  0.0910  0.2248 -0.0469
30943W        W47077   8.840   1.721   1.820 -0.0601 -0.0127 -0.1008
30944W        W47078   9.788   3.109   3.276  0.2621 -0.1437 -0.1021
30945W        W47079  11.630  11.011  12.100 -0.0718  0.1841  0.0331
30946W        W47080   4.771  14.294   2.939  0.0091 -0.0236 -0.1693
30947W        W47081   8.667   4.656  11.866 -0.0471  0.0465 -0.1294
30948W        W47082  16.314   0.151   2.960 -0.2345 -0.2705  0.0605
30949W        W47083  12.713   4.953  14.958  0.2625 -0.0826  0.1429
30950W        W47084  18.714  16.389   2.641 -0.3887  0.2843  0.4719
30951W        W47085  14.049   5.505   1.053 -0.0027  0.1912 -0.0770
30952W        W47086   6.718   1.436   3.867  0.3159  0.1492 -0.0323
30953W        W47087   8.287  10.323  13.297  0.1886 -0.3293 -0.0464
30954W        W47088   0.056  11.725   5.387 -0.2202  0.0170  0.0277
30955W        W47089   2.350  10.868  10.193  0.1560  0.2262  0.2189
30956W        W47090   7.444   8.661  12.914  0.3111  0.4602 -0.0535
30957W        W47091  11.548  15.777   2.724 -0.0540 -0.0023 -0.0236
30958W        W47092   3.993  11.670   3.458 -0.0327 -0.4537  0.1642
30959W        W47093  10.290  14.837   0.197  0.0773 -0.1156  0.1193
30960W        W47094  12.849  15.831   1.918  0.0459  0.1828  0.3199
30961W        W47095  11.531   1.337   5.169 -0.3168 -0.1084 -0.0490
30962W        W47096   8.138  10.303  12.786  0.1814 -0.2310  0.1154
30963W        W47097   6.720   5.351   4.340 -0.0125  0.1371 -0.0356
30964W        W47098   5.670   8.294  12.237  0.3101 -0.1056 -0.3311
30965W        W47099   9.669   1.601  14.381  0.0272 -0.0292 -0.0521
30966W        W47100  13.829   9.973  12.002  0.0099  0.2065  0.1539
30967W        W47101   2.992   2.148   2.283 -0.0455 -0.1585 -0.1482
30968W        W47102   4.340  10.134   1.279  0.2689 -0.0171 -0.0977
30969W        W47103  12.972   8.317   0.916 -0.0765  0.1782 -0.1834
30970W        W47104   0.847  17.916   0.074  0.2243  0.1742  0.1496
30971W        W47105  11.163   0.119   3.321 -0.1468 -0.1257 -0.2917
30972W        W47106  17.629   0.545  11.354 -0.0434  0.0585 -0.0325
30973W        W47107  10.951   8.096  11.569 -0.0598 -0.0981 -0.1532
30974W        W47108   6.617  15.688   0.569  0.0319  0.0700 -0.4694
30975W        W47109  14.552   8.508  15.244  0.1142  0.2431 -0.1989
30976W        W47110   4.022   8.005   1.858  0.0703 -0.0079  0.1144
30977W        W47111  11.899  13.760  15.383  0.1734  0.0272  0.1060
30978W        W47112   1.302   1.993  11.616  0.2547  0.2048  0.0521
30979W        W47113   3.447   9.117  12.754  0.1127 -0.1761  0.2028
30980W        W47114   3.310   6.473   4.200  0.4629  0.1088 -0.0814
30981W        W47115  17.575  18.207  12.740 -0.0910 -0.1403 -0.2479
30982W        W47116  15.982  16.282  14.131 -0.0820  0.0303  0.4385
30983W        W47117  15.635   5.774   2.320 -0.0791  0.2613  0.3647
30984W        W47118  14.971  15.017  15.004 -0.2399 -0.1053 -0.0120
30985W        W47119  10.649   2.330   0.808 -0.0348 -0.0960 -0.1159
30986W        W47120   2.237  13.337   4.162  0.3618  0.0391 -0.0119
30987W        W47121   8.392  14.433  15.388  0.3704 -0.1174  0.0945
30988W        W47122  11.757   7.505   2.610 -0.1170 -0.0310  0.1422
30989W        W47123  17.069  16.175   5.331  0.1073  0.0982  0.1453
30990W        W47124   4.136  16.554  14.990  0.4700  0.1184  0.0955
30991W        W47125  15.616  11.836   0.402  0.1702 -0.0749  0.0543
30992W        W47126   0.320   8.126   4.197  0.0802 -0.0968 -0.3099
30993W        W47127   3.253   8.524  15.513 -0.1370 -0.2093  0.0804
30994W        W47128  17.880   7.134  15.544 -0.1903 -0.2964 -0.0498
30995W        W47129   8.208   1.694  12.943  0.2982 -0.0203  0.0667
30996W        W47130   2.959   6.173   0.452 -0.1048  0.3216 -0.4149
30997W        W47131   8.672   9.475  14.041  0.0370 -0.0748  0.2568
30998W        W47132   5.784   6.880   5.142 -0.0241 -0.1695  0.1749
30999W        W47133   4.426   9.741  11.977  0.0290  0.0978  0.1169
31000W        W47134   9.980  11.547  12.909  0.3144  0.1721  0.1989
31001W        W47135   9.188  17.732   4.223  0.1607  0.4072  0.0287
31002W        W47136   3.847  11.723   1.014  0.0345 -0.1997  0.0816
31003W        W47137   5.441  11.682  12.370 -0.0337 -0.1150  0.0651
31004W        W47138  10.806   3.142  10.642 -0.0451  0.1095 -0.0740
31005W        W47139  13.266   9.116   2.079  0.0753 -0.1767 -0.2262
31006W        W47140  18.077   7.619  15.424 -0.0359 -0.1852  0.0544
31007W        W47141  12.068   4.318   4.622 -0.0606 -0.0295  0.1590
31008W        W47142  10.659  16.138   5.182 -0.3317  0.0163 -0.1400
31009W        W47143  11.750  17.501  11.117  0.1428  0.1693  0.0343
31010W        W47144   8.095   8.663  11.881  0.1845 -0.2078 -0.0809
31011W        W47145  13.344   6.273   2.155  0.1418 -0.0223  0.1071
31012W        W47146   0.296  14.314  12.783 -0.0685 -0.2149 -0.0823
31013W        W47147  12.952  18.189   3.710  0.2026  0.0240 -0.4522
31014W        W47148   7.090  16.782   1.825  0.3384 -0.1663 -0.2741
31015W        W47149   0.933  18.059  12.237 -0.1838  0.0876  0.4237
31016W        W47150   9.964  18.261   3.817 -0.0418 -0.1547  0.2993
31017W        W47151   7.762  12.925   1.722  0.0145  0.0344  0.0369
31018W        W47152   9.172   2.606  11.480  0.0207  0.0292  0.0662
31019W        W47153  14.880  10.489  10.943  0.2280 -0.0910 -0.2341
31020W        W47154   1.189  14.214   3.748 -0.1003 -0.0871 -0.1578
31021W        W47155   7.219   5.962   5.569  0.0919 -0.1755 -0.0628
31022W        W47156  12.887   6.888   1.440  0.1378  0.1875 -0.1382
31023W        W47157   5.389   0.816   2.086 -0.0883 -0.0193 -0.1367
31024W        W47158   6.692  10.686   2.110 -0.0264  0.0967  0.2927
31025W        W47159  12.489   8.085  13.278 -0.1090  0.3007 -0.2131
31026W        W47160  12.815   3.138   2.099 -0.2337 -0.5316 -0.0091
31027W        W47161   9.971  10.328   1.725 -0.2434  0.0883 -0.0344
31028W        W47162  14.543   2.243   2.849  0.0474  0.0310  0.2908
31029W        W47163   6.500   1.995  13.759 -0.2120  0.0861 -0.1490
31030W        W47164  18.342   8.470   5.192 -0.1487  0.1332  0.2389
31031W        W47165   2.389  13.849  11.033 -0.1009  0.0517 -0.0615
31032W        W47166   1.352   5.744   0.150 -0.2597 -0.0303 -0.0338
31033W        W47167  18.617  11.511  15.411 -0.0209 -0.1357 -0.2063
31034W        W47168  10.375   1.761  12.848  0.0839  0.0478 -0.1187
31035W        W47169   0.992  13.955  10.742 -0.0025 -0.0290 -0.3684
31036W        W47170  17.700  14.508  15.310  0.0726  0.0731 -0.2612
31037W        W47171   0.544  17.127  14.534  0.1742 -0.3847 -0.0540
31038W        W47172   1.099  17.166   9.927  0.1545 -0.0929  0.0447
31039W        W47173   8.282   9.475  12.200 -0.2842 -0.1170 -0.1554
31040W        W47174   9.348  14.273   5.518 -0.0357 -0.4015  0.1627
31041W        W47175   3.574  11.549   2.488  0.1593 -0.1012 -0.0232
31042W        W47176   7.472   1.293  13.100 -0.2262 -0.0768  0.0264
31043W        W47177  16.696  14.134  12.743 -0.0888  0.1151 -0.1227
31044W        W47178   4.418   9.550  12.633  0.0463 -0.0598 -0.4035
31045W        W47179   0.842   8.605   3.784 -0.1137 -0.0385  0.1935
31046W        W47180   1.341   7.397   4.642  0.1440  0.0284 -0.2545
31047W        W47181  17.200  11.108   4.607 -0.1405  0.1431  0.0562
31048W        W47182  12.091  15.353   0.528 -0.2120  0.1679  0.1251
31049W        W47183  11.496   7.034  13.194 -0.1528  0.1260  0.0030
31050W        W47184   6.894   1.591   0.480  0.0871 -0.1500 -0.1129
31051W        W47185  11.963   9.844   1.153  0.3574 -0.0188  0.4158
31052W        W47186  12.570   2.631   0.754 -0.0430  0.0458 -0.1545
31053W        W47187  15.550   4.638  13.433 -0.0056 -0.0842 -0.0368
31054W        W47188   7.713   5.801   3.583  0.1482  0.2600  0.0703
31055W        W47189   3.493  13.296  10.736  0.2954 -0.0952 -0.1298
31056W        W47190  11.617   9.373   3.458 -0.0643 -0.1112  0.2223
31057W        W47191  15.002   0.298  14.793 -0.0666 -0.1875  0.0977
31058W        W47192   9.473  12.652   1.157  0.0190  0.0874  0.2178
31059W        W47193   0.280   6.674   5.651 -0.1025  0.0366 -0.5701
31060W        W47194  13.447  13.563  13.400  0.0471 -0.0037  0.0755
31061W        W47195  12.600   7.630  10.640 -0.2025  0.0845 -0.3483
31062W        W47196   8.290   6.304   3.170  0.1756  0.2086  0.2178
31063W        W47197   3.384   1.222   3.364 -0.2158  0.1813  0.1417
31064W        W47198  16.241  14.619  11.285 -0.3394 -0.4200  0.0204
31065W        W47199   4.186  10.131  13.409  0.3710  0.2965  0.1797
31066W        W47200   0.820   9.584  13.801  0.1647 -0.1531 -0.0297
31067W        W47201  16.723  10.380  13.465 -0.0264 -0.0334  0.1694
31068W        W47202  16.692   1.456   4.778  0.0396  0.0328 -0.1456
31069W        W47203  11.944  11.843   3.377  0.1882  0.0864 -0.1143
31070W        W47204   9.386  14.515  11.843  0.0221 -0.2801 -0.2213
31071W        W47205   3.365   7.436  15.404  0.0950  0.0474  0.3466
31072W        W47206   6.507  16.820   3.818  0.1123  0.0404 -0.1000
31073W        W47207  10.345  15.731  11.306  0.2530 -0.0964 -0.1175
31074W        W47208  11.923   3.723   1.771 -0.0177  0.2738 -0.2921
31075W        W47209   3.755   3.623   1.105  0.1509  0.3244  0.1543
31076W        W47210   8.691  11.385   1.828 -0.2495 -0.0335 -0.0121
31077W        W47211  14.848   4.279   2.847  0.2827 -0.0359 -0.0457
31078W        W47212  11.958   8.027  11.467  0.2344 -0.1226  0.0128
31079W        W47213  18.301  17.471  11.033  0.0676 -0.1128 -0.3248
31080W        W47214  13.422   7.001   4.014 -0.1863  0.3544 -0.1879
31081W        W47215   2.496   8.349  13.815 -0.2356 -0.1111  0.2698
31082W        W47216  11.642  13.243   3.486  0.5115 -0.0798 -0.0157
31083W        W47217  11.549  13.329  11.161  0.2368  0.1660  0.3026
31084W        W47218   1.493  16.957   2.088  0.1519 -0.1646  0.1101
31085W        W47219  11.378  15.163  10.736 -0.2806 -0.4222  0.1866
31086W        W47220  11.755   5.283   0.798 -0.1328  0.1154 -0.0977
31087W        W47221   0.206  12.551   0.845 -0.0142 -0.0914 -0.2782
31088W        W47222   8.483  13.306  14.689  0.0823  0.0704 -0.4370
31089W        W47223   3.175  11.968   0.886  0.0302 -0.0995 -0.0207
31090W        W47224   9.656   7.427   2.181  0.6124 -0.1253  0.1996
31091W        W47225  18.484  17.889  15.190 -0.2784 -0.0781  0.0397
31092W        W47226   7.794  11.995  14.894 -0.0430  0.0438  0.0241
31093W        W47227   8.785  12.257   0.487  0.1196 -0.2703 -0.1457
31094W        W47228   0.228  13.411  12.922  0.1027  0.0218 -0.2560
31095W        W47229   3.841   3.668   3.594  0.2425 -0.2545  0.2714
31096W        W47230   2.698  16.774  14.042 -0.0171 -0.1900  0.1541
31097W        W47231  10.851   8.726   0.475 -0.2436 -0.2152 -0.0058
31098W        W47232  17.349   0.427   5.041 -0.0882 -0.0816 -0.0017
31099W        W47233   0.674  17.834  11.785  0.0046  0.0596 -0.0916
31100W        W47234  16.658  14.813  13.798  0.2485  0.0648  0.1254
31101W        W47235   1.914  12.479  10.705 -0.0582  0.0239 -0.1656
31102W        W47236  18.006  13.479  10.875 -0.0971  0.1230 -0.0257
31103W        W47237  12.961  14.031  14.789  0.2736  0.3996 -0.1617
31104W        W47238   5.319   5.574   5.772 -0.0128  0.1364  0.0854
31105W        W47239   2.223  12.301  11.149 -0.0762  0.2183 -0.0452
31106W        W47240  16.391   8.147   4.246 -0.0152 -0.1362  0.0651
31107W        W47241   2.745  13.482   0.305 -0.1998  0.1774 -0.0835
31108W        W47242   0.789  18.100   4.119 -0.5568 -0.1583 -0.0796
31109W        W47243  14.790  10.180  10.454 -0.2243 -0.0786 -0.1442
31110W        W47244   5.697   1.181  11.211  0.2589  0.1378  0.2343
31111W        W47245  17.394  17.797  10.848  0.1128  0.1119 -0.3225
31112W        W47246  11.096  14.209  13.425  0.2745 -0.0804  0.0758
31113W        W47247   2.394  18.459   4.594  0.0995 -0.1556 -0.0109
31114W        W47248   7.934   7.192  15.251 -0.1363 -0.1096 -0.0053
31115W        W47249  11.026   1.798  15.197 -0.2079  0.3323 -0.1905
31116W        W47250  15.894  13.381  14.743 -0.0031  0.0671  0.0632
31117W        W47251  14.322   1.475  12.564  0.1332  0.0678  0.0133
31118W        W47252   3.894  17.709   3.713  0.1505 -0.1412 -0.1155
31119W        W47253  16.481   4.817   1.099  0.1128 -0.4171 -0.0957
31120W        W47254  14.443  12.085  12.771  0.0151  0.0631 -0.2404
31121W        W47255   5.815   3.040  14.345 -0.2919  0.3612  0.2815
31122W        W47256   7.686   5.082   1.903  0.0255 -0.0354 -0.2796
31123W        W47257   1.061  18.173  10.870  0.1275 -0.0004 -0.0168
31124W        W47258  13.232  14.130   0.603 -0.0777 -0.3106 -0.3689
31125W        W47259  16.111   9.600   4.187  0.0769 -0.2053 -0.1765
31126W        W47260  16.762  18.080   3.092 -0.2913  0.0585 -0.2995
31127W        W47261  16.179   0.694  15.149  0.2266  0.1450  0.0745
31128W        W47262  14.459   8.246   3.685  0.0914 -0.0476 -0.0165
31129W        W47263  11.999  14.672  13.579  0.3525  0.2216 -0.2223
31130W        W47264   3.944   0.603  12.932 -0.0678  0.2159  0.0777
31131W        W47265  15.829   4.282  14.021  0.1844  0.1413  0.1183
31132W        W47266  17.519   2.289   1.003  0.0184 -0.0704  0.1897
31133W        W47267  12.284   4.803   3.348  0.4017  0.0279 -0.1898
31134W        W47268   7.000   5.685  12.952 -0.0158  0.1070 -0.1310
31135W        W47269  17.366  16.444   2.055 -0.0170 -0.2755  0.3415
31136W        W47270   3.536   5.282   4.086 -0.0459 -0.1483 -0.0996
31137W        W47271   0.576   3.035  10.992 -0.0507  0.0901  0.0030
31138W        W47272   9.159   0.675  12.554  0.4058 -0.1247 -0.1246
31139W        W47273   8.138   3.620   3.000  0.1331 -0.1434  0.0509
31140W        W47274   5.647   0.134  13.302  0.2050  0.0448 -0.2628
31141W        W47275   1.557  17.526  12.107 -0.1478  0.1956  0.3113
31142W        W47276   4.419  18.574   0.315 -0.0349 -0.1664  0.3399
31143W        W47277   3.488   0.816  12.990  0.0198  0.1399  0.2849
31144W        W47278   6.675   5.909   5.641 -0.2567 -0.0491  0.3630
31145W        W47279  15.822   5.604   1.175 -0.0040 -0.2145  0.2242
31146W        W47280   8.152  13.625   0.320 -0.0863  0.5957  0.1907
31147W        W47281  10.929   4.075  13.277  0.3422  0.0171 -0.2964
31148W        W47282  18.319   1.692   3.430 -0.0578 -0.3567  0.1457
31149W        W47283   9.763   7.047   1.865  0.0914 -0.0393 -0.1038
31150W        W47284   1.453   4.126   1.653 -0.1336 -0.0330  0.0755
31151W        W47285  11.985   3.432  11.987 -0.0805 -0.3314  0.1547
31152W        W47286   9.785   8.239   3.799 -0.0405  0.0863  0.1781
31153W        W47287  15.009  18.346   2.080  0.0811 -0.2049  0.2087
31154W        W47288  10.190   4.380   3.095  0.0341  0.3905  0.0832
31155W        W47289   1.500  10.959  14.570 -0.2362  0.2212  0.0767
31156W        W47290  18.252   7.339   0.843  0.3687 -0.0382  0.1516
31157W        W47291  12.286  13.984   2.003  0.1366 -0.2724 -0.1259
31158W        W47292   0.872   3.210  12.389  0.3490  0.2535  0.2661
31159W        W47293  12.063   0.401   3.364 -0.1469 -0.1511  0.0413
31160W        W47294   8.755  17.914  10.666  0.1739  0.2796  0.0701
31161W        W47295   7.297   6.494   5.630  0.0654  0.0084 -0.2319
31162W        W47296   7.618   9.707  15.554 -0.0638 -0.1723  0.1737
31163W        W47297   0.853   0.320   0.032 -0.0414 -0.2357  0.1984
31164W        W47298  11.173   2.834   0.681 -0.1176  0.2070  0.2465
31165W        W47299  17.064   0.987   4.790 -0.2403  0.3758 -0.1973
31166W        W47300  18.142   0.142  12.684 -0.0664  0.0535 -0.1145
31167W        W47301  15.617  11.727  14.672 -0.2246 -0.0486 -0.0131
31168W        W47302  18.557  17.034  13.086 -0.2621 -0.0707 -0.1914
31169W        W47303  14.301  17.479  15.543 -0.0400  0.2501 -0.0530
31170W        W47304   5.513   8.261   2.929  0.2693  0.0734  0.1687
31171W        W47305  10.258  12.955  12.374 -0.0634 -0.1233 -0.0427
31172W        W47306  17.253   3.658   0.712 -0.1168  0.1195  0.4766
31173W        W47307  14.840  16.950   1.378 -0.0794 -0.0909  0.1122
31174W        W47308   5.910   9.850  15.255  0.1884  0.1049 -0.1210
31175W        W47309   7.578   2.827  14.471  0.0414 -0.2217  0.0075
31176W        W47310  16.798   5.690  13.235 -0.4308  0.0264 -0.1382
31177W        W47311  15.723   5.446  11.083 -0.0781  0.0419 -0.0072
31178W        W47312   2.568  11.390   2.919 -0.0621  0.0259 -0.3719
31179W        W47313   2.527  16.120  14.806  0.1046  0.2597 -0.2402
31180W        W47314   2.363  11.851  10.928  0.3049 -0.4777 -0.0367
31181W        W47315  17.615   6.011  12.527 -0.0813  0.2460 -0.1514
31182W        W47316  18.283   5.990   4.660 -0.0100  0.1730 -0.0704
31183W        W47317   2.760   8.355  15.520  0.0854  0.4269  0.0430
31184W        W47318  16.861   2.921  15.160 -0.0403 -0.0089 -0.3262
31185W        W47319   3.034  12.474   2.129  0.1569  0.0187  0.1400
31186W        W47320  17.664   5.802   0.401 -0.0215  0.3122  0.1356
31187W        W47321   0.193   9.916   1.157 -0.0562  0.1827 -0.0380
31188W        W47322   6.286   0.052   0.302 -0.0125 -0.0231  0.0283
31189W        W47323  10.607  11.803   1.272 -0.0390  0.0036  0.0020
31190W        W47324   7.280   3.593  15.100  0.2506  0.2229 -0.0493
31191W        W47325   3.483   4.449   2.981  0.0913 -0.2118  0.1448
31192W        W47326   3.095  11.632  12.359  0.0384  0.0422  0.2240
31193W        W47327   8.676  12.423  10.877 -0.5188  0.1285  0.0877
31194W        W47328   4.856   3.335   0.915  0.0545 -0.4052  0.0913
31195W        W47329  12.233  12.709   1.254 -0.3982 -0.0510  0.0895
31196W        W47330  11.254  10.978  14.466  0.0744  0.0982 -0.1528
31197W        W47331   6.579  14.509  10.843 -0.1450 -0.1001  0.4049
31198W        W47332   4.024  17.532  11.935  0.3700  0.0608  0.0005
31199W        W47333  14.750   4.932  11.818 -0.2118 -0.1165 -0.1546
31200W        W47334  13.067  13.561   1.508  0.0161 -0.0686 -0.0935
31201W        W47335   5.889   5.428   4.571  0.0276 -0.0547  0.0100
31202W        W47336   4.416  17.353   1.966 -0.1612 -0.2711  0.1804
31203W        W47337   3.062  15.649   9.730 -0.1644  0.1129  0.1075
31204W        W47338  18.051   0.222  15.131  0.2178  0.1703 -0.2030
31205W        W47339   5.985   3.438  12.108  0.3814  0.0307  0.0682
31206W        W47340  11.661  12.915  10.911 -0.1980  0.3462  0.0961
31207W        W47341   5.673  14.313  11.424  0.0299  0.1791 -0.0391
31208W        W47342   0.569  13.920   1.809  0.3458 -0.3467  0.0795
31209W        W47343  10.593  17.860   1.407 -0.0116 -0.3760  0.1765
31210W        W47344   1.695   4.487  13.792  0.3186  0.1325  0.2865
31211W        W47345  11.412   3.866  15.230 -0.0465 -0.1280 -0.0614
31212W        W47346  15.131   9.986  12.707  0.2649  0.1973 -0.0348
31213W        W47347   5.698   9.208  10.769 -0.1540  0.0161  0.1904
31214W        W47348  10.961  14.821  13.644  0.2177  0.2052  0.1604
31215W        W47349  13.647   3.152   1.519 -0.2796  0.0001  0.1694
31216W        W47350   3.893   4.959  14.633  0.1144  0.1494  0.2109
31217W        W47351  11.001  11.735  12.782  0.1069 -0.4256  0.0934
31218W        W47352   3.811   6.854   4.827 -0.0996 -0.0226  0.2735
31219W        W47353  12.909   8.651  11.961  0.0744 -0.0567 -0.1274
31220W        W47354   5.915  10.072   1.249 -0.1236 -0.1142 -0.0088
31221W        W47355   9.571  15.884  13.310  0.0651 -0.0956 -0.3873
31222W        W47356  10.790   1.179   2.134 -0.1365 -0.1843 -0.1797
31223W        W47357   3.613   8.139   4.163 -0.2719 -0.3359  0.0054
31224W        W47358   5.223  15.240  13.764 -0.1251  0.2546  0.1124
31225W        W47359   7.013   2.447  13.797  0.1351  0.2846  0.0477
31226W        W47360  11.031  14.945  14.172  0.1451  0.1827  0.1217
31227W        W47361   3.789  11.322  14.291 -0.0504 -0.0021  0.2778
31228W        W47362   9.257  16.262   2.360 -0.0765 -0.1071 -0.0820
31229W        W47363  13.872   7.877   0.739  0.4043  0.2037  0.0671
31230W        W47364   9.734  16.632   9.609 -0.1961 -0.2644 -0.0267
31231W        W47365   2.536  13.713   1.597  0.0868  0.0490 -0.1240
31232W        W47366   1.914   0.808  11.263  0.1290 -0.2065 -0.1096
31233W        W47367   3.924  13.793  13.262 -0.2393  0.1308  0.2157
31234W        W47368   0.271  12.089   4.282 -0.1999 -0.0548  0.1044
31235W        W47369   4.476  11.172  13.157  0.2300 -0.2281  0.0968
31236W        W47370  11.715   6.288   4.866 -0.2011 -0.0311  0.1844
31237W        W47371   7.363   1.135   2.968  0.1563  0.3089  0.1412
31238W        W47372  15.939   7.271  14.076 -0.0748 -0.0053 -0.0348
31239W        W47373  18.475  17.901   4.627 -0.0841 -0.0619  0.0255
31240W        W47374  17.190  18.237  13.063 -0.4248  0.0192 -0.2338
31241W        W47375  18.508  11.764   1.587  0.1645  0.2269  0.4176
31242W        W47376  14.614   0.273  15.136  0.1502  0.0359  0.2524
31243W        W47377  16.290  13.690  14.437  0.0311  0.5671 -0.2008
31244W        W47378   8.592   9.687   4.946  0.1140  0.0012 -0.0158
31245W        W47379   3.431  10.109   0.771 -0.1831 -0.0120  0.1023
31246W        W47380   6.738  15.265   0.350 -0.1838 -0.1323 -0.1717
31247W        W47381  14.221  13.839   2.203 -0.0818  0.2203  0.1796
31248W        W47382   6.727  17.168   0.174 -0.0515 -0.0585  0.0855
31249W        W47383   0.521  15.308  13.271  0.2667  0.1998  0.5075
31250W        W47384  13.891   1.683  11.600  0.0188 -0.0535 -0.1176
31251W        W47385  12.424  13.581   0.761  0.0520  0.2231 -0.1368
31252W        W47386  10.136  12.103  15.095  0.0101 -0.0089 -0.1003
31253W        W47387   0.269   3.855   0.221  0.1396  0.2488 -0.2368
31254W        W47388   5.166  12.276  14.335  0.0249 -0.3536 -0.2461
31255W        W47389  12.427   6.991   5.208 -0.0336 -0.0596 -0.2030
31256W        W47390   2.318  15.685   1.698 -0.3289  0.2361 -0.1610
31257W        W47391  13.231   6.213  12.212  0.2692  0.2980  0.2645
31258W        W47392  14.125  18.450   0.616  0.1574 -0.3135  0.1455
31259W        W47393  10.667   3.967  14.787  0.1279  0.1716  0.1481
31260W        W47394   9.408   7.443  14.171 -0.1437 -0.0610 -0.1585
31261W        W47395   5.022  16.190  12.009  0.1036  0.0391  0.2903
31262W        W47396   3.473  15.502  12.537 -0.0872 -0.0995  0.0286
31263W        W47397   4.733   6.135   0.746 -0.3456 -0.0675  0.0363
31264W        W47398  18.333  12.613  12.468  0.0668  0.0612 -0.0983
31265W        W47399  15.345  12.000   2.487  0.0773  0.1583 -0.0456
31266W        W47400  18.303  17.477   2.758  0.0312 -0.2461 -0.0568
31267W        W47401  16.186   9.041   4.155 -0.3131  0.0389 -0.0856
31268W        W47402   0.621  10.301   0.362 -0.2015 -0.0712 -0.1528
31269W        W47403  15.386   8.205   2.731 -0.1131 -0.1102  0.3784
31270W        W47404  17.141  13.488  15.548 -0.2672 -0.0118  0.0342
31271W        W47405  11.067   4.000   5.312  0.0972 -0.3427  0.2190
31272W        W47406   9.059   0.520  14.941  0.1821 -0.1049 -0.0198
31273W        W47407   7.864  15.008  12.330 -0.1717  0.1442  0.1192
31274W        W47408   2.350   8.444   3.642  0.0453 -0.1824 -0.0213
31275W        W47409  13.048   0.657  12.391  0.1997  0.4449  0.3186
31276W        W47410   6.941   2.080  11.516 -0.1586  0.2654  0.2531
31277W        W47411   6.757  17.968   5.042 -0.0394 -0.0234  0.0990
31278W        W47412  18.158  13.560   3.264  0.0169 -0.1092  0.2068
31279W        W47413   5.827   6.939   5.601  0.0430 -0.0371  0.0890
31280W        W47414  17.050   5.994   2.701  0.0974 -0.0074  0.1070
31281W        W47415  15.324   3.397   5.633  0.1733 -0.0710  0.1565
31282W        W47416   1.166   5.931  13.996  0.2096 -0.0082  0.0249
31283W        W47417  14.354  17.022   2.567  0.1475  0.0248 -0.2022
31284W        W47418   7.534   1.965   0.799  0.0916  0.1217  0.3221
31285W        W47419  14.642  10.521   3.582 -0.1770 -0.0249 -0.1375
31286W        W47420   7.387  10.616  13.078  0.0994  0.3654 -0.0096
31287W        W47421  16.317  17.276   4.938 -0.0713 -0.2349  0.0305
31288W        W47422   8.493  13.819  12.078  0.2091 -0.1369 -0.0963
31289W        W47423   2.231  14.676  13.275 -0.0059  0.2660  0.2140
31290W        W47424  14.013  12.218  12.495 -0.0757 -0.1478 -0.1704
31291W        W47425   6.567  10.663   3.822  0.2187 -0.3918 -0.1708
31292W        W47426   9.296   9.771   5.374  0.1624  0.0559  0.0165
31293W        W47427  17.246   1.310  13.209  0.1882 -0.2799  0.1047
31294W        W47428  15.442  14.796  13.250  0.1775  0.0829  0.0573
31295W        W47429   1.849   3.984   4.518  0.1873 -0.6520  0.0205
31296W        W47430   7.161  18.555  15.375  0.0348  0.1863  0.2676
31297W        W47431   8.384  10.609   0.635  0.0272 -0.1076 -0.0237
31298W        W47432   1.612   8.822   5.399  0.0694  0.0119 -0.0745
31299W        W47433   2.705  17.815  14.878 -0.1761 -0.3144 -0.0532
31300W        W47434   2.364   7.244   4.664 -0.2041 -0.3546  0.0773
31301W        W47435  12.817   0.913   1.535 -0.1088 -0.3185  0.0929
31302W        W47436  11.193  14.887   0.345 -0.1687 -0.2080  0.2394
31303W        W47437   1.101  13.330  12.063 -0.4175  0.1073 -0.1167
31304W        W47438   5.572  16.045   3.975 -0.0547 -0.2824  0.0599
31305W        W47439  14.776  12.083  14.542 -0.0123  0.3648  0.0905
31306W        W47440   4.594   2.077   5.059  0.1328 -0.0376  0.1554
31307W        W47441   6.025  10.194  14.690 -0.0018 -0.1794  0.1748
31308W        W47442  11.821   8.676   5.812 -0.1517 -0.0486  0.0480
31309W        W47443   4.597  11.704   3.383  0.1716  0.3504  0.1666
31310W        W47444   0.591  11.620   5.446  0.1405  0.0997 -0.0367
31311W        W47445   6.529  16.136   2.801  0.0775  0.1673  0.0320
31312W        W47446  16.460  12.792  14.155 -0.1956  0.1152  0.2437
31313W        W47447  14.257   6.373  11.001  0.1593 -0.1149 -0.0475
31314W        W47448   0.550  15.482  12.081  0.2315 -0.2194  0.0787
31315W        W47449  14.579   1.083   1.891 -0.1652  0.0356  0.0062
31316W        W47450  11.160  16.312   2.272  0.0897  0.1399 -0.0914
31317W        W47451   2.140   0.431  13.524  0.2691 -0.0139 -0.1951
31318W        W47452   2.031  13.665   0.413  0.2437 -0.1858 -0.0847
31319W        W47453  17.043   2.390   2.601  0.2084 -0.0214 -0.1421
31320W        W47454  12.183  11.814   0.384 -0.0806 -0.2339  0.2134
31321W        W47455  17.654   9.204  15.266  0.2469  0.3137  0.0649
31322W        W47456  16.700  17.956   4.846 -0.0520  0.1652  0.2015
31323W        W47457   1.683  18.584  11.401  0.2320 -0.0847 -0.1533
31324W        W47458  10.256   3.425  12.594  0.0271  0.0754  0.0531
31325W        W47459   6.319  17.805  12.129  0.0139 -0.1470 -0.0173
31326W        W47460   4.296   6.481   5.000  0.0538 -0.0360 -0.0190
31327W        W47461   7.274  15.080   4.919 -0.0104 -0.0702  0.2150
31328W        W47462   5.762   5.701   2.124  0.2094 -0.0830 -0.1731
31329W        W47463   2.269   1.658   2.988  0.0585  0.1764  0.0064
31330W        W47464  18.346  16.325  15.437  0.2473  0.2941 -0.0838
31331W        W47465   8.623  11.640  15.155  0.1789 -0.1123 -0.0348
31332W        W47466   0.266   1.463  14.524 -0.1994  0.3130  0.1681
31333W        W47467  17.799  10.747   4.953  0.3309 -0.0605  0.2244
31334W        W47468  15.811   1.590   1.500 -0.0066  0.1473  0.1943
31335W        W47469   2.503   7.495  12.372  0.1150  0.3303 -0.0626
31336W        W47470   0.866   1.453   4.524 -0.1508 -0.0517 -0.1675
31337W        W47471   1.780  14.920  11.479  0.2034 -0.3703 -0.1316
31338W        W47472  12.716   9.835   4.124  0.0835 -0.2960  0.0729
31339W        W47473   5.196  17.328  15.520 -0.0143 -0.1850  0.0213
31340W        W47474   3.550   2.867   2.405 -0.3993  0.1157  0.0407
31341W        W47475  14.104   9.455  10.794 -0.2437 -0.0721 -0.2529
31342W        W47476  11.460   9.889   2.236 -0.2453 -0.0019  0.0602
31343W        W47477   9.164   5.802   1.663 -0.3436 -0.1316  0.0991
31344W        W47478   9.212  17.536  13.083  0.0462  0.0337 -0.0516
31345W        W47479   7.466  12.376  14.578  0.1819  0.0283  0.1235
31346W        W47480  11.473  11.714   1.828 -0.0187  0.1188  0.0757
31347W        W47481  13.298  10.171   3.553  0.1079 -0.0016  0.0531
31348W        W47482   2.449   0.461  10.160  0.1725  0.0393 -0.0550
31349W        W47483   0.649  18.141   4.645 -0.1069 -0.0058  0.4260
31350W        W47484   2.235   3.209  12.929  0.3375  0.3001  0.1433
31351W        W47485   4.351   5.245   1.968 -0.2446 -0.0032 -0.0308
31352W        W47486   0.652  12.542  10.651 -0.0309  0.0262 -0.0718
31353W        W47487  18.702  18.328  15.250  0.2483  0.4283  0.1620
31354W        W47488  18.496   5.589  13.664 -0.1225  0.1015  0.0348
31355W        W47489   4.766   4.850   1.378 -0.1376 -0.1947 -0.0313
31356W        W47490  18.616  17.304  11.771  0.2161  0.5373  0.3000
31357W        W47491   0.243   4.136   2.445  0.1229  0.0599  0.1234
31358W        W47492   0.492  16.465  12.322  0.2624  0.2727 -0.1424
31359W        W47493   8.388   2.322   4.180  0.3809  0.0309  0.1596
31360W        W47494  11.399  11.648  13.470 -0.0638  0.0560 -0.1364
31361W        W47495   3.205  13.466   4.863 -0.0111 -0.2052  0.0085
31362W        W47496   0.440   5.684   2.031  0.2175  0.1702  0.1544
31363W        W47497  10.143   3.902  11.178  0.2334 -0.0509  0.1436
31364W        W47498  17.205   2.814  14.285  0.2340 -0.0434 -0.0661
31365W        W47499   9.913  18.633  13.485 -0.1586  0.0927 -0.1895
31366W        W47500  11.309   0.803  10.839 -0.1163 -0.1894  0.2028
31367W        W47501  17.813   4.181   3.908  0.0028 -0.0129 -0.1681
31368W        W47502  13.807   7.652   3.510  0.1270 -0.0066 -0.1915
31369W        W47503   4.632  14.143  13.014  0.1293 -0.0836  0.2362
31370W        W47504  12.985   0.601   0.697 -0.0878  0.3105 -0.1494
31371W        W47505   0.010  15.875   4.609 -0.3444  0.1299  0.0131
31372W        W47506   1.376  16.551   0.525  0.0359  0.2749  0.4018
31373W        W47507   8.370  12.115   9.730 -0.2366  0.0521  0.1107
31374W        W47508  16.722  17.944  12.750 -0.4102 -0.0461  0.1049
31375W        W47509  16.207  15.125  13.202 -0.0575  0.1941  0.2005
31376W        W47510   0.030   1.771  12.122 -0.1427 -0.0128  0.3340
31377W        W47511   1.463  10.593  10.385 -0.1752 -0.2232 -0.1066
31378W        W47512   6.991   2.613  11.705 -0.1251 -0.2495  0.0474
31379W        W47513  14.809   1.528  11.422 -0.2333 -0.1729 -0.2686
31380W        W47514   6.009  13.386   4.030  0.1741 -0.0164 -0.0661
31381W        W47515  13.065   9.535  15.400  0.0237  0.0628  0.1350
31382W        W47516  14.044  13.258   5.145  0.1655 -0.0023 -0.1463
31383W        W47517  11.532  12.701   1.887 -0.0447  0.2988 -0.2407
31384W        W47518   0.749  17.751  13.811 -0.3301 -0.2723  0.1527
31385W        W47519   4.268  11.331  14.779 -0.0836 -0.1909  0.0297
31386W        W47520  17.625   6.542   5.112  0.1584  0.0095 -0.1094
31387W        W47521   6.565  17.522  15.397 -0.1813  0.2246 -0.1800
31388W        W47522  13.948   7.546   3.981 -0.0847  0.0977  0.0875
31389W        W47523   4.439  12.278   0.866  0.0648 -0.1185 -0.2336
31390W        W47524   3.369   9.746   2.727 -0.3521 -0.0484  0.4268
31391W        W47525   0.506   7.077   5.398  0.2226  0.3294  0.1157
31392W        W47526   8.913  14.480  12.842 -0.0004 -0.0328  0.1484
31393W        W47527   5.194   3.743   3.518  0.0172  0.2059  0.2275
31394W        W47528   2.062  18.117   2.578 -0.0800 -0.0722  0.1332
31395W        W47529   0.387   4.976  12.785  0.2360 -0.2805 -0.1108
31396W        W47530  13.545   2.511  14.407 -0.1104 -0.1114 -0.3956
31397W        W47531   3.114  16.771   0.701 -0.2071  0.0830 -0.0150
31398W        W47532   4.059   0.707  14.725  0.1092 -0.1750  0.0108
31399W        W47533   9.568   8.892  13.978 -0.2202  0.0064 -0.0016
31400W        W47534  13.857   3.499  12.995 -0.4456  0.1302 -0.0161
31401W        W47535   6.273   8.565  11.607 -0.1662  0.0554  0.1281
31402W        W47536  13.292  12.284   0.097  0.2885  0.0473 -0.0536
31403W        W47537   5.687  16.305  11.558 -0.2360 -0.2414 -0.3676
31404W        W47538  15.535   2.218  11.041  0.3570 -0.0892 -0.1010
31405W        W47539  18.372   0.569  14.726  0.1912  0.0525 -0.1032
31406W        W47540   4.172  11.659   0.499 -0.0010  0.0796 -0.2419
31407W        W47541   8.497   4.396  12.281 -0.0208 -0.0358 -0.0324
31408W        W47542   1.271   9.138   5.243 -0.0115 -0.0086  0.0011
31409W        W47543   2.595  11.634  13.251 -0.1419  0.1287  0.1737
31410W        W47544  16.781   5.157   2.395 -0.1486 -0.1156 -0.1479
31411W        W47545   4.441   2.586  14.349 -0.0552 -0.1796  0.1916
31412W        W47546  13.428  13.068  11.763  0.2181 -0.0418  0.1884
31413W        W47547   8.920   2.351  11.070 -0.5564 -0.0780  0.0388
31414W        W47548   1.909  16.453   3.007 -0.4249  0.0868  0.2945
31415W        W47549  10.395   1.886   4.057  0.0421 -0.3392 -0.2020
31416W        W47550   8.373  17.516   0.059  0.0272  0.0184 -0.1314
31417W        W47551   1.491  13.806   4.637 -0.3295  0.0803  0.2169
31418W        W47552  15.161  12.453  11.966 -0.0327  0.0055 -0.0035
31419W        W47553  17.020  17.136   0.963 -0.2865  0.3823 -0.0834
31420W        W47554  12.700  14.626   1.369  0.1963  0.0949  0.5048
31421W        W47555   6.167  14.490  11.470 -0.0504  0.1676  0.1624
31422W        W47556  13.309   3.777   3.710  0.1050 -0.0208  0.1888
31423W        W47557  10.214   8.646   0.905 -0.0452 -0.1280 -0.1121
31424W        W47558  12.189   2.381   1.003 -0.0949 -0.1579 -0.0227
31425W        W47559  13.838  10.920  14.913  0.0254  0.0391 -0.0817
31426W        W47560   8.546  14.062   4.145 -0.0906  0.4052 -0.0584
31427W        W47561   6.474   1.870   3.670 -0.1825 -0.2817  0.4570
31428W        W47562   6.804  15.434  14.972 -0.0693  0.0520  0.0123
31429W        W47563  15.396  11.703  11.297 -0.1310  0.0756  0.1980
31430W        W47564  16.542   3.633  13.959  0.2172  0.0611  0.0322
31431W        W47565   3.429  13.421   1.943 -0.1494  0.1994 -0.0359
31432W        W47566   9.177  12.609  13.238 -0.2573 -0.0858 -0.1562
31433W        W47567   0.082  15.328  11.850 -0.1608  0.0154  0.1319
31434W        W47568   7.674   4.713   1.604  0.2422  0.0364  0.0745
31435W        W47569  16.087  14.751   5.899  0.0863  0.1732  0.0708
31436W        W47570   1.427   0.904  12.889  0.2458 -0.1283  0.0552
31437W        W47571  18.447   9.169  12.416  0.2373  0.2226  0.0477
31438W        W47572  18.284  12.880   2.515 -0.1604  0.0690  0.3056
31439W        W47573  14.498   7.418  13.176 -0.0505 -0.0512  0.0079
31440W        W47574   6.984   3.894  10.715 -0.1202  0.0942 -0.2581
31441W        W47575  16.158  18.650   2.537 -0.0405 -0.1422  0.0165
31442W        W47576   5.896   3.124   0.985 -0.3039  0.1086  0.2754
31443W        W47577   6.120   1.079   2.817  0.1338  0.0716 -0.0440
31444W        W47578  12.261   7.933   4.763  0.1120  0.0681 -0.1867
31445W        W47579   3.611   9.202  11.498 -0.0492 -0.0626 -0.1285
31446W        W47580   5.395   4.176  14.877  0.0740  0.0846  0.0075
31447W        W47581   8.370  18.177   3.181 -0.1885 -0.0432 -0.0381
31448W        W47582   6.010  10.627   3.797  0.1974 -0.1918 -0.1848
31449W        W47583   4.110  13.406   3.741  0.2555 -0.1659 -0.2350
31450W        W47584   7.389  14.288   0.247  0.0185 -0.2881  0.2749
31451W        W47585  14.770  11.671  13.232  0.1807  0.0014 -0.0638
31452W        W47586   9.877  17.772   2.027  0.1864  0.1109 -0.1314
31453W        W47587   7.548  14.837   3.940  0.1352  0.1503  0.0549
31454W        W47588  13.240   1.242   0.214 -0.1754 -0.0186 -0.0181
31455W        W47589   7.486   8.468   0.020  0.1789  0.0338 -0.0949
31456W        W47590   8.247   9.062   9.853  0.1510  0.2020 -0.1240
31457W        W47591   1.986  10.081   4.677 -0.3136  0.0207 -0.1025
31458W        W47592   1.434   8.486  11.372  0.3117 -0.0087  0.3428
31459W        W47593   2.299  14.147  12.977  0.1616  0.0490 -0.2132
31460W        W47594  12.416   9.421   4.134  0.0716  0.1042  0.1757
31461W        W47595   6.808   6.371  11.778  0.3117 -0.0330  0.2358
31462W        W47596   9.924   4.603  11.408 -0.2343 -0.0437 -0.2510
31463W        W47597   0.008  17.571   4.297  0.0143  0.0364 -0.0267
31464W        W47598   8.518  15.832   1.281  0.0463  0.0940  0.3379
31465W        W47599   5.792   8.226   5.016 -0.0078 -0.1413 -0.1078
31466W        W47600  17.777  16.834   1.239 -0.0120  0.0994  0.1483
31467W        W47601   7.781   2.423  13.969 -0.2420 -0.1817  0.1677
31468W        W47602  15.600  10.878  11.701  0.2214 -0.0739  0.4204
31469W        W47603   1.203   6.436  15.349  0.2716 -0.0946 -0.2275
31470W        W47604   1.505   8.308   4.765  0.1789  0.0387 -0.0819
31471W        W47605   0.938  14.710   2.446 -0.0151 -0.0780 -0.1131
31472W        W47606  10.129  17.510  12.779 -0.1269  0.2803 -0.0198
31473W        W47607  11.293   5.320   2.393 -0.3243 -0.2295 -0.1298
31474W        W47608  15.547  12.057   2.047 -0.0236 -0.4078  0.0804
31475W        W47609   0.550   6.758   3.379  0.2134 -0.2541 -0.1192
31476W        W47610  18.714   1.783  14.776  0.1236 -0.0632 -0.3543
31477W        W47611  13.838  12.122  11.737 -0.1754 -0.0188 -0.0251
31478W        W47612  17.711   4.465  14.224  0.0779  0.0144 -0.1582
31479W        W47613  16.509   9.652  11.301 -0.0904  0.1250 -0.0585
31480W        W47614   6.546  14.797  13.143  0.0175 -0.2526  0.0001
31481W        W47615   2.080   7.569  11.189 -0.2279  0.0296  0.2186
31482W        W47616   7.070   5.127  14.626  0.1734 -0.0427  0.0393
31483W        W47617  15.925   9.168  14.227  0.0238 -0.0142 -0.1242
31484W        W47618   5.535   5.386  13.531 -0.1833 -0.3891  0.0164
31485W        W47619  14.900  16.085   2.286 -0.1293 -0.0109  0.1693
31486W        W47620   2.761   2.656   2.218  0.0136  0.0049  0.0656
31487W        W47621   1.672   5.502   1.293  0.1297  0.3162 -0.1547
31488W        W47622   9.298   4.962   5.190 -0.2375 -0.2823 -0.1398
31489W        W47623  13.918  14.022   1.299 -0.0178  0.3006 -0.0465
31490W        W47624  10.917   6.734   2.614  0.0810  0.0727  0.0070
31491W        W47625   7.333   2.282   2.058  0.1633  0.1604  0.1612
31492W        W47626  10.759  11.505  10.864 -0.2843 -0.0856 -0.0402
31493W        W47627  14.377   6.147  12.172  0.1645 -0.1034  0.1535
31494W        W47628  13.663   8.533   2.847  0.0842  0.4191  0.3393
31495W        W47629  10.602   7.209   5.522  0.0968  0.2475  0.2172
31496W        W47630   9.704   2.132  14.305 -0.1759  0.0276 -0.1152
31497W        W47631   0.775   5.403  11.208  0.4931 -0.2677  0.0882
31498W        W47632   7.162   5.167  12.754  0.0377  0.0891  0.0920
31499W        W47633   2.413   3.805   2.919 -0.3680 -0.1026  0.1474
31500W        W47634   9.309   2.356  15.253  0.2610  0.1120 -0.1581
31501W        W47635  11.355   1.808  14.389  0.2837  0.1795 -0.2301
31502W        W47636   6.109   7.167   3.588  0.0033  0.0524  0.1092
31503W        W47637   6.666   1.543   1.020  0.0604 -0.0162  0.0304
31504W        W47638   9.329   2.042  10.821 -0.2276  0.1596  0.1103
31505W        W47639  16.036  15.505   4.879 -0.1031  0.0749  0.2112
31506W        W47640   3.642   4.720  12.176 -0.0858 -0.0675  0.0299
31507W        W47641   8.933   9.719   0.749 -0.0424 -0.2726 -0.0309
31508W        W47642   7.688   8.882   4.469  0.1966 -0.4269 -0.1588
31509W        W47643   0.012   9.432   6.186  0.0358  0.2058 -0.0239
31510W        W47644   1.082   8.270  13.225 -0.2709  0.0902  0.0030
31511W        W47645   0.841   7.852   4.143 -0.1764  0.3177 -0.0673
31512W        W47646   4.936  17.801   1.719  0.2325 -0.2077 -0.1606
31513W        W47647  14.010  16.770  11.585 -0.0443 -0.0437  0.2015
31514W        W47648   6.847   7.949  12.723  0.0510 -0.1350  0.1526
31515W        W47649   3.564  14.929  10.720  0.1205  0.3974 -0.0122
31516W        W47650   0.494   4.886   3.418  0.1661 -0.1092  0.2094
31517W        W47651  16.297   0.829  13.633  0.0842 -0.3174  0.1054
31518W        W47652   2.561  11.598  14.052  0.1670  0.1805  0.0982
31519W        W47653   6.569   8.045   0.115 -0.0607 -0.0016 -0.0315
31520W        W47654  16.028  10.946  10.883 -0.1468 -0.1557 -0.1605
31521W        W47655  10.207  18.100  14.521  0.2708 -0.0027 -0.1198
31522W        W47656  17.179  13.206   3.217  0.0084  0.0827  0.3099
31523W        W47657   1.198  18.623   3.941 -0.2197 -0.3414 -0.1332
31524W        W47658  16.609   1.611  11.110 -0.0012 -0.2151 -0.2897
31525W        W47659  13.356   2.351   5.354  0.1193  0.0828 -0.1125
31526W        W47660   1.720   9.161   2.265 -0.4476 -0.3353  0.1482
31527W        W47661  11.772  11.767  12.668  0.1067 -0.0190  0.1043
31528W        W47662  16.595  16.918   4.637 -0.0357  0.1032  0.3218
31529W        W47663   6.273  17.590   4.962 -0.0671 -0.1360 -0.1991
31530W        W47664  17.249  16.220   5.776 -0.0184 -0.0074 -0.0561
31531W        W47665  11.003  15.095   2.152  0.0389  0.0482  0.4516
31532W        W47666  10.905  17.070   0.741  0.1112  0.1394  0.2097
31533W        W47667  13.651   4.849   5.359  0.0541  0.1635 -0.1154
31534W        W47668   1.572  15.552   2.884  0.2991 -0.1015 -0.1896
31535W        W47669   9.049   4.101  14.644  0.4227  0.3740  0.1431
31536W        W47670  12.292   7.458   4.796  0.0180  0.0491 -0.1839
31537W        W47671   5.209   3.867   0.742 -0.0532 -0.0730 -0.0319
31538W        W47672  12.300   8.098  13.839  0.2237 -0.0920 -0.1247
31539W        W47673   7.344  16.209   2.300 -0.4155  0.1992  0.2173
31540W        W47674   9.716  18.261   1.188 -0.1762 -0.0790  0.1515
31541W        W47675  15.027   2.371  15.538 -0.0045  0.1596  0.1528
31542W        W47676   0.564   5.798   0.501  0.2954  0.2473 -0.1371
31543W        W47677  17.153   5.391  10.958 -0.0097 -0.1557 -0.0492
31544W        W47678   8.140   9.668  15.358  0.2006 -0.1555  0.0080
31545W        W47679  13.594  17.743  15.418  0.2039 -0.5317  0.0721
31546W        W47680  15.267  11.751  11.787 -0.0764 -0.3796  0.0861
31547W        W47681  15.435  16.236   5.649  0.2898  0.0769 -0.0434
31548W        W47682  12.657   5.717  11.136  0.1792 -0.0947  0.0712
31549W        W47683   5.451  12.110  14.670  0.0950  0.1014  0.1629
31550W        W47684   3.908   6.727   2.951 -0.1931  0.2533 -0.2626
31551W        W47685  15.560  15.395  14.559 -0.2725  0.1800 -0.1575
31552W        W47686  18.374  17.028  13.595 -0.1906  0.2620 -0.0983
31553W        W47687   8.505  11.891   1.849 -0.1823  0.1814 -0.2756
31554W        W47688   8.322   4.495   4.611  0.2798 -0.0868 -0.4409
31555W        W47689   1.770   1.101  12.519  0.4194 -0.0283  0.0909
31556W        W47690   2.556  17.565  12.370 -0.0314  0.0846  0.3383
31557W        W47691  10.651   0.741  13.803 -0.1636  0.1503  0.2237
31558W        W47692   0.987   7.187  13.571 -0.4747 -0.4104  0.3060
31559W        W47693  13.699  17.201   5.014 -0.0414  0.0247  0.1825
31560W        W47694  11.403  10.372   1.328 -0.1818  0.1464 -0.1001
31561W        W47695   6.832  16.329  13.937  0.0837  0.1555  0.0351
31562W        W47696   8.053   4.181   0.444 -0.0642 -0.2369 -0.1270
31563W        W47697  12.308   1.215   3.410 -0.0404  0.0173 -0.0114
31564W        W47698   3.017   4.080  14.278  0.2151 -0.0715  0.2851
31565W        W47699  13.512  12.705   1.940 -0.2274 -0.1159  0.4345
31566W        W47700  18.455  11.432  13.030 -0.0161 -0.0505 -0.1335
31567W        W47701  16.762  16.205   5.778  0.1502 -0.0087 -0.2467
31568W        W47702   1.204  11.167  13.648 -0.4552 -0.0575 -0.0450
31569W        W47703   8.544   6.413  11.183 -0.1565 -0.0327  0.0934
31570W        W47704   6.466   0.990   1.318  0.1470  0.1036  0.1421
31571W        W47705   4.086  16.100  11.969 -0.2795 -0.0402 -0.0037
31572W        W47706   2.759  12.958   2.033  0.0884  0.1274  0.2022
31573W        W47707   0.058  17.494  10.851  0.2529 -0.2878  0.0682
31574W        W47708  17.899  12.466  15.460  0.0355  0.1321  0.1645
31575W        W47709   2.459  13.224   3.679 -0.1468  0.3463  0.2377
31576W        W47710  16.565   1.789  12.078  0.0005  0.3498 -0.1533
31577W        W47711   0.453  13.031  14.077  0.1974  0.1511 -0.2781
31578W        W47712   5.081  10.349  10.580 -0.0433 -0.0535 -0.1010
31579W        W47713  13.712   9.476  14.271  0.3162  0.1972  0.0143
31580W        W47714   5.989   6.518   4.298  0.1751 -0.0627 -0.0261
31581W        W47715   3.843   7.070  12.060  0.1656 -0.0510  0.1633
31582W        W47716   3.491   6.175   2.415  0.0425  0.0729 -0.0089
31583W        W47717  11.724   7.751  13.788 -0.2264  0.0165 -0.2898
31584W        W47718  11.485  12.065   3.372 -0.0684  0.1846 -0.0303
31585W        W47719   6.773   5.098  11.773 -0.0779  0.1904  0.1016
31586W        W47720   9.382   9.152   2.488  0.2565  0.1071  0.1585
31587W        W47721  15.361  14.504   4.706  0.1172  0.0809  0.2964
31588W        W47722  15.145  15.511  15.272 -0.1645  0.0355 -0.1549
31589W        W47723   2.845   7.085   1.213 -0.0721  0.0396 -0.4454
31590W        W47724   6.722  13.622  13.070 -0.0564 -0.0786  0.0406
31591W        W47725   3.332   9.248   0.518 -0.1451 -0.2081 -0.1690
31592W        W47726   2.473   4.686  11.607 -0.1475 -0.0549  0.4122
31593W        W47727   3.266  16.100   1.695  0.2613 -0.0485  0.0781
31594W        W47728   9.674   5.328  15.111 -0.0832  0.4342  0.0574
31595W        W47729  12.187   7.034   0.302  0.1654 -0.0474  0.2086
31596W        W47730   6.688  17.704   0.335 -0.4822  0.2746  0.0337
31597W        W47731  11.679  10.683   1.677  0.0022  0.0167 -0.2528
31598W        W47732   0.686  10.199   1.209 -0.0771 -0.0514 -0.3022
31599W        W47733   8.931   8.470   4.338  0.4624 -0.3540 -0.1947
31600W        W47734   0.717  16.389  11.738 -0.2689 -0.0682  0.1349
31601W        W47735  10.617   1.156   1.667 -0.1073  0.1247  0.0833
31602W        W47736   5.379  11.203   2.261 -0.1213  0.2106 -0.2991
31603W        W47737   0.049   9.718   2.779  0.1684  0.1181 -0.0198
31604W        W47738   4.085  13.027   5.235  0.0721 -0.0752  0.1195
31605W        W47739  14.822   6.946  13.855 -0.0650  0.2217 -0.0437
31606W        W47740  15.798  14.132   5.320  0.1502 -0.2822 -0.0458
31607W        W47741  13.050  11.793  13.362  0.3328  0.0637 -0.0351
31608W        W47742  11.916   7.314  13.067  0.3150 -0.2538 -0.0895
31609W        W47743   9.946   8.639   3.536 -0.3434 -0.0725 -0.0353
31610W        W47744  10.214  15.562   1.402  0.1143 -0.0081  0.0142
31611W        W47745  12.757   6.602  15.343  0.2189 -0.0279  0.3172
31612W        W47746   4.405   2.724  12.588  0.0327 -0.0012 -0.1338
31613W        W47747  13.435  15.317  14.829 -0.0584 -0.2089  0.3123
31614W        W47748   2.901   4.166  14.744 -0.1854 -0.1300 -0.3129
31615W        W47749  12.711   4.857   5.089  0.1206  0.2891 -0.0884
31616W        W47750   7.153  17.597   1.874 -0.1667 -0.0467  0.0013
31617W        W47751  14.357   2.170   0.469  0.2756  0.0301 -0.2073
31618W        W47752   9.202   9.557   0.279 -0.0313  0.0985 -0.0957
31619W        W47753   2.134  15.128   1.642 -0.0364  0.0214  0.0028
31620W        W47754  18.697   7.160   1.749  0.0102 -0.1802  0.0979
31621W        W47755   4.853  15.301   2.687  0.1558  0.1545 -0.1521
31622W        W47756  12.550  10.302  15.337 -0.1301 -0.1657  0.3744
31623W        W47757   5.654   8.655   1.130 -0.0413 -0.1280  0.0726
31624W        W47758  12.657  15.845  14.877 -0.1008 -0.1607 -0.1439
31625W        W47759   7.014  18.363  14.519  0.1905 -0.1236  0.2166
31626W        W47760   1.813   2.228  11.107 -0.0482  0.1114  0.1728
31627W        W47761   4.350  10.405  14.872 -0.0398 -0.0202 -0.4204
31628W        W47762   9.533   5.804  13.590 -0.0602  0.0004 -0.0203
31629W        W47763  14.306  13.820  15.303 -0.2680  0.0208 -0.0228
31630W        W47764  16.255   5.422  11.281  0.0949  0.0928 -0.0294
31631W        W47765  12.976  14.516  14.774 -0.1842 -0.2149 -0.0054
31632W        W47766   3.381   3.018  15.016 -0.2284 -0.1364 -0.0963
31633W        W47767   1.199  14.097   2.896 -0.0885 -0.0145  0.0492
31634W        W47768  15.505  14.043   4.900 -0.1286  0.0016 -0.2333
31635W        W47769  14.277  16.293   5.284  0.4364  0.0477  0.2760
31636W        W47770  17.264  17.566   3.789  0.0271 -0.0802  0.3254
31637W        W47771  15.762   2.950  10.439 -0.0498  0.1262 -0.1282
31638W        W47772   4.416   9.255  11.771 -0.1300 -0.0544  0.2380
31639W        W47773   0.079   2.211   0.229 -0.0999  0.4150 -0.1438
31640W        W47774   3.177  15.492  12.982  0.2324 -0.2657 -0.2410
31641W        W47775   4.793   8.692   1.228 -0.0154  0.1500  0.2490
31642W        W47776  18.453   5.829   0.375 -0.0009  0.3469 -0.0922
31643W        W47777  18.043  12.047  13.842  0.0939  0.0539  0.1487
31644W        W47778   8.519   7.883   4.609 -0.1966 -0.2073  0.1687
31645W        W47779  10.911  16.547  11.145 -0.3477  0.2035 -0.0507
31646W        W47780   6.964  11.794   0.575  0.3019 -0.1971  0.1826
31647W        W47781   1.231  17.961   1.027  0.0831 -0.1196  0.2512
31648W        W47782   9.955   8.345   4.482  0.1758  0.0544 -0.0642
31649W        W47783  11.534   8.662   5.127 -0.0868  0.1839  0.0997
31650W        W47784  11.419  14.273   1.553  0.0585 -0.1088  0.2896
31651W        W47785  11.478   0.437   4.077  0.2212 -0.1168  0.0221
31652W        W47786   0.871   3.776   2.235 -0.2015  0.0792 -0.0366
31653W        W47787  16.244   4.376  14.353 -0.2151  0.0171  0.3098
31654W        W47788   6.996  10.771   1.602 -0.0768  0.2243  0.1156
31655W        W47789  10.912   2.180   1.291 -0.0722 -0.1730  0.2400
31656W        W47790   6.676   0.206  13.805 -0.2345 -0.1156  0.1226
31657W        W47791   9.113   8.240  12.237 -0.3348 -0.0618  0.0754
31658W        W47792   9.614   3.832   1.410 -0.1533 -0.3752  0.1210
31659W        W47793   9.651  11.432   2.139  0.2195  0.0635 -0.2671
31660W        W47794  13.557  15.773  12.176  0.0972 -0.0439  0.1476
31661W        W47795  12.209   6.240   1.116 -0.1979 -0.1911 -0.1225
31662W        W47796  17.076  13.136  13.098  0.0684 -0.0278  0.1636
31663W        W47797   2.008   3.858   1.597  0.1106  0.1562 -0.1754
31664W        W47798   4.203   2.182   3.053 -0.1486  0.0645 -0.0039
31665W        W47799  12.127  16.207   2.213 -0.2735  0.1550 -0.1197
31666W        W47800   2.936   9.943   4.674 -0.1629  0.2544 -0.1246
31667W        W47801  15.126   5.904  13.873  0.0934 -0.1644  0.1519
31668W        W47802   9.159  17.465   4.643  0.1918 -0.0093 -0.1785
31669W        W47803  15.013  14.184   4.827  0.2197 -0.0031 -0.1878
31670W        W47804   6.038  13.108  15.551  0.1791 -0.1174  0.1399
31671W        W47805  11.041   0.231  12.608 -0.1018  0.1013 -0.0754
31672W        W47806  16.311  18.155   2.411  0.1703  0.0857  0.4063
31673W        W47807  14.544   3.473  11.670  0.3104  0.0798  0.1476
31674W        W47808  16.072   2.515  13.580  0.1057 -0.1176 -0.1928
31675W        W47809   3.462   7.738  15.009  0.0499  0.1810  0.0121
31676W        W47810  10.841   2.339  11.312  0.2256 -0.3707 -0.0306
31677W        W47811  13.409  17.355   3.853 -0.1619 -0.0408  0.0291
31678W        W47812  18.088   5.263  13.668  0.0569 -0.0722  0.1001
31679W        W47813   9.066  14.663  13.846  0.1686 -0.3809 -0.3864
31680W        W47814   2.940  18.335  14.327 -0.3781 -0.2233  0.1258
31681W        W47815  11.246   5.627  10.941  0.0859  0.0522 -0.1779
31682W        W47816  12.214  14.530   1.332  0.0696  0.4037  0.1005
31683W        W47817  13.828   0.256   0.091  0.0449  0.2006 -0.0734
31684W        W47818  11.570   2.712  11.319  0.3026 -0.1758  0.1067
31685W        W47819  13.912  17.550   3.801  0.0628 -0.1044 -0.2469
31686W        W47820  16.451   5.386   1.194 -0.1917  0.0617 -0.0508
31687W        W47821  12.922  16.775  11.165  0.0847  0.1240 -0.0849
31688W        W47822  12.373  15.422   3.715  0.0373  0.1185  0.2102
31689W        W47823   9.228  18.160  13.160  0.2674  0.2923 -0.0546
31690W        W47824   1.603   9.241  14.175 -0.1677  0.2189  0.1040
31691W        W47825   5.903  13.252   0.487 -0.2474  0.0691 -0.1274
31692W        W47826   8.307   8.292  15.454  0.0289 -0.0149 -0.2024
31693W        W47827  10.930  12.858   3.233  0.0823 -0.2209 -0.3691
31694W        W47828   9.270  15.038  14.744 -0.0159  0.2977  0.3032
31695W        W47829   6.245   1.397  13.743 -0.0137 -0.2830  0.2857
31696W        W47830  16.004   8.584  14.965 -0.1585  0.1257  0.4531
31697W        W47831   4.900   7.462   4.791 -0.0436 -0.2739 -0.2861
31698W        W47832   1.390   3.225   0.495 -0.2832 -0.0199 -0.0485
31699W        W47833  16.057   4.093   2.681 -0.4625  0.3671 -0.0068
31700W        W47834   1.545   1.690   6.176 -0.0234  0.1946  0.5357
31701W        W47835   4.966  10.278   2.431 -0.1501 -0.1245  0.0471
31702W        W47836   1.241   0.612  15.536  0.0925 -0.0645  0.0167
31703W        W47837   8.846   2.260   1.808  0.1664 -0.3619  0.0205
31704W        W47838   2.313   5.871   4.754  0.1983 -0.1242 -0.1757
31705W        W47839  12.866   6.435  14.479 -0.1009  0.0359  0.1229
31706W        W47840  14.353   9.878  12.220  0.3521  0.0582 -0.2182
31707W        W47841   3.889  14.324  13.320 -0.0187 -0.0307 -0.0177
31708W        W47842   4.746  18.209   2.028  0.1588  0.1925  0.1691
31709W        W47843  14.536   2.967   0.504 -0.0285 -0.2407 -0.0731
31710W        W47844   7.223  16.282  13.027  0.0268  0.0313  0.3689
31711W        W47845  10.128  16.619  13.512  0.1599 -0.0971  0.1417
31712W        W47846   1.687   9.086   4.378 -0.0385 -0.3091 -0.4201
31713W        W47847   7.547   5.700   4.796 -0.2460  0.1294 -0.0592
31714W        W47848  15.199   8.566  13.585  0.0083  0.0804 -0.1476
31715W        W47849   3.186  14.717  11.243 -0.0926 -0.4339  0.0251
31716W        W47850   9.136  12.936   3.133 -0.1723 -0.0751 -0.1642
31717W        W47851   9.026  15.685  10.366 -0.2658  0.1486 -0.0494
31718W        W47852  18.195   4.878  11.585  0.1903 -0.1093 -0.0237
31719W        W47853   0.991  17.899   4.934 -0.4332 -0.0201  0.3059
31720W        W47854   0.930   1.764  12.526  0.1369  0.0830  0.2159
31721W        W47855  18.239   6.354   1.210 -0.0257  0.2160 -0.0879
31722W        W47856  10.403  10.027   0.618  0.1916  0.1920 -0.0818
31723W        W47857  14.849   0.927   2.812 -0.0476 -0.0288 -0.1267
31724W        W47858  12.643   9.358  10.083 -0.0168 -0.0533  0.1025
31725W        W47859   6.975  10.530  15.443 -0.3318  0.0533  0.1679
31726W        W47860   0.380  18.406   1.173  0.0622 -0.0648 -0.2813
31727W        W47861   6.764   5.113  13.048 -0.1284  0.1496  0.0048
31728W        W47862   8.683  16.569  12.449 -0.1563  0.0258  0.4532
31729W        W47863   5.367   1.431  10.907  0.4022  0.0251  0.0175
31730W        W47864  16.972   8.775  12.215  0.1439 -0.3769  0.4648
31731W        W47865  11.928   3.745   2.299 -0.1031  0.2022  0.0087
31732W        W47866  12.680  18.365  15.127  0.1778  0.1981  0.2127
31733W        W47867  14.734   5.590  15.578  0.3320  0.2568 -0.2844
31734W        W47868   2.556  16.352   2.499 -0.1154  0.3739  0.0450
31735W        W47869  13.917  12.670  14.677 -0.2682 -0.0487  0.3821
31736W        W47870  16.393   4.721   3.393 -0.1536 -0.1652 -0.0184
31737W        W47871  10.508  17.166  12.690  0.1361  0.0688 -0.0893
31738W        W47872  10.769   5.754  10.943 -0.0109  0.2768 -0.2511
31739W        W47873   5.751   2.568  15.101 -0.1742 -0.0199 -0.0512
31740W        W47874   1.534   0.751   2.248 -0.1065  0.0922  0.1041
31741W        W47875  10.730   8.127   0.258 -0.2479 -0.0495 -0.2456
31742W        W47876   5.580  14.038  14.095 -0.2806 -0.0849  0.0941
31743W        W47877   3.302   4.633   1.136  0.0652  0.2260 -0.0184
31744W        W47878  11.135  16.972  11.488 -0.2503  0.2740  0.1940
31745W        W47879  12.484  11.160   3.469 -0.1067 -0.2311  0.1053
31746W        W47880   5.634   7.437  13.442 -0.0419  0.0019  0.0067
31747W        W47881   0.102  10.366   1.854  0.2307 -0.0799 -0.2389
31748W        W47882  13.757  12.630  13.437  0.1053  0.4798  0.1606
31749W        W47883   9.942   5.608   3.288 -0.1585 -0.0070  0.1152
31750W        W47884  10.810   5.139  15.050  0.2281  0.0070 -0.0735
31751W        W47885   9.608   0.754  12.271 -0.2196 -0.0466  0.2173
31752W        W47886   8.233   1.451   3.321  0.0661  0.1301  0.2513
31753W        W47887   3.659   4.109   3.838 -0.3219  0.0303  0.0632
31754W        W47888   3.382  16.665   4.535  0.1460  0.0307 -0.0157
31755W        W47889   6.026   2.173   2.128 -0.0944 -0.2274 -0.1193
31756W        W47890   2.792  13.510   1.158  0.0485 -0.0311  0.2528
31757W        W47891  17.204  17.673  13.601 -0.0632 -0.0081  0.0610
31758W        W47892   8.029   1.426   4.004  0.0279 -0.1016  0.2534
31759W        W47893   3.218   9.342   1.845  0.2079  0.0358 -0.2072
31760W        W47894  11.395   3.418  15.049 -0.0729  0.1722  0.1666
31761W        W47895  18.338  18.592  11.663  0.0174  0.1633  0.1871
31762W        W47896  15.666  15.905  14.711 -0.4704 -0.1060 -0.0362
31763W        W47897  13.893   2.500  11.764  0.1539  0.3890 -0.1698
31764W        W47898   1.483  15.785  12.460  0.1037  0.1844  0.3259
31765W        W47899   4.439   9.562  13.226  0.2588  0.1970 -0.1549
31766W        W47900  17.963   6.456   0.005 -0.0349  0.3050  0.3986
31767W        W47901   9.231   3.508   2.514 -0.0827  0.3566  0.2479
31768W        W47902  16.870  16.061   4.799 -0.2525  0.0198  0.2107
31769W        W47903  13.700  15.286  10.134 -0.2605  0.3950 -0.0027
31770W        W47904   7.404   0.379   3.788  0.0353 -0.0662  0.0629
31771W        W47905  11.195  13.703   2.917  0.3453  0.0671  0.0930
31772W        W47906  13.623  14.148  11.321  0.0053 -0.0961  0.5077
31773W        W47907  12.665   2.006  13.032 -0.0760  0.2506  0.0824
31774W        W47908  14.867   7.527   4.965  0.0725  0.2349  0.4394
31775W        W47909   6.734   6.720   4.092 -0.0049 -0.1784  0.0541
31776W        W47910   7.519   9.851  12.121 -0.0520 -0.0103  0.2781
31777W        W47911  14.285  16.308   4.482 -0.1740 -0.0222 -0.0098
31778W        W47912   6.139   9.466   3.021  0.3599  0.0522  0.1946
31779W        W47913   9.413   7.701  14.623 -0.4053  0.0326  0.0401
31780W        W47914   6.683   7.037   1.244  0.3205  0.1461  0.0891
31781W        W47915   1.594  16.257  14.717  0.2680  0.1053  0.2521
31782W        W47916  13.443   1.294  11.555 -0.0800 -0.3053  0.0942
31783W        W47917  18.352  11.670   6.118 -0.1750 -0.1735  0.3508
31784W        W47918  16.991   1.408  12.792 -0.0230 -0.0361 -0.1531
31785W        W47919  14.215   3.076   4.184 -0.1021  0.0694  0.1806
31786W        W47920   5.359   1.416  12.837 -0.2539 -0.0823 -0.3442
31787W        W47921  12.029   1.308  12.838 -0.2190  0.0102  0.0633
31788W        W47922  12.060   5.653   1.054  0.0969  0.0718  0.3482
31789W        W47923  13.454   1.578  12.592  0.0388 -0.0104 -0.1754
31790W        W47924  10.514   3.846   1.640  0.0164  0.2627  0.1502
31791W        W47925   6.348   7.200  11.124  0.0233 -0.0344  0.1919
31792W        W47926   5.491   2.816  15.556 -0.1223 -0.0632 -0.0947
31793W        W47927   4.561   7.547   2.755  0.0564 -0.2320 -0.3399
31794W        W47928  18.430  15.409  15.246 -0.0699 -0.0549 -0.3050
31795W        W47929  10.299  16.046   1.288  0.1401  0.1328  0.1205
31796W        W47930   5.989  14.755   2.189 -0.2100  0.1180  0.0626
31797W        W47931  15.422  14.946   5.288  0.0309 -0.2004 -0.0795
31798W        W47932  17.712  11.197  10.597 -0.1458  0.0232  0.1096
31799W        W47933   9.708   7.822   4.229 -0.1311 -0.0098  0.3718
31800W        W47934  10.931   7.069  14.990  0.3701 -0.3447  0.0075
31801W        W47935  16.056  10.694  11.798 -0.0319 -0.1437  0.0727
31802W        W47936   8.090   9.577   0.291  0.1344  0.2422 -0.0703
31803W        W47937  12.216   6.877   2.455  0.1776  0.2459 -0.0442
31804W        W47938   3.499   3.660  13.423  0.3001  0.1524 -0.3275
31805W        W47939   2.334  14.483   5.433  0.1816  0.1396 -0.1978
31806W        W47940  16.985  13.953  12.415 -0.1469 -0.0603 -0.1248
31807W        W47941   4.639   8.227  12.668 -0.3932 -0.2364 -0.1891
31808W        W47942  16.510  18.141  15.283  0.2312  0.2716 -0.1707
31809W        W47943  18.196  17.281  11.446 -0.0577 -0.1523 -0.3207
31810W        W47944  17.185  11.132  11.788 -0.1723  0.0025 -0.1603
31811W        W47945   1.188   7.557  15.355  0.0008  0.0465 -0.0201
31812W        W47946   7.101   9.777  10.345 -0.0437 -0.0997 -0.1670
31813W        W47947  10.316  14.414   1.470 -0.1964  0.0823  0.1098
31814W        W47948  18.442  17.891  10.818 -0.1472  0.2004  0.0304
31815W        W47949   8.612   2.697   4.989  0.1742  0.0403 -0.1995
31816W        W47950   5.966   7.422   9.923  0.0079  0.1473  0.0353
31817W        W47951  12.466   5.221   3.167  0.0585  0.0717  0.2318
31818W        W47952   7.098  13.635  13.754 -0.2263 -0.2079  0.0967
31819W        W47953  15.993   3.261   5.106  0.0835  0.0889  0.1450
31820W        W47954  15.909   7.871   4.720  0.0776 -0.1159 -0.2431
31821W        W47955   9.201  15.288   3.806 -0.0804 -0.1765  0.1340
31822W        W47956   1.984  10.097  11.755  0.2472  0.0129  0.1199
31823W        W47957  11.726  13.157  13.915  0.0851  0.0355  0.0578
31824W        W47958  14.128  15.851   9.556  0.3778  0.1169  0.1899
31825W        W47959   0.739  11.085  15.335 -0.2480 -0.0872  0.1027
31826W        W47960   8.208   0.614   3.290  0.1683  0.0677 -0.0755
31827W        W47961   8.266   8.830  11.378  0.0166  0.0727  0.0526
31828W        W47962  17.465  14.642  14.321 -0.0532  0.2362  0.0541
31829W        W47963  15.298   1.922   4.692 -0.1908 -0.0121 -0.2246
31830W        W47964  17.659  16.487  13.209  0.3432  0.0117  0.0276
31831W        W47965  11.642   4.791   0.726  0.0640 -0.1119 -0.0947
31832W        W47966  12.315  16.701   2.306  0.2948  0.1214  0.0383
31833W        W47967   7.618  12.377  10.758  0.0235  0.1591 -0.1725
31834W        W47968   9.918   8.789  11.234  0.2616  0.0363  0.0183
31835W        W47969  11.843   7.222   0.682  0.3057 -0.0567  0.1313
31836W        W47970   1.095  10.233  10.644  0.1435 -0.2152 -0.0301
31837W        W47971   1.451   5.111  11.683 -0.0604  0.1715  0.0030
31838W        W47972  14.707  13.376   3.663 -0.0419 -0.3566  0.1878
31839W        W47973   7.614   4.979  13.123  0.3702 -0.1744  0.1804
31840W        W47974  10.765   4.505  14.483  0.0166 -0.1894 -0.0161
31841W        W47975  17.163   4.773   1.745  0.1075 -0.1451  0.3555
31842W        W47976  14.552  15.205   3.753 -0.0791 -0.0271 -0.2278
31843W        W47977  14.972   6.634  14.918  0.1502 -0.2011 -0.0537
31844W        W47978  14.575  13.887  12.070  0.1262  0.0084  0.2639
31845W        W47979   2.521   8.798   1.062 -0.1600 -0.3931  0.0599
31846W        W47980  14.915   5.247   1.392  0.0451 -0.1762 -0.1617
31847W        W47981  11.929   2.426  12.241 -0.1355 -0.1276 -0.0917
31848W        W47982  17.321   0.964   1.043 -0.1973 -0.1193  0.0659
31849W        W47983   5.027   3.475  11.495  0.2005  0.0283  0.0495
31850W        W47984   0.736   2.658   1.812 -0.1691 -0.0214  0.0493
31851W        W47985   7.071  18.346   5.965 -0.0903 -0.1996 -0.0174
31852W        W47986   9.636   6.338   2.891  0.3446  0.0166  0.0434
31853W        W47987   4.983  18.180  15.219 -0.1731  0.1315 -0.1237
31854W        W47988   5.417   6.485   6.082 -0.1720  0.1176 -0.2644
31855W        W47989   4.305   0.184  12.876 -0.0920  0.3331  0.0212
31856W        W47990   6.874  15.798  11.699 -0.2876  0.1056  0.4192
31857W        W47991   0.234  16.368   4.674 -0.0471  0.0437  0.4851
31858W        W47992  13.162  16.496  10.698 -0.0149  0.1273 -0.2538
31859W        W47993  11.955   8.919   2.816  0.1613 -0.0688  0.0492
31860W        W47994  12.634   3.667   0.113 -0.1661 -0.2237  0.1284
31861W        W47995  15.143   4.710  10.824  0.3559 -0.1573  0.0648
31862W        W47996   9.524   7.678   3.748  0.0454 -0.0236 -0.3178
31863W        W47997  10.379  11.896  14.340  0.1099 -0.3079 -0.1656
31864W        W47998  18.415  13.047  12.184 -0.0093 -0.1541 -0.1746
31865W        W47999   8.167   3.452   1.657  0.2263 -0.2382  0.1439
31866W        W48000  15.787   5.284   2.727 -0.0231  0.0383 -0.1690
31867W        W48001   8.175  17.621  14.819 -0.0932 -0.1286  0.0583
31868W        W48002  10.742   4.840  11.457  0.3230  0.0958  0.2212
31869W        W48003   0.912   3.021   0.476 -0.2452 -0.1305 -0.1067
31870W        W48004  12.659   6.554  12.815 -0.1258 -0.0574  0.2491
31871W        W48005   2.811  16.767   1.134  0.0508  0.1753 -0.2184
31872W        W48006   6.707  10.045   2.720 -0.0968 -0.4943 -0.4368
31873W        W48007   2.982  11.522   2.459  0.3169  0.0499 -0.1566
31874W        W48008   6.559  13.954   0.046 -0.3904 -0.0797 -0.2917
31875W        W48009   5.660  11.352  11.365  0.0517  0.0856  0.1928
31876W        W48010  16.530   2.904   4.166 -0.2712  0.1718 -0.0273
31877W        W48011   1.700   4.037  14.211  0.0236 -0.4200  0.1047
31878W        W48012   4.722   4.693   3.980  0.2262  0.0162  0.1443
31879W        W48013   9.420   6.453  11.919 -0.0735  0.1743 -0.0614
31880W        W48014   4.157  15.133  15.285  0.1065 -0.0734 -0.1284
31881W        W48015  14.588  16.446   1.361 -0.0503 -0.0687  0.0998
31882W        W48016  12.463  14.768  13.743  0.0338  0.0854 -0.0320
31883W        W48017  17.165   1.291   3.554 -0.2330  0.0434  0.0185
31884W        W48018  10.336   0.464  12.089 -0.0644  0.2285  0.1494
31885W        W48019  12.872   8.407  11.551  0.0351  0.1187  0.1039
31886W        W48020   8.314   0.095   4.615 -0.3246  0.0437 -0.0973
31887W        W48021  16.368   1.396   2.231 -0.2227  0.1153 -0.1037
31888W        W48022   6.981  11.581  10.592  0.0969 -0.0669  0.0259
31889W        W48023  10.479   9.911  11.963 -0.0816  0.0436 -0.1659
31890W        W48024   1.954  15.687   0.316  0.3467 -0.2481  0.3015
31891W        W48025  13.721  10.906  10.708 -0.0905  0.1519  0.1086
31892W        W48026  14.265  11.380  11.882 -0.1229  0.2834 -0.0443
31893W        W48027   3.042  15.332   3.779 -0.0713 -0.0065 -0.1048
31894W        W48028  14.970   8.733   1.273 -0.1437 -0.2450  0.1672
31895W        W48029   2.597   7.839  13.186  0.1797  0.2205  0.0652
31896W        W48030  17.647  11.405   0.390  0.1942 -0.2917  0.2550
31897W        W48031  11.126   8.489   2.243  0.0734  0.0943 -0.0991
31898W        W48032  10.943  17.310   3.055 -0.0772 -0.1275 -0.3322
31899W        W48033   0.234  12.633   0.228  0.0909  0.4725  0.0992
31900W        W48034   1.627   8.801  12.061 -0.0376 -0.1604 -0.1568
31901W        W48035   6.157   5.361   1.975 -0.1654 -0.0537  0.2216
31902W        W48036   9.209  13.795  15.078 -0.1772  0.1336 -0.2051
31903W        W48037   3.401  17.713   1.867 -0.1868  0.2370 -0.1946
31904W        W48038   3.852  14.402   2.980 -0.1521  0.0485  0.0190
31905W        W48039  10.065  15.156   1.044 -0.1312 -0.1896  0.0397
31906W        W48040   4.244  14.027  11.894 -0.1500 -0.0554  0.1285
31907W        W48041   0.398   3.564  13.877 -0.5078  0.3502 -0.0192
31908W        W48042   3.577   2.745  12.966 -0.0260  0.0594  0.0315
31909W        W48043  12.048   7.275   1.128  0.0309 -0.0284 -0.0872
31910W        W48044   8.125   4.892   3.334 -0.1765 -0.1607  0.1249
31911W        W48045  16.534  16.670   2.787 -0.5039 -0.0638  0.0726
31912W        W48046  12.644  13.425  12.980 -0.0355  0.1235  0.0138
31913W        W48047   0.119  15.190   0.512 -0.0217  0.2158  0.2287
31914W        W48048  12.116   2.923   4.269  0.3366  0.1868  0.0703
31915W        W48049  15.486  15.288  14.063 -0.1188  0.1586 -0.1095
31916W        W48050  18.666  17.307  10.326  0.0444  0.3306 -0.2387
31917W        W48051   4.866   7.456  15.282 -0.2519 -0.0803 -0.1673
31918W        W48052   3.980  14.831  11.903 -0.2162 -0.0985  0.2567
31919W        W48053   3.267  15.959   3.192  0.1013  0.1779 -0.0130
31920W        W48054   4.271   6.089  12.210 -0.0224 -0.0497  0.3027
31921W        W48055  18.632   9.319  11.959  0.1689  0.0813  0.0150
31922W        W48056   2.401  12.745  10.930  0.0414 -0.2237  0.0960
31923W        W48057   0.461  14.747   5.728  0.0680 -0.1463 -0.1272
31924W        W48058  14.381   3.897   0.575  0.1532  0.0362  0.2377
31925W        W48059  10.050   0.392   2.601  0.0550  0.4761 -0.1266
31926W        W48060   8.664   9.941  13.327  0.1387 -0.1583  0.1970
31927W        W48061   4.571   9.806  13.705 -0.1180 -0.1178  0.2210
31928W        W48062  11.686  15.869  12.317 -0.1290 -0.2672  0.3831
31929W        W48063  17.226   9.767   0.840 -0.1894  0.1254 -0.1477
31930W        W48064   7.603   8.905   3.934 -0.1092 -0.0160 -0.2261
31931W        W48065   4.073  11.737   4.896  0.0704  0.0776  0.2621
31932W        W48066  10.690  10.248   5.089 -0.0494  0.1542 -0.1380
31933W        W48067   1.065   2.862   1.506  0.3037 -0.4149  0.2009
31934W        W48068  11.580   4.066   3.970 -0.1209  0.2565  0.3711
31935W        W48069   0.880  14.654  14.654  0.3308  0.3906  0.4813
31936W        W48070   5.755   1.952  12.271  0.4392 -0.3021  0.3435
31937W        W48071   6.944   8.034  11.271 -0.0097 -0.0244  0.1917
31938W        W48072  11.840   3.917  10.984  0.1429 -0.0325  0.1197
31939W        W48073  17.665   1.523   4.295 -0.1176  0.1098 -0.2116
31940W        W48074   1.682   7.461  14.029 -0.0256 -0.0364  0.1676
31941W        W48075  11.331  12.567   2.341  0.0676 -0.1562 -0.2850
31942W        W48076   1.637   6.472  11.679 -0.1665  0.3012 -0.2728
31943W        W48077   7.588  12.868   3.692 -0.0385  0.1154 -0.1657
31944W        W48078   2.508  17.921   4.683 -0.0561  0.0487 -0.1828
31945W        W48079  13.491  17.015  12.530 -0.0794  0.4634 -0.1052
31946W        W48080  14.145  10.406  14.200  0.0442 -0.1346 -0.0047
31947W        W48081  13.928  17.675   2.780 -0.1032 -0.4123  0.0335
31948W        W48082  16.867  11.081   0.203 -0.0347 -0.5243  0.1522
31949W        W48083   9.516   9.223   5.208 -0.3924  0.1159 -0.1719
31950W        W48084  13.668   9.089   2.371  0.1429 -0.0722 -0.0480
31951W        W48085  16.675   5.082  15.287  0.2366 -0.3118  0.1336
31952W        W48086   7.655   6.241   4.370 -0.1962 -0.0196  0.0317
31953W        W48087   0.736  14.873   1.989 -0.0011  0.3842  0.3865
31954W        W48088   9.725  10.608   0.917  0.1838  0.2552  0.1287
31955W        W48089   3.945  12.698   3.466  0.1202 -0.0836 -0.2157
31956W        W48090  13.121  13.982  14.318 -0.0023 -0.1914  0.4081
31957W        W48091  10.683   4.796  12.117  0.0990  0.1470  0.0171
31958W        W48092  17.667   3.146  12.270 -0.1145  0.0006 -0.3504
31959W        W48093  17.897   5.529   4.088  0.2210 -0.0771 -0.0277
31960W        W48094   2.634  17.286  14.722 -0.0271 -0.0642  0.1502
31961W        W48095   1.454  12.715  14.084  0.1315 -0.1587  0.1538
31962W        W48096   4.880  11.309   4.669  0.0910  0.0162 -0.0751
31963W        W48097   0.509   0.787  11.379  0.2197  0.0599 -0.1614
31964W        W48098   8.093   0.558  14.100 -0.0165 -0.3494  0.1967
31965W        W48099  14.873  10.966   2.077 -0.0806  0.0152 -0.1938
31966W        W48100   8.498   4.236   1.380  0.3335  0.3886 -0.0013
31967W        W48101   1.376  10.702   5.353 -0.0612  0.3566  0.2072
31968W        W48102  16.401   9.992   5.861  0.0393  0.0559  0.3906
31969W        W48103  17.409  17.719  15.519 -0.0480  0.0252  0.1401
31970W        W48104   2.481  12.309   4.172  0.1317 -0.0866  0.1596
31971W        W48105  12.087   2.959  12.215  0.0078 -0.1263 -0.5848
31972W        W48106  15.289  13.053  11.042  0.0745  0.1195 -0.0534
31973W        W48107   1.161  12.045   4.521 -0.2251 -0.0121 -0.0285
31974W        W48108   5.895  14.000   1.311 -0.0072  0.1531 -0.2062
31975W        W48109   0.903   7.546   3.662  0.4117 -0.1203  0.0487
31976W        W48110   5.746  16.874  11.308 -0.2314  0.1134  0.2011
31977W        W48111  13.721   9.645  11.066  0.2736  0.0559  0.1367
31978W        W48112  12.377   2.881  10.824 -0.0012 -0.1021  0.0661
31979W        W48113  16.808   9.504   4.732  0.4853  0.1360 -0.2232
31980W        W48114   9.977   6.438   0.291  0.1112 -0.1015 -0.0043
31981W        W48115  11.347   7.489   2.248 -0.2195  0.2331 -0.1349
31982W        W48116  18.270   0.022   2.711  0.1489  0.2395  0.1051
31983W        W48117   4.258   4.844   3.060 -0.4558 -0.0849 -0.0900
31984W        W48118   8.554   2.385  12.564  0.0202 -0.0831 -0.1037
31985W        W48119  11.316  12.822  13.960  0.0996  0.1007  0.0089
31986W        W48120   7.348   4.290   3.530  0.1097 -0.0621  0.0608
31987W        W48121   5.854   9.578  14.261  0.3138  0.1205 -0.0810
31988W        W48122   7.446   3.686  12.524  0.0384 -0.0522 -0.0237
31989W        W48123   1.159   0.455   0.450  0.1523 -0.0551  0.0383
31990W        W48124  11.827   5.539  15.046  0.1092 -0.0831 -0.0141
31991W        W48125  10.396  11.189  14.029 -0.0708 -0.2980  0.0923
31992W        W48126  17.349  16.982  15.056 -0.3397  0.2255  0.5265
31993W        W48127  13.001  16.247   0.794  0.1276 -0.1988 -0.0963
31994W        W48128   8.073   6.211   0.949  0.2068  0.1854  0.0489
31995W        W48129   2.734  15.613  11.596 -0.2936 -0.0340 -0.1870
31996W        W48130  13.534  10.727   5.063  0.0376  0.0009  0.1365
31997W        W48131  11.978  16.776   2.671  0.0277  0.0549 -0.2783
31998W        W48132   6.708   7.566   2.598 -0.0692  0.1492  0.2794
31999W        W48133  14.640   7.599   4.396 -0.1989  0.2588 -0.0623
32000W        W48134  15.582   5.513   1.880 -0.3212 -0.2071  0.2096
32001W        W48135  12.255  16.635   4.017 -0.2265  0.1806  0.0945
32002W        W48136   8.832   7.064   4.753 -0.2000 -0.1302 -0.0464
32003W        W48137  17.306   2.635  14.859  0.0932  0.0645 -0.6141
32004W        W48138   9.720   6.429   4.796 -0.2510 -0.0246  0.0352
32005W        W48139   6.408  18.608   1.712  0.1646 -0.0290  0.0653
32006W        W48140   2.926   1.716   4.613 -0.0301 -0.1570 -0.0027
32007W        W48141   0.702   8.088   0.176 -0.5418  0.0480 -0.1802
32008W        W48142  16.058   6.019  15.258 -0.0285  0.1411  0.0827
32009W        W48143  10.658  12.441   4.525 -0.1839  0.0730  0.1063
32010W        W48144  16.579   5.028   5.068  0.0886 -0.0167 -0.2167
32011W        W48145   5.444   4.636   0.191 -0.1781 -0.0341 -0.2897
32012W        W48146  15.684  18.468  11.198 -0.0761  0.2761 -0.0162
32013W        W48147   3.847   8.786   5.063  0.2129 -0.1252  0.4444
32014W        W48148   1.750  13.258   3.592 -0.3934  0.0269  0.1427
32015W        W48149   8.778   1.372   4.165 -0.0035  0.5664 -0.0299
32016W        W48150   4.483   2.894   4.380 -0.1973 -0.0382 -0.1127
32017W        W48151  11.264  14.356   1.103 -0.1082 -0.1495  0.5086
32018W        W48152  12.112  15.542   1.862 -0.2069 -0.0640 -0.0483
32019W        W48153   4.075   2.890   2.247 -0.0028 -0.0197  0.3109
32020W        W48154   0.103   7.169   3.109 -0.3036 -0.2073 -0.0976
32021W        W48155   6.550   4.420   4.132 -0.0493  0.0246 -0.0945
32022W        W48156  17.924  16.570   1.720 -0.1874 -0.2933  0.2204
32023W        W48157   0.953  12.210  14.642 -0.2248 -0.0314 -0.1056
32024W        W48158  13.814  14.688   4.249 -0.0813  0.2350  0.2830
32025W        W48159   8.445   9.103  11.856  0.0259  0.0293 -0.4134
32026W        W48160   9.202   4.852  11.874 -0.2434 -0.1260  0.0112
32027W        W48161   0.399  16.389  13.914  0.0094 -0.2719 -0.0827
32028W        W48162   2.865   7.250   3.046  0.1006  0.0684  0.1059
32029W        W48163  13.234  12.795   3.279  0.0140  0.4026 -0.2742
32030W        W48164  13.899  12.020   0.758  0.1724  0.1057  0.0350
32031W        W48165  11.270   1.529  14.827 -0.0739  0.0863 -0.3328
32032W        W48166  14.724   4.447   1.262 -0.1088  0.2153 -0.0410
32033W        W48167   4.810  15.544   5.712  0.1770  0.0108  0.2022
32034W        W48168  13.041  15.321  11.483  0.2921  0.0123  0.5524
32035W        W48169   7.934  11.021   5.633 -0.2673 -0.1538 -0.0679
32036W        W48170   5.152  10.709  14.436  0.0563 -0.0193 -0.2450
32037W        W48171  15.782  18.059   5.011  0.4771 -0.0945 -0.2210
32038W        W48172   3.285  11.450   0.719  0.3462  0.1371  0.0280
32039W        W48173  11.751   6.198  14.362 -0.1163 -0.0145  0.2759
32040W        W48174   0.410  12.793   1.279 -0.0499 -0.1785 -0.0754
32041W        W48175  18.328  15.384  12.382 -0.3605  0.1828 -0.2787
32042W        W48176  13.920   5.130   9.919 -0.2476  0.1429 -0.1003
32043W        W48177  13.928   9.339   4.511 -0.1440  0.2941 -0.0458
32044W        W48178  11.063   6.562  15.379  0.1262  0.2600  0.1344
32045W        W48179   9.317  13.845   4.415 -0.0726 -0.0281  0.1002
32046W        W48180   8.837  14.555  10.063 -0.2112 -0.0700  0.0636
32047W        W48181   4.675   4.388  11.582  0.2508  0.1199  0.0049
32048W        W48182  14.177   3.911   4.087 -0.1678  0.3582 -0.0573
32049W        W48183  12.160   1.958   3.676 -0.1133  0.0240 -0.3749
32050W        W48184  16.216   4.408  14.885 -0.1270 -0.1666  0.1953
32051W        W48185   9.768   9.195   2.847  0.1319  0.2239 -0.0170
32052W        W48186   1.756  18.020  12.036 -0.1933  0.0420 -0.1813
32053W        W48187   2.318  10.896   1.542  0.4375  0.4116  0.0687
32054W        W48188   3.349   3.877   2.346  0.1380 -0.1686  0.1067
32055W        W48189  15.521  13.604  14.059  0.2917 -0.1750  0.1587
32056W        W48190   4.166   4.771   1.890  0.3778 -0.0786  0.1178
32057W        W48191  15.509  16.481  14.779  0.1444  0.1035 -0.0867
32058W        W48192   2.950   4.747   0.846 -0.0606 -0.2832 -0.1102
32059W        W48193  11.321  10.690   0.080  0.0421  0.3024 -0.1399
32060W        W48194  11.044   7.079  11.425  0.0439  0.2581 -0.1124
32061W        W48195   9.958   8.657   1.501 -0.3263  0.1854  0.1257
32062W        W48196   8.444  16.989  15.521 -0.1873  0.0610 -0.2612
32063W        W48197   5.436   9.966   2.900  0.2211 -0.2715 -0.1373
32064W        W48198   7.949   0.761  10.750 -0.1236 -0.1730 -0.0616
32065W        W48199   9.667  12.572  13.385  0.1223 -0.0381  0.1522
32066W        W48200   9.785  10.386   2.908 -0.0798 -0.3931  0.2144
32067W        W48201   6.616   2.969  14.490 -0.2642  0.2804  0.1689
32068W        W48202   6.761   8.171   9.864  0.1400 -0.1202 -0.0601
32069W        W48203  15.315  18.004   0.280  0.0210 -0.3117  0.1135
32070W        W48204   3.005  13.047   3.616 -0.2002 -0.0870 -0.0135
32071W        W48205   8.520   3.927   0.618  0.1506  0.0308  0.0859
32072W        W48206   8.357   1.806   4.166  0.1192 -0.1066  0.1778
32073W        W48207  12.846   6.188   3.139  0.0187  0.0218  0.1023
32074W        W48208   9.575   6.809   2.798 -0.1248  0.1730 -0.1538
32075W        W48209  16.324  15.564   2.270 -0.1732 -0.1723  0.1799
32076W        W48210   6.744  13.663   0.969  0.1194 -0.1076 -0.1160
32077W        W48211   5.522  17.817  12.486 -0.0777  0.1448  0.0695
32078W        W48212   4.135  15.200   4.074 -0.1894  0.0696 -0.0399
32079W        W48213  12.856  12.504   3.259 -0.0083  0.1400  0.4374
32080W        W48214  12.962   5.505  15.509 -0.0331  0.0468 -0.1348
32081W        W48215   6.728   6.191  13.201  0.0657  0.1178  0.0340
32082W        W48216  18.348   9.880   3.725 -0.2672 -0.0817  0.0258
32083W        W48217   0.643   0.032   0.336 -0.1690  0.1578 -0.1065
32084W        W48218  12.634  11.358   0.035  0.1124 -0.0761 -0.1967
32085W        W48219   5.006  11.456   2.997  0.1844  0.0318 -0.0090
32086W        W48220  12.100   2.728  12.842  0.0693  0.0751 -0.2089
32087W        W48221  11.275   0.944  13.920 -0.6301 -0.2196  0.0947
32088W        W48222   5.082   3.363   3.885  0.0666 -0.4399 -0.2245
32089W        W48223  11.012   4.364   3.569  0.1743 -0.1871 -0.0363
32090W        W48224   2.531  15.550   0.767 -0.1081 -0.0485 -0.0870
32091W        W48225  16.196  14.006  11.080 -0.0692  0.0625  0.0678
32092W        W48226   8.712   9.953   2.569  0.4244  0.1339  0.1724
32093W        W48227   5.851   8.802  11.126  0.0464  0.0608  0.0595
32094W        W48228  17.310   7.658   0.774 -0.2453 -0.2025  0.3224
32095W        W48229   8.694  17.345  13.022  0.0764  0.0779 -0.0871
32096W        W48230   4.807  10.383  11.941  0.2728 -0.0283 -0.0242
32097W        W48231  16.663   9.947  13.702  0.1876  0.0390  0.0682
32098W        W48232  14.836  11.890  13.717  0.0438 -0.3989  0.1972
32099W        W48233  17.861   9.162   0.524  0.0752  0.1583 -0.0096
32100W        W48234   0.233  15.125   2.899 -0.3632  0.3990 -0.1223
32101W        W48235  11.937   1.867   0.289  0.0550 -0.0222 -0.2130
32102W        W48236   1.748   7.013   5.783  0.3470  0.4065 -0.1791
32103W        W48237   9.139  15.111   1.528  0.0491 -0.0197 -0.2032
32104W        W48238  16.098  13.407  15.339  0.0300  0.1162 -0.1480
32105W        W48239   0.720   7.497  14.352  0.0957  0.0521  0.0125
32106W        W48240  17.948  12.969   1.507  0.0179 -0.0397 -0.0875
32107W        W48241   5.383  11.503  12.841  0.1242 -0.0693  0.3549
32108W        W48242   7.760   7.509  11.257  0.3539  0.0958 -0.1090
32109W        W48243   9.062  12.797  11.241  0.0320  0.1547 -0.1683
32110W        W48244  12.753   1.333   4.180  0.0227  0.0043 -0.2341
32111W        W48245   5.826   6.159   5.265 -0.1948  0.1650  0.0807
32112W        W48246  17.659   4.740  10.573  0.3251 -0.1033 -0.0785
32113W        W48247   9.164   4.507  15.045  0.2704 -0.2373 -0.2647
32114W        W48248  13.355  18.492  11.385 -0.1439 -0.0121  0.2324
32115W        W48249   0.026   2.821   3.872 -0.0303  0.2955 -0.1818
32116W        W48250  15.938   6.919   4.892  0.0865  0.0016 -0.1097
32117W        W48251   7.930  17.605  15.359  0.2109  0.0495  0.0606
32118W        W48252   0.372  11.411   0.027 -0.0202  0.1532 -0.3820
32119W        W48253   7.082   2.720  14.748  0.2692 -0.1862 -0.0769
32120W        W48254  12.875  17.542   1.194 -0.0275 -0.0861  0.0464
32121W        W48255   2.218   7.074  14.616  0.0273 -0.0512 -0.2173
32122W        W48256  10.642   5.922   0.156  0.1592  0.1854  0.3333
32123W        W48257  12.442  14.958   2.782 -0.3317  0.2075 -0.0204
32124W        W48258  13.025  12.021  10.500  0.2913  0.0557  0.3889
32125W        W48259   1.948  17.022   3.108  0.1693 -0.0710 -0.1506
32126W        W48260   3.664   3.799  11.123 -0.0859 -0.2269  0.0065
32127W        W48261  11.702  12.192   0.377 -0.0854  0.0011  0.1110
32128W        W48262  10.354   5.279   1.927  0.1532 -0.1657  0.1095
32129W        W48263   2.456   4.933  13.413  0.0460 -0.1126 -0.1623
32130W        W48264   3.658   3.965  15.052 -0.0861 -0.1042  0.2007
32131W        W48265   9.330  13.659   2.644  0.1033  0.5056 -0.1235
32132W        W48266   1.976  17.828  12.531  0.0182  0.3368  0.1528
32133W        W48267   1.208  18.437   1.076 -0.3585  0.1129 -0.0105
32134W        W48268  13.953   9.481   5.334 -0.0313  0.2080 -0.1340
32135W        W48269   0.063   5.869   4.670 -0.5205  0.1089 -0.0776
32136W        W48270   4.271   0.460  13.335  0.0517  0.1396 -0.1369
32137W        W48271  12.053   6.964   5.570 -0.0557 -0.0632  0.2864
32138W        W48272  13.952  16.685   4.479 -0.1779  0.0110 -0.1226
32139W        W48273  17.359   8.832  11.715 -0.0867 -0.0174  0.0145
32140W        W48274  12.861  17.216  13.890  0.1694  0.1954  0.0572
32141W        W48275  10.743   9.167  15.406  0.1171  0.0589 -0.1352
32142W        W48276   9.537  16.266   4.061 -0.2534  0.2103 -0.1901
32143W        W48277   1.620  15.709   3.440 -0.0572  0.3192 -0.1285
32144W        W48278   6.470  13.640  13.499 -0.0498 -0.3221 -0.0635
32145W        W48279   0.482  15.287   5.440  0.1384  0.1406 -0.1606
32146W        W48280  10.061  17.754   3.694  0.1194  0.0861  0.0696
32147W        W48281  15.123   2.507   5.720 -0.0296 -0.0698  0.0474
32148W        W48282   2.688  14.896  11.173 -0.4170 -0.3509 -0.2411
32149W        W48283   5.300   2.288   1.138  0.1320  0.0053 -0.1264
32150W        W48284  15.701   8.008  10.699  0.2534  0.2675  0.0873
32151W        W48285   9.854  15.705   0.039 -0.0608 -0.1933  0.0560
32152W        W48286  13.425  12.502  11.790  0.1514 -0.1364 -0.0986
32153W        W48287  16.250  15.069  14.694 -0.2087 -0.2101  0.1932
32154W        W48288  13.768  11.359  14.011 -0.0362  0.1890 -0.1259
32155W        W48289   2.254   0.351   4.105 -0.3078 -0.0136  0.0460
32156W        W48290   3.622   1.789  10.416 -0.2987 -0.1148  0.0123
32157W        W48291   6.706  10.681   1.226  0.1384  0.2474  0.1580
32158W        W48292   3.224  13.692  11.479 -0.0633 -0.3250 -0.1119
32159W        W48293  17.302  16.234  14.068 -0.0065  0.0931 -0.1385
32160W        W48294   8.382   4.373   0.027 -0.1294  0.0260  0.4389
32161W        W48295   6.288  11.038   2.040  0.2300  0.2161 -0.2400
32162W        W48296   6.674   1.156   4.951 -0.2424 -0.0740 -0.2686
32163W        W48297   9.565   4.167   0.414 -0.0864 -0.1967 -0.2445
32164W        W48298   0.301  13.715   4.324  0.0156  0.1665  0.1596
32165W        W48299  10.228  12.354   0.598  0.0995  0.1247  0.2655
32166W        W48300  15.372  10.202  12.229 -0.0817 -0.1852 -0.1071
32167W        W48301   8.195   3.715   2.494  0.1644 -0.0688 -0.0802
32168W        W48302  14.402   4.037   4.748  0.2445  0.0631  0.0986
32169W        W48303   0.553   5.621  13.582  0.1435  0.0286 -0.0036
32170W        W48304   9.165   4.689  10.808 -0.1567 -0.0032  0.0460
32171W        W48305   3.385   1.944  15.567 -0.1512  0.1295  0.1391
32172W        W48306   8.116   8.706   4.674  0.1721 -0.0294 -0.3220
32173W        W48307  16.853   0.426   5.486  0.2949 -0.3348  0.1082
32174W        W48308  15.365   6.004   1.999 -0.1261  0.2449 -0.1472
32175W        W48309  14.204  11.146  10.928  0.0836  0.2358 -0.2017
32176W        W48310   9.976   0.281   1.714 -0.3380  0.2138 -0.2889
32177W        W48311   9.483   6.193  15.129 -0.1281 -0.1999  0.1059
32178W        W48312  14.399  13.427   0.094 -0.4925 -0.0728 -0.2979
32179W        W48313  17.325  14.184   2.762  0.1119  0.0896 -0.0855
32180W        W48314   8.612  14.159  14.885 -0.1169  0.2211  0.0709
32181W        W48315   2.835  16.293   0.916 -0.2065 -0.0143  0.4911
32182W        W48316  18.632   7.918   4.622  0.2441 -0.1742 -0.1901
32183W        W48317   7.342   0.757   5.333 -0.1967  0.2071 -0.0458
32184W        W48318  18.084   3.811   1.927 -0.0945  0.3253  0.1336
32185W        W48319   2.949   6.358   4.527  0.2333  0.0296 -0.2063
32186W        W48320   1.729  12.787   3.385  0.0528  0.0627  0.1217
32187W        W48321   2.922  13.439   1.730  0.0197  0.1774 -0.0094
32188W        W48322   4.456   3.822  12.777 -0.1059 -0.3640  0.0457
32189W        W48323  13.580  18.262   2.704  0.1228 -0.1291 -0.2756
32190W        W48324  16.664   2.158  12.898 -0.0171  0.1330  0.3997
32191W        W48325  11.355  12.861  12.473 -0.1520  0.0421  0.2886
32192W        W48326   8.231  13.392  11.415 -0.3210  0.0733  0.0338
32193W        W48327   5.309  15.471   1.561  0.0215  0.0241  0.0090
32194W        W48328   7.476   7.206  12.173 -0.2063 -0.0446  0.0783
32195W        W48329   7.548  12.113   1.659  0.0086  0.1363  0.1460
32196W        W48330  11.445  18.294   1.958 -0.2434  0.1931 -0.1491
32197W        W48331  13.548   2.145  11.924 -0.0048 -0.2001 -0.1252
32198W        W48332   6.085  15.421   3.671  0.1550  0.1709  0.0939
32199W        W48333   5.348   8.124   2.351  0.2492  0.0941 -0.1964
32200W        W48334  14.082  11.628   0.430  0.3091 -0.1047  0.0741
32201W        W48335   0.830  13.650  12.335 -0.1199 -0.0439 -0.2815
32202W        W48336   9.699   7.712   0.240 -0.0404 -0.0914 -0.0536
32203W        W48337  17.373   1.710   1.931 -0.1049  0.1509  0.1920
32204W        W48338   3.572  11.337   4.113 -0.3583  0.1092 -0.2064
32205W        W48339   3.513   2.419  11.120  0.0387 -0.0616 -0.0648
32206W        W48340   3.207   0.753  14.920 -0.0861 -0.0055  0.1271
32207W        W48341  13.910  16.394   3.181 -0.1207  0.4699  0.0596
32208W        W48342   2.062   4.240  15.263  0.4863  0.2683 -0.0027
32209W        W48343   9.172  18.149   2.572 -0.0355 -0.1153  0.2116
32210W        W48344   0.955  10.865   5.141  0.1507  0.2535  0.0910
32211W        W48345  10.200   3.378   3.082  0.3110  0.0944 -0.0522
32212W        W48346   2.639  12.719   3.573 -0.0868 -0.1012  0.0382
32213W        W48347  17.476  14.088  12.514 -0.1408 -0.2122 -0.0334
32214W        W48348  17.924   4.656  11.063 -0.0187  0.1833 -0.1215
32215W        W48349   3.071   2.128   4.294 -0.3708 -0.2176 -0.1724
32216W        W48350   2.072   4.312   2.610  0.1638 -0.0197  0.0796
32217W        W48351   8.487  11.109   4.599 -0.1275  0.0785 -0.3456
32218W        W48352  13.673   6.962  12.523  0.2186  0.1505 -0.1667
32219W        W48353  12.198  12.174  11.998  0.1612 -0.0158 -0.2934
32220W        W48354   3.457  12.564  14.099 -0.2670 -0.1376  0.0531
32221W        W48355  12.760  11.780  12.799  0.1702 -0.1994 -0.1316
32222W        W48356  18.349   8.778   4.472  0.0300 -0.0434 -0.0850
32223W        W48357  15.406  13.751   4.219 -0.1616 -0.0843 -0.0795
32224W        W48358  10.059   2.330   2.789 -0.0388  0.1056  0.1644
32225W        W48359   1.833   3.190   5.099  0.1601 -0.1562  0.2172
32226W        W48360  16.127   4.706  13.863  0.0566 -0.2119 -0.1194
32227W        W48361  16.651  10.828  13.273  0.0969  0.2332 -0.0680
32228W        W48362   8.309   7.401   0.265 -0.1862 -0.1558  0.1510
32229W        W48363  11.503   8.816   1.606 -0.0214 -0.0022  0.0945
32230W        W48364  17.463  10.340  15.271 -0.1116 -0.0506  0.2601
32231W        W48365   0.171   6.219  13.042 -0.1424 -0.0621 -0.2656
32232W        W48366  17.610   1.624  14.222 -0.3462  0.1962 -0.2246
32233W        W48367  17.747  16.849  14.315 -0.0666 -0.4456 -0.2550
32234W        W48368   7.355   8.707   3.527 -0.0893 -0.0512 -0.2915
32235W        W48369  11.800   0.073  14.616 -0.2750 -0.0014 -0.2794
32236W        W48370   2.110   2.453   1.850 -0.1664 -0.2074  0.3916
32237W        W48371   5.959   9.212   0.786  0.2030  0.0565 -0.1824
32238W        W48372   6.482  17.353  14.896 -0.0894  0.0158 -0.1559
32239W        W48373   9.906   0.454   3.158 -0.1726 -0.0051 -0.0439
32240W        W48374   6.665  12.691  13.146 -0.1288 -0.0674  0.0813
32241W        W48375  16.324   8.138  12.920 -0.0177 -0.1037  0.1886
32242W        W48376   5.701   4.984   2.010 -0.2906  0.0097  0.1625
32243W        W48377   5.960   0.634  15.396  0.1269  0.1259  0.0616
32244W        W48378   1.534   0.387  14.669  0.0711  0.4053 -0.3214
32245W        W48379   2.594   4.122  15.136 -0.1366 -0.1108  0.0479
32246W        W48380   7.545  10.913   5.314 -0.0611 -0.2353 -0.0155
32247W        W48381  18.515   0.768   0.218 -0.1171  0.0768 -0.0341
32248W        W48382   8.020   1.771  14.634  0.1084  0.3414  0.0038
32249W        W48383   6.936   2.106  12.753  0.0271  0.1220 -0.0562
32250W        W48384   3.558   3.904   5.848  0.0981  0.1775  0.0945
32251W        W48385  14.680   2.364   1.368  0.0436 -0.3305  0.1392
32252W        W48386   4.617   1.520  13.271  0.1992 -0.0723 -0.3961
32253W        W48387  14.329   5.616   1.995  0.1908  0.0132 -0.1310
32254W        W48388  12.563   7.501   3.558  0.0986  0.0229 -0.0560
32255W        W48389  15.160  16.582  10.266  0.1256  0.2374  0.1870
32256W        W48390  15.369   3.385   0.864 -0.1219 -0.0664  0.2039
32257W        W48391  13.826   2.120   0.463  0.0488  0.0383  0.1029
32258W        W48392   7.439  18.631   5.655 -0.0629 -0.1727 -0.1371
32259W        W48393  15.878   9.440  13.749 -0.3086  0.0338  0.0556
32260W        W48394   9.973   3.892   5.850 -0.1041 -0.0914  0.0554
32261W        W48395  17.808   7.896   1.614  0.2007  0.1272 -0.2515
32262W        W48396  14.854   8.407  13.231  0.0205 -0.1045 -0.1484
32263W        W48397  12.171  16.260  10.912 -0.0464  0.2805 -0.0296
32264W        W48398   2.076   2.693   5.029 -0.2306  0.1948  0.1539
32265W        W48399   1.864  14.178   3.852 -0.0052  0.3631 -0.0712
32266W        W48400   6.944  12.844   2.070  0.1518  0.1428 -0.1027
32267W        W48401   4.293  13.860   3.776  0.2298  0.0838 -0.1575
32268W        W48402  18.224  16.822   9.870 -0.2138 -0.1200  0.1335
32269W        W48403   7.442   0.215   1.896 -0.1696  0.1364  0.0772
32270W        W48404  17.529   9.702  12.763  0.1004 -0.1486 -0.3684
32271W        W48405   3.053  17.565   2.227 -0.2761 -0.4104 -0.0129
32272W        W48406   5.629  18.537   3.703  0.2333  0.0306  0.0688
32273W        W48407   7.663   7.643   3.217  0.0063 -0.1043  0.2550
32274W        W48408   9.767  15.367   1.482 -0.3607  0.0845 -0.3589
32275W        W48409   9.034   9.706   3.859  0.1704  0.0697 -0.0069
32276W        W48410   3.709  17.915  15.482  0.0069 -0.2346  0.3419
32277W        W48411   3.422   2.753   5.449  0.3666  0.1097 -0.0300
32278W        W48412  17.118  14.430  11.656  0.0103  0.1574 -0.2082
32279W        W48413   1.641   3.029  10.806  0.0259 -0.1516 -0.0577
32280W        W48414   1.999  17.325  10.911 -0.0008 -0.1489 -0.0269
32281W        W48415   3.609   4.648   1.911 -0.2716 -0.0180  0.4254
32282W        W48416   5.148   4.649   3.719 -0.0691  0.1841 -0.0391
32283W        W48417  12.413  17.646  10.871  0.0523  0.1784  0.1080
32284W        W48418  10.757  16.330  10.368  0.0195 -0.1443 -0.0103
32285W        W48419  15.214   8.225  14.426  0.3735  0.0098 -0.0086
32286W        W48420   0.393  18.126   5.923  0.1707 -0.0875  0.1572
32287W        W48421   7.623   7.930  14.062  0.1468  0.0156  0.1090
32288W        W48422   2.952   9.318   5.429  0.3982  0.1231  0.1475
32289W        W48423   5.558   2.352  10.852  0.0576 -0.1095  0.1221
32290W        W48424   7.750  10.464   2.702  0.1056 -0.1974 -0.0794
32291W        W48425  11.729   4.163   4.974 -0.0325  0.0580 -0.0101
32292W        W48426   4.205  18.211   4.494  0.0260  0.4291  0.0134
32293W        W48427   5.216   6.773   0.343 -0.1196 -0.0512 -0.1696
32294W        W48428   7.453  15.718   2.637  0.3445 -0.3270 -0.0119
32295W        W48429   0.602   9.687  10.824  0.1958 -0.3718 -0.3215
32296W        W48430  11.365  15.700   1.393 -0.2890  0.1261  0.0495
32297W        W48431  11.474  15.352  12.312 -0.1714 -0.0664  0.1912
32298W        W48432   3.857  18.578   1.533 -0.3725  0.1633 -0.0684
32299W        W48433   7.778   0.660  15.149 -0.3168  0.1229 -0.1626
32300W        W48434   3.307   9.622   5.410 -0.1933 -0.2639  0.0126
32301W        W48435  16.408   2.424   3.997 -0.0047 -0.0257  0.2444
32302W        W48436  13.420  17.296  10.286  0.1171 -0.1534 -0.1432
32303W        W48437   4.688  17.913   3.084 -0.0887  0.0636  0.3399
32304W        W48438   4.013   3.309  10.209  0.1363 -0.0429  0.1926
32305W        W48439  12.481   3.931  13.447 -0.0152  0.1823  0.0740
32306W        W48440  18.293  16.661   2.454 -0.1019  0.1644 -0.0637
32307W        W48441   3.816   3.874   2.118 -0.1109  0.0847  0.0387
32308W        W48442  10.624   0.053  10.937 -0.0060 -0.0093 -0.3040
32309W        W48443   2.558  14.618   2.884  0.4927  0.1013 -0.3627
32310W        W48444  14.079  16.491   2.642 -0.3842  0.1374 -0.3814
32311W        W48445  14.946  14.833  13.354  0.2243 -0.0949  0.1091
32312W        W48446  13.076  18.002  15.107  0.0892 -0.0473  0.1311
32313W        W48447  10.890   3.483  13.459 -0.1675 -0.0021 -0.0376
32314W        W48448  17.000   9.824  14.122  0.2014 -0.4245 -0.0537
32315W        W48449   8.210  16.679   0.238 -0.0187 -0.1274 -0.3665
32316W        W48450   0.860   6.776   4.080 -0.0776  0.1750  0.1164
32317W        W48451   6.209  16.789   4.182  0.0357  0.0114 -0.1488
32318W        W48452  17.786  18.627  12.980  0.2018 -0.0357  0.1160
32319W        W48453   2.914  18.001   2.834 -0.0498  0.1527  0.0942
32320W        W48454   9.006  10.632  14.678 -0.0928  0.1711 -0.1558
32321W        W48455   7.730  17.428  14.910  0.0915 -0.0240 -0.0371
32322W        W48456   6.750  16.136   3.894  0.1876  0.1743  0.0488
32323W        W48457  12.642  12.317   1.352 -0.1932  0.2358  0.0211
32324W        W48458   9.528  15.384   3.463 -0.1844 -0.0778  0.0668
32325W        W48459  16.900  14.850   4.104 -0.1643  0.0976 -0.0273
32326W        W48460   1.886  16.813   1.757  0.2075  0.1698 -0.0259
32327W        W48461  12.260   5.059  12.692  0.0159 -0.0105  0.1755
32328W        W48462  10.217   6.114   2.545 -0.0206  0.0466 -0.1166
32329W        W48463   8.692  13.964  13.611 -0.0361 -0.1154  0.0259
32330W        W48464   1.467  13.012   0.553 -0.0616 -0.2801  0.0972
32331W        W48465  10.273  16.081   5.527  0.1220 -0.3339 -0.0802
32332W        W48466  14.452  16.788   4.417 -0.1205  0.0314 -0.0491
32333W        W48467   0.420  16.280   5.167 -0.0895  0.0588 -0.1197
32334W        W48468  13.171   3.845   4.152  0.2011  0.2151 -0.1072
32335W        W48469   2.717   9.597   1.694  0.0515  0.0143 -0.1643
32336W        W48470   1.821  18.348  14.870  0.1345  0.0848  0.1402
32337W        W48471   9.344   2.601   4.006  0.1625  0.1809 -0.1423
32338W        W48472   4.292   3.269  15.517  0.1768  0.2984 -0.2434
32339W        W48473  13.135   7.676  14.277  0.0428 -0.1192 -0.0700
32340W        W48474  10.953   9.528   2.261 -0.0265  0.2420  0.2141
32341W        W48475   1.466  14.609   2.487  0.2489 -0.1052  0.0937
32342W        W48476  12.268   3.304   2.142 -0.1594  0.1608  0.0248
32343W        W48477   0.892   9.110   2.873  0.0848 -0.0424 -0.3423
32344W        W48478   3.838   9.599  14.836  0.1316 -0.2793 -0.0135
32345W        W48479   3.880  17.847   4.249  0.0103  0.1425  0.1217
32346W        W48480   2.944   2.229  13.628  0.0695 -0.0057  0.0467
32347W        W48481  17.822  11.211  15.480 -0.2598 -0.0914  0.0527
32348W        W48482   5.351   8.625   2.519  0.4072 -0.5696 -0.0322
32349W        W48483   7.652   5.451   5.720  0.0454 -0.0985  0.0018
32350W        W48484   9.632   2.205   3.924 -0.0815  0.0846  0.0268
32351W        W48485  12.321  10.165  13.672  0.1220 -0.1492 -0.1486
32352W        W48486  14.285  15.456  11.055 -0.1199 -0.0994  0.0891
32353W        W48487   7.539   3.003  11.765  0.3098 -0.0792  0.2123
32354W        W48488  17.946  10.150  15.283  0.5015 -0.0903  0.0875
32355W        W48489   8.495   4.645   1.144 -0.2393  0.0182  0.0088
32356W        W48490   4.139   1.540   4.474  0.2191 -0.1094  0.0927
32357W        W48491   9.495  12.285   3.598 -0.1211  0.0767  0.1726
32358W        W48492  15.361  18.350  12.375  0.0482  0.1515 -0.0886
32359W        W48493  12.733   2.931   4.985  0.1876  0.2648 -0.0723
32360W        W48494   9.021   9.186  15.554 -0.0259 -0.0934 -0.1280
32361W        W48495  12.534  15.025   4.044  0.0797  0.1846 -0.0106
32362W        W48496   0.467  14.997  14.403 -0.1113 -0.0181  0.2522
32363W        W48497  12.616  16.118   3.119 -0.0183 -0.3344  0.3105
32364W        W48498  12.862   1.121   0.620  0.0316  0.1936  0.1203
32365W        W48499   9.497  13.860  11.756  0.0640 -0.1455 -0.0694
32366W        W48500   2.670  18.567  10.870 -0.0000  0.1859  0.1027
32367W        W48501   5.574  13.376   2.331 -0.0845 -0.0902 -0.0463
32368W        W48502  16.169  12.429   4.631  0.2148 -0.0170  0.2014
32369W        W48503   4.229  10.608   1.285 -0.2914 -0.0375 -0.3487
32370W        W48504   6.592   7.928   1.925  0.2152 -0.1049  0.3537
32371W        W48505   2.735  16.529   2.953  0.0549 -0.0975  0.0898
32372W        W48506  16.150   5.032  13.417  0.1235 -0.0953 -0.0432
32373W        W48507  14.226   9.472   4.888  0.0708 -0.0797  0.2066
32374W        W48508   9.343  14.756   0.710 -0.3317 -0.2439 -0.0241
32375W        W48509   2.567   4.135   5.982  0.1506 -0.0410  0.1312
32376W        W48510   7.210  14.580   5.298  0.1461  0.0324 -0.1900
32377W        W48511   8.936   0.322  13.753 -0.3420  0.0744  0.1828
32378W        W48512  12.239   3.109   5.211 -0.0677  0.0116 -0.1568
32379W        W48513  11.306  15.386  11.557  0.2555 -0.0227  0.1295
32380W        W48514   5.266  10.054   3.351  0.2149  0.1589  0.1517
32381W        W48515  13.727  13.298   3.718 -0.1065 -0.1155 -0.2541
32382W        W48516  16.826   8.694   2.013 -0.4928  0.0989 -0.1159
32383W        W48517  11.398  15.715  10.597  0.0189 -0.2958  0.4253
32384W        W48518  18.030  11.488   3.219 -0.0479  0.1581  0.2201
32385W        W48519   9.481  13.372  11.872  0.0719 -0.1091 -0.2557
32386W        W48520  11.434   3.899  14.063 -0.2167  0.1146  0.1743
32387W        W48521  10.442  18.623   2.024  0.0925  0.0905 -0.3187
32388W        W48522   5.079   2.292  10.677 -0.2545 -0.1231 -0.0713
32389W        W48523  13.480  11.710  14.756  0.0745 -0.0258 -0.0796
32390W        W48524  16.167   9.494   2.394  0.4367 -0.0905  0.2921
32391W        W48525  17.025   9.409  13.782  0.1911 -0.2004 -0.1560
32392W        W48526   5.819  16.711  13.644 -0.0099 -0.1757 -0.1316
32393W        W48527   3.369  12.195   0.478 -0.0946  0.0844  0.0745
32394W        W48528   3.591   7.715   3.322 -0.3438  0.1039 -0.0566
32395W        W48529   2.961  11.524   5.534 -0.1343 -0.3345 -0.1932
32396W        W48530  17.708   0.494  11.943 -0.0206 -0.1476 -0.1762
32397W        W48531   6.388  17.440  11.219 -0.2517 -0.0485 -0.1824
32398W        W48532  16.880  16.406  13.629  0.2672  0.2548  0.0597
32399W        W48533   1.885  13.500  11.838  0.1768 -0.1900 -0.2868
32400W        W48534  17.943  15.079   2.826 -0.0563 -0.0536 -0.0233
32401W        W48535   5.564   8.244  12.731 -0.1182  0.2145 -0.1117
32402W        W48536  18.596   4.507  14.664  0.0488  0.1537  0.1453
32403W        W48537   8.241  12.089   3.026 -0.1798 -0.0847  0.2353
32404W        W48538   0.268  15.471   4.412 -0.1203  0.0433 -0.2446
32405W        W48539   1.056   5.629   3.937 -0.0093  0.0768  0.1040
32406W        W48540  14.857  17.738  14.099  0.1239  0.0081  0.5940
32407W        W48541   8.160   7.784   4.978 -0.0150  0.1162 -0.0736
32408W        W48542  11.046   7.303  13.045 -0.0434 -0.2047 -0.1416
32409W        W48543  13.060  10.213  15.336  0.0912 -0.0099 -0.3471
32410W        W48544   5.997   2.587   0.167  0.0179 -0.2887 -0.1731
32411W        W48545   4.175  10.178  15.418  0.0051  0.3434  0.0690
32412W        W48546   7.152   7.096   1.044  0.0785 -0.0722  0.1217
32413W        W48547  15.363  16.979  12.820  0.0874  0.0703 -0.1133
32414W        W48548  12.338   9.569  13.627  0.2263 -0.1127 -0.2773
32415W        W48549   1.994   5.897   3.660 -0.0859 -0.2687 -0.1533
32416W        W48550   3.992   7.311   5.136 -0.0275  0.0923  0.0286
32417W        W48551   0.846  11.994  10.065  0.1398  0.1957  0.0390
32418W        W48552   7.689   2.580   2.717 -0.0815  0.1389  0.0818
32419W        W48553  14.849   0.060   3.899  0.1890  0.0021  0.1906
32420W        W48554   6.457   2.698   4.430  0.3038  0.2548 -0.0811
32421W        W48555   3.144   2.461  11.535  0.0240 -0.2045  0.0723
32422W        W48556  16.825  17.346  13.891  0.1346 -0.4515 -0.0640
32423W        W48557  11.203  18.514  12.392 -0.2439  0.0124  0.3985
32424W        W48558   3.723   8.280   0.227 -0.0189 -0.1165 -0.0590
32425W        W48559  10.548   1.597  14.231  0.0179  0.2528  0.0548
32426W        W48560  12.319   6.218   2.671  0.1949 -0.0188 -0.0409
32427W        W48561  13.616   9.858   0.470 -0.1867  0.1661 -0.0545
32428W        W48562   7.147   4.965   1.737  0.1687 -0.1391  0.0894
32429W        W48563  11.444   6.781  11.549  0.2602 -0.0339 -0.0962
32430W        W48564   8.547   5.287  13.724  0.1200  0.0564 -0.0643
32431W        W48565  11.522   8.728  11.170 -0.0001  0.3464  0.4101
32432W        W48566  10.832   6.179  14.697  0.0710 -0.1272  0.5042
32433W        W48567  10.777   9.717  13.579 -0.0989 -0.2156  0.2731
32434W        W48568   9.842   7.994   2.099  0.0135 -0.1666 -0.0772
32435W        W48569   4.371   7.495  13.378 -0.1261 -0.5340  0.1704
32436W        W48570  13.517  11.404   3.808 -0.0943 -0.0872  0.1719
32437W        W48571   1.243  11.392  14.447  0.2860 -0.0154  0.1676
32438W        W48572   4.423   2.631   1.320 -0.0637 -0.0317 -0.0128
32439W        W48573   2.301   3.114  12.451 -0.0173 -0.1026  0.0580
32440W        W48574  12.332   8.843  12.941 -0.0834  0.0014 -0.0825
32441W        W48575  11.595  16.190   1.557 -0.0856 -0.2447  0.0554
32442W        W48576  11.998   1.342   5.018 -0.0049  0.3880  0.1828
32443W        W48577   8.808   1.067  13.575 -0.4560  0.1048  0.2516
32444W        W48578  17.177  18.056   3.927  0.1526  0.0858  0.0011
32445W        W48579   3.020   8.416   3.123 -0.4629  0.4728 -0.1062
32446W        W48580   5.310  13.339   0.611 -0.2467  0.3641  0.0599
32447W        W48581   3.338   2.405  13.332  0.0531 -0.0817 -0.3158
32448W        W48582   6.771  10.771   2.850  0.0992 -0.0109 -0.3711
32449W        W48583   1.950   9.372  14.480  0.0380  0.2666  0.1522
32450W        W48584  16.029  12.888  14.483 -0.2188 -0.3617 -0.1509
32451W        W48585  13.081   4.174  14.905  0.1667  0.0264 -0.3399
32452W        W48586   4.510  14.123   3.356 -0.4001 -0.0152  0.1950
32453W        W48587  11.942   5.299   3.122 -0.1069  0.4187 -0.2148
32454W        W48588  12.731  12.580   5.360 -0.1434  0.0566 -0.0333
32455W        W48589   7.688  16.233  12.023 -0.0079 -0.1137 -0.2296
32456W        W48590  13.397   8.109   1.004  0.0201  0.0666  0.1366
32457W        W48591  14.541   3.176  15.059 -0.2854  0.1971  0.0114
32458W        W48592  13.326   6.393   3.371 -0.0783 -0.0263  0.3701
32459W        W48593   0.709   1.695   1.795 -0.0658  0.0487 -0.0311
32460W        W48594   9.775  15.701   4.322 -0.1436  0.1252  0.1086
32461W        W48595   7.651  16.582  11.620  0.3153 -0.5556  0.1996
32462W        W48596  18.427  12.391  13.502 -0.1193  0.0422  0.3702
32463W        W48597  16.996   8.867  11.353  0.0181  0.4387 -0.1201
32464W        W48598  16.770   3.932   4.823  0.1217  0.0008  0.0288
32465W        W48599   0.625  15.373   1.967  0.0044 -0.0311 -0.1638
32466W        W48600  17.550   1.072   4.458 -0.2943  0.0482 -0.0611
32467W        W48601   9.195  10.620  11.980  0.0290 -0.0794 -0.0780
32468W        W48602  12.042  14.280  13.251 -0.0184 -0.1166  0.3867
32469W        W48603  17.290   0.682   3.780  0.2914 -0.2145  0.1901
32470W        W48604  15.251   9.481   0.946  0.1270 -0.0167  0.1553
32471ION     NA48605  11.609   0.766  13.010  0.0955 -0.0306  0.0311
32472ION     NA48606   7.746  11.969   4.257 -0.0733  0.0499  0.0947
32473ION     NA48607   7.375  17.305   3.078 -0.0016 -0.2408  0.1299
32474ION     NA48608   5.534  13.704  11.038 -0.1771  0.0187 -0.1458
32475ION     NA48609  14.938   8.344   2.922  0.3376 -0.0580  0.2480
32476ION     NA48610  13.769  16.654   9.966 -0.0113  0.0604  0.0211
32477ION     NA48611   6.237  15.111  12.908 -0.1340 -0.1019  0.1775
32478ION     NA48612  14.942  15.165   5.768  0.0266  0.4620 -0.1435
32479ION     NA48613  10.135   4.116   2.686 -0.2646 -0.2340  0.1910
32480ION     NA48614   1.322   1.031  10.086  0.1935  0.3195  0.1626
32481ION     NA48615  11.755  17.442   9.897 -0.0510  0.2712 -0.0844
32482ION     NA48616   1.901  17.757   3.010 -0.0255  0.2240  0.0145
32483ION     NA48617  11.955  10.753   9.845  0.2274  0.5206 -0.0970
32484ION     NA48618   8.125   7.714  11.501  0.2151 -0.3314  0.0095
32485ION     NA48619  18.347   6.023   0.824 -0.1000 -0.1078  0.0302
32486ION     NA48620  13.835   8.202   9.634 -0.0243 -0.0461  0.1255
32487ION     NA48621   5.340   5.532   0.462  0.0480  0.2252  0.0519
32488ION     NA48622   4.619  14.592  14.104 -0.0846  0.3175  0.0835
32489ION     NA48623   4.383   9.986  11.051  0.0615  0.1415  0.1969
32490ION     NA48624  14.975   5.955   3.951  0.0852  0.1597 -0.0527
32491ION     NA48625  10.738  17.471  10.185 -0.0119  0.3199  0.0347
32492ION     NA48626  14.491  12.442   5.573  0.0657 -0.1551 -0.2798
32493ION     NA48627  17.409   4.301  13.223  0.3589  0.1998  0.1023
32494ION     NA48628   2.014   6.090   4.098  0.1769 -0.2947 -0.1944
32495ION     NA48629   0.213  17.575   9.919 -0.4294 -0.2559 -0.0939
32496ION     NA48630   4.847  14.347   4.933  0.0673 -0.0094  0.0668
32497ION     NA48631   6.330  17.364   3.538 -0.3268 -0.1974 -0.3561
32498ION     NA48632   8.785  14.073  11.198  0.1149  0.0163  0.0866
32499ION     NA48633   3.858  17.768  14.183  0.1140  0.1249 -0.1573
32500ION     NA48634   8.557  13.792  14.049  0.2325 -0.2249 -0.2950
32501ION     NA48635   3.226  16.556   5.617 -0.0501 -0.2972 -0.3007
32502ION     NA48636   3.789  12.605  14.869 -0.0268  0.3562 -0.2169
32503ION     NA48637  17.121   0.843   0.590  0.0334 -0.0302 -0.2300
32504ION     NA48638  16.174  13.057  11.263  0.1718 -0.0309  0.3071
32505ION     NA48639   6.133   5.617   9.918  0.0341 -0.3272 -0.2172
32506ION     NA48640  10.609   1.493  11.855 -0.2866  0.3034  0.1937
32507ION     NA48641   0.441   0.552   9.963 -0.2911  0.0824  0.2923
32508ION     NA48642  15.184   9.898   0.247 -0.0953 -0.0792  0.1427
32509ION     NA48643  18.300  13.625  10.559 -0.4519 -0.0439  0.1947
32510ION     NA48644  12.162  14.191   5.197  0.0893  0.2951  0.0890
32511ION     NA48645   7.185  11.697   9.722 -0.1689  0.2003 -0.3228
32512ION     NA48646  15.313   3.050  10.219  0.0275  0.3176 -0.1748
32513ION     NA48647   1.110   8.169   4.449 -0.1355  0.1394  0.0152
32514ION     NA48648   1.957   5.295   5.877  0.2471  0.3759 -0.0779
32515ION     NA48649  14.664   6.821   9.874 -0.1116  0.3370 -0.0644
32516ION     NA48650   1.992   0.310  10.252  0.2656 -0.2807  0.0738
32517ION     NA48651   2.672   1.701  11.327 -0.2644  0.0328  0.1140
32518ION     NA48652   1.054  13.564   2.911 -0.1660  0.0902 -0.1615
32519ION     NA48653  12.305   9.560   0.820 -0.0454 -0.2353  0.3086
32520ION     NA48654   0.574   1.273  13.522  0.1315  0.1318 -0.0277
32521ION     NA48655   0.005   4.254   9.994 -0.0574  0.1511  0.1084
32522ION     NA48656  14.109  16.480  15.266 -0.1050 -0.5062 -0.1584
32523ION     NA48657  10.026   5.729   1.284 -0.0194 -0.3633 -0.1138
32524ION     NA48658  18.709  12.946   0.994  0.1137 -0.0133 -0.0335
32525ION     NA48659   8.570   9.778   0.222 -0.1603 -0.0408  0.1372
32526ION     NA48660   8.292  12.662   5.348  0.2432 -0.0055  0.0953
32527ION     NA48661  16.660   7.833   5.593 -0.1392  0.0166 -0.1595
32528ION     NA48662   1.734  16.011   9.908  0.2208  0.3166 -0.0610
32529ION     NA48663  15.650   5.734   0.735 -0.0260  0.1381 -0.0618
32530ION     NA48664  15.332   0.739   0.467  0.1056 -0.3461  0.0017
32531ION     NA48665  18.416  15.053   0.026 -0.1317 -0.0227  0.1830
32532ION     NA48666   2.863   7.166  10.009  0.1996  0.0719 -0.0520
32533ION     NA48667  16.743   8.214   4.717 -0.0853  0.2415 -0.1006
32534ION     NA48668   9.658  11.143  10.051 -0.0063  0.2598  0.1006
32535ION     NA48669   9.911   7.742  10.258  0.5027 -0.1485  0.2013
32536ION     NA48670  18.718   8.266  15.577 -0.2634  0.0292 -0.2934
32537ION     NA48671  10.496   1.465   0.874  0.2287  0.1377  0.3588
32538ION     NA48672   0.599   6.307   0.309  0.0257  0.3759  0.2157
32539ION     NA48673  17.566  17.219   4.081  0.2147 -0.0838  0.1502
32540ION     NA48674  15.269   5.631   1.549 -0.1246 -0.0336 -0.1534
32541ION     NA48675   9.873   1.432  10.448 -0.0029  0.2159 -0.2432
32542ION     NA48676  16.002  17.218  14.777 -0.2490 -0.0660 -0.1373
32543ION     NA48677  16.469   1.622   4.392 -0.1187  0.1842  0.0397
32544ION     NA48678   8.434   8.356   4.423 -0.0631  0.1527 -0.0292
32545ION     NA48679   2.215   6.121   5.578 -0.2709  0.0157  0.1548
32546ION     NA48680   5.927  16.859   9.980  0.1765 -0.0666 -0.1080
32547ION     NA48681   8.339  12.353   1.535  0.0971  0.0598 -0.3247
32548ION     NA48682  15.636  13.380   3.746  0.2849 -0.2242 -0.1528
32549ION     NA48683   7.763  11.669  11.481  0.2521  0.4685  0.0550
32550ION     NA48684   7.149   9.202   5.525  0.1082  0.1012  0.1501
32551ION     NA48685   1.565   4.802   4.205  0.0780  0.1201 -0.3546
32552ION     NA48686   0.123   1.742  11.595  0.0286 -0.0191  0.0088
32553ION     NA48687   4.493  14.860   1.590  0.0281  0.0254 -0.0451
32554ION     NA48688   0.224  10.456  14.635  0.2506  0.1162  0.0383
32555ION     NA48689   3.463   6.624   5.275 -0.1455  0.0891  0.1932
32556ION     NA48690  16.174  14.248  10.244  0.0745 -0.3915 -0.0538
32557ION     NA48691  13.673  17.335  12.118  0.1680 -0.1873  0.1864
32558ION     NA48692  14.291  18.321   5.240 -0.0261  0.3015  0.0712
32559ION     NA48693  16.087   7.716   1.461  0.0825  0.2728 -0.0274
32560ION     NA48694   9.680   8.226   3.339  0.1316  0.0480  0.0248
32561ION     NA48695   9.091   9.966   5.811  0.2523 -0.2097 -0.1172
32562ION     NA48696   4.407  10.823   4.496  0.1461  0.2279 -0.1127
32563ION     NA48697   0.539   1.864  10.185  0.0451  0.1899  0.1733
32564ION     NA48698  12.735  10.267  10.008 -0.1516  0.0082 -0.1014
32565ION     NA48699  14.501  11.603   5.551 -0.2580 -0.2439  0.3483
32566ION     NA48700   4.099   4.144   4.041 -0.2161 -0.1369  0.0921
32567ION     NA48701  18.227   3.597   5.663  0.0432  0.0293  0.0476
32568ION     NA48702   1.208  10.890  10.042 -0.2356 -0.0479  0.1598
32569ION     NA48703  14.419   2.744   5.707 -0.1452  0.2073 -0.1947
32570ION     NA48704  18.150   6.684  10.236 -0.3027  0.1156  0.1106
32571ION     NA48705   6.821   0.878   4.034  0.0493 -0.0573 -0.3772
32572ION     NA48706  16.176   3.016   0.126 -0.1422  0.0569  0.0079
32573ION     NA48707   9.186   8.234   5.881 -0.0717  0.1873  0.0064
32574ION     NA48708   9.200   9.227  10.220 -0.1002 -0.1143  0.2382
32575ION     NA48709  18.625  13.767  15.367  0.1370 -0.0622 -0.2264
32576ION     NA48710  13.308  11.093  14.049 -0.0824  0.0562 -0.1718
32577ION     NA48711  13.901  14.388   5.709  0.0755  0.2115  0.1701
32578ION     NA48712  15.182   1.174   5.239  0.0670  0.1794 -0.1247
32579ION     NA48713   3.901  11.338  15.100 -0.1772 -0.1031 -0.2259
32580ION     NA48714  10.309  17.614   5.142  0.0317 -0.0772  0.0710
32581ION     NA48715  17.467   4.134  15.208 -0.0921  0.0084 -0.1329
32582ION     NA48716  12.402  13.892   9.888 -0.0595 -0.1456  0.0802
32583ION     NA48717  17.319  13.671   3.141 -0.0738  0.2513 -0.0486
32584ION     NA48718   8.076   6.067  13.927  0.0883 -0.0635 -0.1625
32585ION     NA48719   7.820  17.316  12.111 -0.0575  0.1267 -0.1287
32586ION     NA48720  18.548   9.300  10.392  0.0806  0.3415 -0.1067
32587ION     NA48721   3.753  15.524  10.223  0.1121  0.1887  0.0789
32588ION     NA48722   5.232  10.291   5.436  0.1597  0.0942  0.1327
32589ION     NA48723   8.033  11.802   5.294  0.1607 -0.0778 -0.0735
32590ION     NA48724  16.739  12.417   5.345 -0.0095  0.0708 -0.0121
32591ION     NA48725  16.945  16.516   9.952  0.3556 -0.2277 -0.4300
32592ION     NA48726  12.453   0.682  10.036  0.1817 -0.0657  0.0783
32593ION     NA48727   1.412  14.869   5.446 -0.0608 -0.1701 -0.0230
32594ION     NA48728   3.519  14.111   3.229  0.1750 -0.1253 -0.2188
32595ION     NA48729   3.826   1.369   4.107 -0.2277 -0.0761  0.2673
32596ION     NA48730   6.972  16.499   4.660 -0.1750  0.0775 -0.2802
32597ION     NA48731   5.174  15.436  10.033 -0.0383  0.0443 -0.1633
32598ION     NA48732   6.866  11.598   5.552 -0.0230  0.1600  0.2344
32599ION     NA48733   1.924   2.184  10.307 -0.0882 -0.2256  0.2495
32600ION     NA48734   2.081   0.059  14.564  0.3351  0.4688 -0.0829
32601ION     NA48735   0.013  12.661   2.593 -0.2054  0.0029 -0.3592
32602ION     NA48736   0.954  13.096  10.359  0.1860  0.0877 -0.2422
32603ION     NA48737   2.296  14.257  13.660 -0.3784  0.0180 -0.1649
32604ION     NA48738  10.247   2.502  13.701  0.0846 -0.0787 -0.0525
32605ION     NA48739   8.134   2.672   5.472 -0.0839 -0.1589  0.2185
32606ION     NA48740   7.835  17.404   9.731  0.2373  0.2894 -0.0013
32607ION     NA48741   1.127  16.251  14.048 -0.2314 -0.2317  0.0527
32608ION     NA48742   3.395  15.176   5.248  0.2276 -0.1713  0.0614
32609ION     NA48743   8.801   4.177   5.434 -0.1750  0.2487  0.0577
32610ION     NA48744   0.352   8.344   0.958 -0.2638  0.0520 -0.2205
32611ION     NA48745  17.953  16.460   5.035 -0.0414 -0.1692  0.1901
32612ION     NA48746  18.467   4.116   1.098  0.0588 -0.1161  0.0869
32613ION     NA48747  14.608   9.093  15.384  0.0829  0.3401 -0.2612
32614ION     NA48748  12.059   4.707   5.756 -0.0922  0.0777  0.0143
32615ION     NA48749  10.334   3.558   5.668 -0.1175 -0.0425 -0.0016
32616ION     NA48750   2.343   7.033   5.743  0.0412  0.0828 -0.1919
32617ION     NA48751  12.928  16.543  10.238 -0.5176  0.1859 -0.0648
32618ION     NA48752   4.123   6.015   5.763  0.0134 -0.3848 -0.2862
32619ION     NA48753   3.049   1.334   1.622 -0.1693  0.0366  0.2715
32620ION     NA48754   0.522   9.367   0.415 -0.0099  0.0646  0.1378
32621ION     NA48755  13.354  16.008   2.698  0.1660 -0.0935  0.0407
32622ION     NA48756  17.230  13.618   1.292  0.0818  0.0736  0.0209
32623ION     NA48757  12.304   0.989   5.226 -0.1381  0.0314  0.4947
32624ION     NA48758   8.369  18.022  12.657  0.0371  0.1368  0.1620
32625ION     NA48759   1.051   1.353   0.538  0.0261  0.2091 -0.0712
32626ION     NA48760  14.259  15.837   5.820 -0.0908 -0.1110 -0.1306
32627ION     NA48761   4.746   2.456   9.805  0.3799 -0.1230  0.3379
32628ION     NA48762  16.155  14.472   0.181  0.1881 -0.1063 -0.2090
32629ION     NA48763   6.469   4.939   5.799 -0.2006 -0.4488 -0.0332
32630ION     NA48764   6.472  17.453  10.067  0.2067  0.2985  0.2177
32631ION     NA48765   3.394   7.154   4.637  0.1304 -0.1060 -0.2025
32632ION     NA48766  12.270   5.794  14.763  0.1314  0.1885  0.3332
32633ION     NA48767   2.166  18.703   3.768  0.4298  0.2023 -0.1429
32634ION     NA48768   7.310   1.813   9.752  0.0975 -0.0537  0.0154
32635ION     NA48769   6.602  13.265  13.854 -0.3374 -0.3782 -0.3998
32636ION     NA48770  15.844  13.788  15.039 -0.0956 -0.0688 -0.1505
32637ION     NA48771   8.319  17.810   4.742 -0.2602 -0.0377  0.1102
32638ION     NA48772   0.106   6.617  12.668 -0.1954  0.0922  0.0409
32639ION     NA48773  14.508  10.829   5.469  0.2054  0.3907  0.0466
32640ION     NA48774  16.803  14.720  10.087 -0.4815 -0.1328  0.0692
32641ION     NA48775   4.365  15.328   2.817  0.3504 -0.0911 -0.1822
32642ION     NA48776  11.636   2.739  10.016 -0.1896 -0.0693 -0.4399
32643ION     NA48777   7.080   1.102  12.238 -0.2199  0.0279  0.1085
32644ION     NA48778   0.008   1.378   5.699 -0.1733  0.0303 -0.1426
32645ION     NA48779  18.270   8.806  14.636 -0.3042 -0.1950 -0.0775
32646ION     NA48780  18.003  12.090   3.259 -0.1105  0.0474  0.0903
32647ION     NA48781   8.980   2.319   9.977 -0.1422  0.1896 -0.0803
32648ION     NA48782   3.379   2.021   4.749  0.3123 -0.0630 -0.0765
32649ION     NA48783  15.346   1.430   9.851 -0.4528 -0.0457 -0.2511
32650ION     NA48784   7.746  11.014   9.953  0.1491  0.0709 -0.2698
32651ION     NA48785  16.771  10.189   4.377  0.0059 -0.1569  0.0632
32652ION     NA48786  17.767   9.180   2.605 -0.0325  0.1250 -0.0967
32653ION     NA48787  15.538  15.355   9.839 -0.0910 -0.0254 -0.0002
32654ION     NA48788   1.690   6.561  10.299  0.1612  0.3876  0.0595
32655ION     NA48789  17.899  16.215  10.301  0.2293 -0.2271 -0.1841
32656ION     NA48790  14.928  11.666   3.559 -0.0997  0.3800 -0.0826
32657ION     NA48791  15.842   5.420   5.390  0.1654 -0.0802  0.1291
32658ION     NA48792   3.920   8.090   5.430 -0.4827 -0.1337 -0.0993
32659ION     NA48793   7.427   6.880  10.364  0.0414  0.0932 -0.2498
32660ION     NA48794   5.198   6.281  10.084 -0.1644 -0.1713  0.0956
32661ION     NA48795  14.536  11.595   0.164 -0.0731  0.2870 -0.1199
32662ION     NA48796   5.888  15.929  13.406  0.0291 -0.0475  0.1930
32663ION     NA48797  11.867   1.464  10.363 -0.5439  0.0434  0.3320
32664ION     NA48798  15.973   5.268  10.053 -0.1098  0.1679 -0.0561
32665ION     NA48799   8.959  11.539   9.867  0.3118  0.1003  0.2398
32666ION     NA48800   1.242   0.808   5.820 -0.1829  0.2027 -0.1049
32667ION     NA48801   8.614   4.595   5.616 -0.2394  0.0569  0.1314
32668ION     NA48802   5.539  12.582   3.203 -0.0488  0.0085 -0.0722
32669ION     NA48803   8.955   1.535  10.538  0.0787 -0.2946 -0.2010
32670ION     NA48804   2.190  15.890   5.059 -0.0335  0.1411 -0.0512
32671ION     NA48805  14.491   2.316  15.423 -0.0678 -0.0188  0.0037
32672ION     NA48806   8.895   2.018   2.342 -0.2066  0.2096  0.1557
32673ION     NA48807  16.855  11.784  14.163  0.1369 -0.3471 -0.0695
32674ION     NA48808  10.499  12.683  15.433 -0.0281 -0.0013 -0.2592
32675ION     NA48809  10.803  16.754   5.320  0.1433  0.2390 -0.0510
32676ION     NA48810  11.176   7.476  12.317  0.2115 -0.2887  0.0672
32677ION     NA48811  15.959  12.020   5.642  0.2549 -0.3420 -0.1908
32678ION     NA48812  17.820  15.986   5.717  0.3195 -0.1058  0.0811
32679ION     NA48813  16.901   7.952  10.316  0.2095  0.0991  0.2018
32680ION     NA48814   8.730  11.681   2.675  0.1918  0.0204 -0.1176
32681ION     NA48815  10.904  15.954  11.251 -0.2069 -0.1925 -0.2808
32682ION     NA48816  16.917  15.525  13.357  0.1705 -0.2254 -0.1839
32683ION     NA48817   7.328  17.245   5.431  0.3069  0.2067 -0.3031
32684ION     NA48818   0.370  14.906  10.359 -0.2535 -0.1797 -0.1660
32685ION     NA48819  14.779  18.379  10.104 -0.1120  0.1092  0.2142
32686ION     NA48820  12.835  15.056   9.623 -0.1278  0.1022  0.1387
32687ION     NA48821  12.425   1.982   0.716  0.0499  0.0091 -0.2784
32688ION     NA48822  16.974   4.221   9.984 -0.2661  0.0085  0.0390
32689ION     NA48823  14.291   5.430   3.977 -0.1872  0.1771 -0.1330
32690ION     NA48824   4.522  11.166   5.599 -0.1098  0.1611 -0.1453
32691ION     NA48825   6.236   5.870   5.450  0.1712  0.0112 -0.1887
32692ION     NA48826   6.300  18.419   9.832 -0.1351 -0.1757 -0.1340
32693ION     NA48827  13.934   7.016   4.086 -0.0870  0.0994  0.1479
32694ION     NA48828   9.370   8.679   5.774 -0.0842  0.1465 -0.4331
32695ION     NA48829  17.938   3.290  13.996  0.0232 -0.0780 -0.7193
32696ION     NA48830   4.416  10.097  10.103 -0.2034  0.1765  0.2880
32697ION     NA48831  12.633   2.271  14.393  0.0070 -0.0675  0.0602
32698ION     NA48832   4.478   1.293   5.590  0.0655  0.1488 -0.1293
32699ION     NA48833   2.694  11.352  15.344  0.1687  0.3562 -0.2254
32700ION     NA48834  16.157   6.225   5.325  0.1857 -0.0209 -0.2824
32701ION     NA48835   8.797  12.005  13.891  0.1682 -0.2075 -0.0267
32702ION     NA48836  12.897   0.817   4.111 -0.1407 -0.2269  0.0299
32703ION     NA48837  16.180  10.656   5.355  0.0764  0.0512 -0.1234
32704ION     NA48838   1.234   4.009   5.239 -0.0653 -0.1630  0.3538
32705ION     NA48839  12.261   1.238   2.447  0.4341  0.0032 -0.1324
32706ION     NA48840  18.672  13.575  10.177 -0.1250 -0.0690  0.0174
32707ION     NA48841   1.613  11.292   3.100  0.0561  0.2507 -0.1519
32708ION     NA48842   2.990   7.231  13.073  0.1021  0.0356  0.0974
32709ION     NA48843   6.500   9.595   3.913  0.1822 -0.2482  0.0274
32710ION     NA48844  12.765   9.199   9.659 -0.0832  0.2491  0.2301
32711ION     NA48845  16.510  15.280  10.000  0.0034 -0.1935 -0.0341
32712ION     NA48846  17.438  12.817   5.809  0.0537  0.1466 -0.1760
32713ION     NA48847   1.870   7.325   3.740 -0.2244 -0.1409  0.1115
32714ION     NA48848   2.929  18.652  13.606  0.1060  0.0765  0.0515
32715ION     NA48849  11.508   9.052  12.682 -0.0178 -0.0176  0.0734
32716ION     NA48850   3.588   6.927  10.478 -0.0832  0.1243  0.3401
32717ION     NA48851   3.248   3.304  13.912 -0.2757 -0.2219  0.1065
32718ION     NA48852  15.662  15.916  10.669  0.1003  0.1285  0.0948
32719ION     NA48853   2.798  17.084   9.924  0.3388  0.1228 -0.1168
32720ION     NA48854   0.378   6.272   3.270 -0.4093 -0.3363 -0.3636
32721ION     NA48855  13.298   0.932   5.625 -0.0445  0.1037 -0.2147
32722ION     NA48856   4.251   4.444   1.325 -0.1445 -0.1423  0.3252
32723ION     NA48857   2.319   1.345  12.651  0.2127  0.0997  0.0110
32724ION     NA48858   2.976  18.303  10.085  0.1449 -0.0671  0.0541
32725ION     NA48859   7.791   3.599   5.430  0.2707  0.1455 -0.4196
32726ION     NA48860  11.048   3.871   3.825 -0.2015 -0.1104  0.1342
32727ION     NA48861   4.912   7.044  10.124 -0.0415  0.3803 -0.0461
32728ION     NA48862   8.100  13.716   5.382  0.1829 -0.3836  0.0919
32729ION     NA48863   4.867  10.154   1.506  0.0703 -0.1923  0.0253
32730ION     NA48864   5.709  16.452   3.146  0.1155 -0.2203  0.0285
32731ION     NA48865   0.304   5.707   2.655  0.2131  0.1571 -0.4994
32732ION     NA48866  14.497   5.095   5.281 -0.3351 -0.2011 -0.1195
32733ION     NA48867   9.298  17.738   9.952 -0.2906  0.4467 -0.2379
32734ION     NA48868  11.708  11.234  13.319  0.1005 -0.1916 -0.1669
32735ION     NA48869  18.635   9.818  10.172 -0.0235  0.0010 -0.0457
32736ION     NA48870  13.981  17.399  13.102 -0.1227  0.2964  0.0804
32737ION     NA48871  17.632   2.073   6.098  0.2801  0.2953  0.1439
32738ION     NA48872   3.891   1.778   2.802 -0.0572  0.0414 -0.1491
32739ION     NA48873  12.980  11.545  12.398  0.1029 -0.2596 -0.2912
32740ION     NA48874   8.510  17.991   2.734 -0.1766 -0.0942  0.2508
32741ION     NA48875   4.604  13.901   4.184  0.0646 -0.2079  0.4746
32742ION     NA48876   4.385   8.903   1.395  0.3679 -0.0805 -0.1668
32743ION     NA48877   0.586   9.081  10.789 -0.0654  0.0139  0.0749
32744ION     NA48878   9.746  18.160   3.372 -0.1925  0.2512 -0.3427
32745ION     NA48879  14.169   1.340   5.680  0.2533  0.0133  0.0154
32746ION     NA48880   6.953   5.422  10.019  0.0484 -0.2964  0.0534
32747ION     NA48881   7.472  15.824  12.883  0.2290  0.0528  0.0015
32748ION     NA48882   8.349  10.909   0.173  0.1437  0.0391 -0.3272
32749ION     NA48883   3.081   0.494  10.216  0.0446  0.0366  0.0395
32750ION     NA48884   3.999   7.245   5.685 -0.1394  0.1031 -0.2183
32751ION     NA48885   6.124   9.826   5.263  0.0387 -0.1021  0.1239
32752ION     NA48886  12.085   1.327   0.284  0.1186  0.4068 -0.1107
32753ION     NA48887   2.317  18.085   0.165  0.0355 -0.1245 -0.1858
32754ION     NA48888  16.457   7.164   5.026  0.2397 -0.2864 -0.1383
32755ION     NA48889   0.530   0.085   3.068  0.0662 -0.0155  0.1751
32756ION     NA48890   2.428  13.734   3.912 -0.4263  0.1370  0.0361
32757ION     NA48891   7.241   1.229   0.326  0.0190  0.0924 -0.0788
32758ION     NA48892   7.446   5.159  15.006 -0.3409 -0.3442  0.3075
32759ION     NA48893   5.987  15.143  10.819 -0.1370  0.0649  0.2560
32760ION     NA48894   5.969  16.876   1.315  0.0406  0.1215 -0.1033
32761ION     NA48895   5.599  16.248   5.791 -0.1021  0.2089  0.0779
32762ION     NA48896   7.367   1.232  14.580  0.0893  0.2177 -0.1038
32763ION     NA48897   8.400  18.535   5.262 -0.0062 -0.0260  0.0484
32764ION     NA48898   2.605   6.667   1.336 -0.1786  0.1402  0.2695
32765ION     NA48899   5.516  12.779   9.863  0.3683 -0.0959 -0.0275
32766ION     NA48900  18.424   7.502  10.208  0.2769  0.2950  0.2654
32767ION     NA48901   0.561  18.149  12.572 -0.0497  0.0831 -0.1333
32768ION     NA48902   1.315   6.620   5.818 -0.2278 -0.3036  0.1648
32769ION     NA48903  11.619  12.888   9.930 -0.1406  0.1252 -0.0718
32770ION     NA48904  16.882  13.307   5.368 -0.1602  0.1912 -0.0050
32771ION     NA48905   0.794   3.776  15.140  0.1260  0.0496 -0.1987
32772ION     NA48906   7.825   8.683   5.360 -0.1558  0.1305 -0.1649
32773ION     NA48907  12.463  16.980   9.847  0.3753 -0.3010  0.1248
32774ION     NA48908  18.112   6.097   2.837  0.3427  0.2311  0.0591
32775ION     NA48909  16.559   0.260   2.560 -0.1203  0.0829  0.0725
32776ION     NA48910  15.534   8.942   0.702  0.4260  0.0123  0.4384
32777ION     NA48911   4.864   2.485  15.377  0.2461 -0.0572  0.2358
32778ION     NA48912  12.540   5.444   5.434 -0.3657  0.3108 -0.0003
32779ION     NA48913   4.131   6.102  10.154  0.2781  0.0244 -0.0506
32780ION     NA48914  10.502  11.656  13.011  0.1138 -0.1491 -0.0797
32781ION     NA48915  17.556  12.890  10.055 -0.0216  0.0721  0.1450
32782ION     NA48916   0.399  10.532  10.142 -0.0410  0.1236  0.0193
32783ION     NA48917  13.654  10.508  13.622 -0.1600  0.0149  0.1690
32784ION     NA48918   6.429   2.964  15.577  0.1119 -0.0310  0.1589
32785ION     NA48919   1.517   3.247   5.618  0.0511  0.0645 -0.0586
32786ION     NA48920   4.893  18.168   5.588  0.3283 -0.2067 -0.2892
32787ION     NA48921  16.008  15.141  11.267 -0.0459  0.0999 -0.0479
32788ION     NA48922   8.418  17.857   3.557  0.0087 -0.1276 -0.1434
32789ION     NA48923   0.761  11.531  14.513  0.1426 -0.0036 -0.2102
32790ION     NA48924  11.928  15.144   9.795 -0.2739 -0.0173 -0.0546
32791ION     NA48925  10.667   2.329   0.069 -0.1450  0.3011 -0.0340
32792ION     NA48926  13.151   1.716  10.153  0.0742 -0.2776 -0.1145
32793ION     NA48927   8.720  13.316   0.998 -0.2012 -0.1333 -0.0570
32794ION     NA48928  16.569  16.900   0.333  0.2133  0.3022  0.4399
32795ION     NA48929  12.768   8.274  15.529  0.0376 -0.2336 -0.1416
32796ION     NA48930  13.850   4.425   0.079 -0.1737  0.1261  0.5228
32797ION     NA48931   1.951   7.907   1.240  0.1441  0.1797 -0.0898
32798ION     NA48932  18.202   0.963   2.821  0.1230  0.4375 -0.1766
32799ION     NA48933  11.346  14.705  12.996  0.1717 -0.5148  0.0481
32800ION     NA48934  11.560  18.117   5.164  0.2779  0.1129  0.0811
32801ION     NA48935  14.969  18.626  12.545  0.0392  0.0417 -0.2354
32802ION     NA48936   3.486  13.115   9.741  0.1116  0.0866  0.0079
32803ION     NA48937   3.991   8.853   0.225  0.1178 -0.0269 -0.0911
32804ION     NA48938  17.895   2.066   4.486 -0.2276  0.1296 -0.2667
32805ION     NA48939   4.876   1.513   9.836  0.1706 -0.2974 -0.1516
32806ION     NA48940  12.538  11.651   2.306 -0.1294 -0.0025 -0.1604
32807ION     NA48941  12.091  12.580  15.092  0.1535  0.0241  0.0832
32808ION     NA48942  10.773  10.939   5.556 -0.0318  0.0437  0.0000
32809ION     NA48943  13.419   4.043   5.756 -0.1406  0.3644 -0.2927
32810ION     NA48944   5.525   3.066   5.441 -0.0224  0.1997 -0.3145
32811ION     NA48945  17.947  13.135  13.061 -0.0491  0.1509 -0.0685
32812ION     NA48946  18.560   6.742   4.076  0.0291 -0.1920  0.0160
32813ION     NA48947  16.428  12.968   4.532 -0.2838  0.1819  0.0119
32814ION     NA48948  16.574   9.713  10.094  0.1278  0.1460  0.1975
32815ION     NA48949   8.488   4.321  10.730  0.0562 -0.3188  0.0411
32816ION     NA48950   2.962   9.525  12.146  0.2095 -0.2257 -0.0076
32817ION     NA48951  11.793   2.126  11.073 -0.0013  0.2191 -0.0180
32818ION     NA48952   5.067   1.393   1.331 -0.2949 -0.0995  0.0190
32819ION     NA48953   5.481  14.003  12.371 -0.2035 -0.1754  0.2938
32820ION     NA48954   8.190   1.935   9.978 -0.1264 -0.0114  0.3966
32821ION     NA48955   3.389   0.603  14.094  0.1650  0.0699  0.1033
32822ION     NA48956   3.232   4.955  10.422  0.0335  0.3041 -0.1393
32823ION     NA48957   0.138   5.607  10.167  0.1453  0.1253 -0.0122
32824ION     NA48958   2.110   2.701   1.252  0.3509  0.1343 -0.1153
32825ION     NA48959   5.763  12.681   1.744  0.0467 -0.1561 -0.1162
32826ION     NA48960   4.530   4.123  10.024  0.0898  0.0461  0.2007
32827ION     NA48961  12.369   2.227  10.178 -0.1878 -0.1121  0.1782
32828ION     NA48962   2.038   0.042   4.453 -0.5299 -0.1653  0.0691
32829ION     NA48963   7.149  17.903   9.840  0.0259  0.0280 -0.1560
32830ION     NA48964  15.946   3.995   5.003 -0.1005  0.2676  0.1198
32831ION     NA48965  13.644   9.617   3.592 -0.1579  0.0213  0.1752
32832ION     NA48966  15.808  10.379   4.006 -0.0506 -0.0187 -0.1223
32833ION     NA48967  16.484   2.563  13.967 -0.1778  0.0704  0.0882
32834ION     NA48968  16.798   5.017   3.809 -0.0212  0.0979  0.1948
32835ION     NA48969   6.914   6.245   5.893  0.0131 -0.2359 -0.1300
32836ION     NA48970  12.779  12.964   2.971 -0.2158  0.3467 -0.1442
32837ION     NA48971   7.990   4.388   5.114  0.2500 -0.1999 -0.0840
32838ION     NA48972   4.648  18.689  13.474  0.0942  0.3836 -0.1926
32839ION     NA48973  10.484   9.656  10.179  0.3377  0.2247 -0.0593
32840ION     NA48974   3.026   7.415  11.013  0.1264  0.0048 -0.1414
32841ION     NA48975   0.222  16.582   0.372  0.1630  0.2188 -0.1082
32842ION     NA48976   3.222   5.890  10.463 -0.0954  0.0809 -0.0451
32843ION     NA48977   7.674  17.933  14.968 -0.2864 -0.0792 -0.0540
32844ION     NA48978   3.025   2.322   5.391 -0.3154 -0.1597 -0.0036
32845ION     NA48979   6.989  11.087  10.441 -0.0908 -0.1459  0.0934
32846ION     NA48980  13.636   4.647   4.651 -0.4019 -0.1697 -0.1975
32847ION     NA48981   0.533  10.240  13.187 -0.2130 -0.3940 -0.2138
32848ION     NA48982   9.799   6.502  10.228 -0.2405 -0.3106  0.0117
32849ION     NA48983   4.718  16.701  12.212  0.1502 -0.2359 -0.0282
32850ION     NA48984  12.895   1.389  14.120 -0.1723  0.2770 -0.0717
32851ION     NA48985   7.866   1.031   3.258 -0.1426 -0.0764 -0.1672
32852ION     NA48986  13.354  18.663   0.194  0.1078 -0.0051  0.2207
32853ION     NA48987  17.371  10.261  10.403 -0.2567  0.1064 -0.2345
32854ION     NA48988   5.591   3.454  14.142  0.0566 -0.0260 -0.0962
32855ION     NA48989  12.479  11.312  14.475  0.0780  0.2523  0.0481
32856ION     NA48990   8.432   3.092  10.185  0.1477  0.0030  0.3714
32857ION     NA48991   4.522  13.778  14.649  0.1554 -0.5439 -0.2217
32858ION     NA48992   1.679   4.906  10.330  0.1363  0.1391  0.0188
32859ION     NA48993  14.358   0.697   2.224 -0.3126 -0.0782 -0.1282
32860ION     NA48994  11.228   1.231   5.563  0.1165 -0.3086 -0.4546
32861ION     NA48995  13.236  12.833   4.967  0.0101  0.1405  0.0854
32862ION     NA48996  12.270   9.781  11.786  0.2837  0.1476  0.2556
32863ION     NA48997   8.319   4.986  10.319 -0.2855 -0.0168 -0.0085
32864ION     NA48998   2.646   3.123   4.437  0.3765 -0.3211  0.0931
32865ION     NA48999  13.898  13.290   9.771 -0.1149  0.0323 -0.0873
32866ION     NA49000  16.127  10.430  10.895  0.2268  0.0049  0.0715
32867ION     NA49001   8.718   0.969  15.179  0.0478  0.0470  0.2034
32868ION     NA49002   1.577   1.792   2.261  0.3852  0.0757  0.0237
32869ION     NA49003   5.053   0.568   9.838 -0.3010  0.1107 -0.4797
32870ION     NA49004  13.102  14.738  15.362 -0.3043 -0.0687 -0.2445
32871ION     NA49005   3.990  10.948  13.243  0.1106 -0.2755 -0.1317
32872ION     NA49006  18.202   4.718   3.082  0.0395  0.0294 -0.1987
32873ION     NA49007  10.443   8.980   4.121  0.2026 -0.2004 -0.1301
32874ION     NA49008  12.496  16.587   3.135 -0.0053 -0.4554  0.1195
32875ION     NA49009  12.932   3.647   5.129  0.0486  0.2020  0.0510
32876ION     NA49010   2.720  12.253   5.049 -0.2356 -0.1880  0.0527
32877ION     NA49011  16.557  18.002  13.961 -0.0752  0.2597  0.0587
32878ION     NA49012   8.307   1.228   5.614 -0.2301  0.0429 -0.0386
32879ION     NA49013   2.538   5.668   2.941  0.1844 -0.0657  0.1323
32880ION     NA49014   9.657  12.808  10.040 -0.0581 -0.1183 -0.1499
32881ION     NA49015   4.663  12.696   2.896  0.1033 -0.0572  0.1368
32882ION     NA49016   8.912  16.560   5.126  0.0180 -0.0505 -0.0736
32883ION     NA49017   5.353  11.317  10.872 -0.4295 -0.0553 -0.1569
32884ION     NA49018   7.178   1.415   1.700  0.0862 -0.2379  0.6180
32885ION     NA49019  10.482  15.739   2.741 -0.1769  0.0891 -0.0894
32886ION     NA49020   9.430  15.853   5.507  0.0331  0.2345  0.1442
32887ION     NA49021  17.650  17.999  10.375 -0.0504  0.0583  0.2676
32888ION     NA49022   3.127   2.893   2.636  0.0740  0.0881  0.0265
32889ION     NA49023   0.926  13.780   3.912  0.1360 -0.1667  0.0568
32890ION     NA49024  17.777   9.387   5.984  0.0504  0.2188 -0.0556
32891ION     NA49025   6.532   2.685   1.663 -0.3017 -0.1277 -0.2392
32892ION     NA49026  18.680   0.414  15.507  0.1549 -0.0556  0.0171
32893ION     NA49027  18.108   0.045   5.693 -0.0558 -0.1994  0.4362
32894ION     NA49028  14.775  17.479  10.072 -0.1505 -0.2258  0.2753
32895ION     NA49029   4.807   6.719   5.543  0.1755 -0.0642  0.2491
32896ION     NA49030   1.352   3.912  12.222 -0.0698 -0.1235  0.0942
32897ION     NA49031  13.022   3.173   5.815  0.2283 -0.3900 -0.3278
32898ION     NA49032   1.389   2.566   3.890 -0.2472  0.0444 -0.1405
32899ION     NA49033  18.022  14.286   2.140  0.2475  0.0896  0.2804
32900ION     NA49034  13.482  10.505  12.685  0.4891 -0.2757  0.0180
32901ION     NA49035   6.805   5.073   5.456  0.2021 -0.2401 -0.0040
32902ION     NA49036  11.611   6.147   5.369 -0.0818 -0.0842 -0.1192
32903ION     NA49037   5.388   1.447   5.595  0.2887  0.1233 -0.2705
32904ION     NA49038  16.317   5.511   2.967  0.0429 -0.1006 -0.0919
32905ION     NA49039  10.935  13.512   1.124  0.0902 -0.1817 -0.0694
32906ION     NA49040  11.487  15.675  10.050 -0.0036 -0.0400 -0.0534
32907ION     NA49041  16.229   1.166   0.363 -0.1100  0.1396  0.1463
32908ION     NA49042  18.461  15.312   2.850  0.1300 -0.0744  0.1833
32909ION     NA49043  13.181   6.077   5.259  0.2602  0.0568  0.1032
32910ION     NA49044  12.506   3.464   4.901 -0.3807  0.0204  0.2591
32911ION     NA49045  18.270   2.896   2.470 -0.2014  0.2990 -0.4389
32912ION     NA49046  11.753  11.296   0.087 -0.1216 -0.2011 -0.2194
32913ION     NA49047   0.710   3.922  10.136 -0.0300  0.0190  0.5101
32914ION     NA49048   9.841   1.496   1.780  0.1556 -0.1543 -0.3276
32915ION     NA49049   3.730   5.669   5.683  0.1773 -0.4273  0.3516
32916ION     NA49050  11.045   1.255  10.459  0.1482 -0.3179  0.1419
32917ION     NA49051   6.402  15.778  10.060  0.0699  0.2549 -0.0703
32918ION     NA49052  13.441   8.381  15.084  0.0150 -0.2333  0.0202
32919ION     NA49053   1.098   2.417   0.688 -0.3864 -0.3138 -0.0558
32920ION     NA49054  18.489   8.475  10.332  0.0661 -0.1636  0.1244
32921ION     NA49055   5.535  14.395   3.934 -0.2176 -0.1722 -0.3329
32922ION     NA49056   6.450  10.495   2.596  0.1273 -0.0046  0.1214
32923ION     NA49057   7.252   2.391  15.126 -0.0799  0.0321 -0.2909
32924ION     NA49058   4.715   9.096   5.816  0.0577 -0.0685  0.2522
32925ION     NA49059  11.763   4.868  13.804  0.2708 -0.1588 -0.4676
32926ION     NA49060  17.421  14.380   0.272 -0.1549 -0.2015 -0.4633
32927ION     NA49061  14.178   6.032  10.009 -0.1558  0.2119 -0.2862
32928ION     NA49062   9.567   4.922  13.707  0.1707 -0.0943 -0.0918
32929ION     NA49063  10.049  14.433   9.974  0.1940 -0.0498  0.2790
32930ION     NA49064   5.536   7.187  10.076 -0.2206 -0.1879  0.3251
32931ION     NA49065  10.401   1.184   5.258  0.2398  0.4262  0.2003
32932ION     NA49066   1.413  15.139   3.794  0.1590  0.0239 -0.0069
32933ION     NA49067   7.081  13.836   0.647  0.0136 -0.2164  0.1452
32934ION     NA49068   6.613   6.672   5.231  0.0648  0.0452  0.1959
32935ION     NA49069   9.527   4.046   3.510 -0.1395  0.0337 -0.1848
32936ION     NA49070  11.639  18.046  13.938  0.2178  0.0974 -0.0477
32937ION     NA49071   9.132  10.019   1.654  0.1152  0.1400  0.2241
32938ION     NA49072   0.975   5.707   5.827  0.0429  0.0007  0.2239
32939ION     NA49073  18.385   2.002   5.898  0.2046 -0.0972  0.2506
32940ION     NA49074   5.891   2.936  12.063  0.0060 -0.2744 -0.0851
32941ION     NA49075  15.982  13.786   3.007 -0.2274  0.2039  0.0035
32942ION     NA49076  11.079  13.320   5.510  0.1991 -0.2854  0.0933
32943ION     NA49077   3.400  10.903   1.779  0.1492  0.0157 -0.1354
32944ION     NA49078  14.499  15.511  13.817 -0.1751 -0.1547  0.1417
32945ION     NA49079   0.752   1.640   2.854  0.1609 -0.2765  0.0494
32946ION     NA49080  11.565   1.374   1.808  0.5306 -0.2751  0.0854
32947ION     NA49081  18.264   9.918   4.612 -0.4200  0.0125 -0.0228
32948ION     NA49082  13.767  18.318  14.666  0.1246 -0.2884 -0.1530
32949ION     NA49083   4.781  12.724   1.203 -0.0192 -0.3287  0.2813
32950ION     NA49084   5.693   2.804   2.693 -0.0395 -0.3536 -0.0957
32951ION     NA49085  16.678   8.790  10.311  0.0959  0.1386 -0.1952
32952ION     NA49086  16.648   7.189  12.694  0.1936 -0.0439  0.0868
32953ION     NA49087   9.104   5.519   5.872 -0.0947 -0.1653 -0.1942
32954ION     NA49088  15.554  11.730   2.847  0.0741 -0.2847  0.0588
32955ION     NA49089   2.423   3.622  10.184 -0.1238 -0.0051  0.3007
32956ION     NA49090   2.672  15.176  14.912 -0.1085 -0.0032  0.1783
32957ION     NA49091   1.989   7.887   3.093  0.1650  0.1389 -0.0280
32958ION     NA49092   6.975  16.280   5.500 -0.2905  0.1900 -0.0589
32959ION     NA49093  16.877  17.758   3.571 -0.3888 -0.1922 -0.0912
32960ION     NA49094   1.282   1.016   2.682 -0.2929 -0.1319 -0.1591
32961ION     NA49095   4.677   6.494  12.227 -0.2611 -0.2462  0.2289
32962ION     NA49096  11.607   0.973   5.789 -0.1933  0.0105 -0.1370
32963ION     NA49097   6.059   8.384   5.418 -0.3922 -0.0385  0.0512
32964ION     NA49098   7.240   0.862   9.569 -0.1785 -0.1002  0.1848
32965ION     NA49099   6.231  11.496   9.567  0.3304  0.0043  0.1534
32966ION     NA49100  14.828  16.686   3.181 -0.1148 -0.1288  0.1539
32967ION     NA49101   4.324  11.816   2.110 -0.1987 -0.0812 -0.2677
32968ION     NA49102   4.354   5.117   4.857  0.3895 -0.0241  0.0267
32969ION     NA49103   4.172  16.006   9.615  0.0392 -0.0418  0.0800
32970ION     NA49104   0.859  15.885  11.797 -0.0817  0.1228 -0.1711
32971ION     NA49105   1.615  14.945   9.874 -0.0842  0.2470 -0.0498
32972ION     NA49106   1.755  18.700   5.810 -0.1797 -0.2157  0.2998
32973ION     NA49107   5.913   7.511  12.938 -0.2786  0.1557  0.4154
32974ION     NA49108  14.973  16.110   1.244  0.0136  0.1055 -0.0539
32975ION     NA49109   9.517   0.798   0.145  0.0611  0.0639  0.2719
32976ION     NA49110   6.428   7.001  15.187 -0.0426  0.1170  0.1538
32977ION     NA49111   2.439  17.719   3.775 -0.1673 -0.2347  0.0330
32978ION     NA49112   4.481  10.922  10.065  0.1416 -0.2146 -0.2312
32979ION     NA49113   5.144  11.485   9.849  0.1730  0.1327 -0.1234
32980ION     NA49114   4.827   1.696   3.894 -0.3115 -0.0755  0.1669
32981ION     NA49115  13.682  11.223   5.025  0.1482  0.1293  0.0831
32982ION     NA49116   6.311  14.168   5.408 -0.1080  0.0247 -0.1404
32983ION     NA49117  16.287  10.780  10.031 -0.4352  0.0802 -0.0150
32984ION     NA49118  10.420  12.766   5.536  0.1436  0.1938  0.0390
32985ION     NA49119  13.780  11.626  13.581 -0.2730 -0.2746  0.1071
32986ION     NA49120  10.370  18.551  10.041  0.1811  0.2145 -0.1479
32987ION     NA49121   2.774  15.942  14.380 -0.0821  0.1105 -0.2011
32988ION     NA49122   0.627   3.291   3.097 -0.1990  0.1389  0.1149
32989ION     NA49123   5.600   9.918  14.648 -0.0106 -0.2375 -0.0162
32990ION     NA49124   0.781   8.519  14.902 -0.0260 -0.0326  0.1379
32991ION     NA49125   3.683  18.501   2.643 -0.4757  0.0572  0.1394
32992ION     NA49126   4.490  16.912   9.794  0.1585  0.0234 -0.0939
32993ION     NA49127  11.013  16.052   1.426 -0.2000  0.1839  0.1153
32994ION     NA49128  17.780  10.743  13.308  0.0863  0.1404 -0.0528
32995ION     NA49129  11.974   3.655  12.847  0.1214  0.1329 -0.3058
32996ION     NA49130  11.955   8.680   9.683 -0.1369 -0.0256 -0.1938
32997ION     NA49131  13.226  12.757   4.160  0.1784  0.1862  0.0068
32998ION     NA49132   4.834   7.871   9.896 -0.2970  0.0718  0.0559
32999ION     NA49133  10.660   6.962   3.375  0.0838  0.0369 -0.2926
33000ION     NA49134   4.440   7.831  14.698 -0.3879 -0.0003  0.3230
33001ION     NA49135  11.201  11.987   9.995 -0.1714 -0.0506 -0.0060
33002ION     NA49136   8.993  14.057  10.028  0.1736  0.2968  0.0008
33003ION     NA49137  12.288   7.619   9.730  0.2905 -0.0369 -0.0513
33004ION     NA49138   9.188  15.602  13.923  0.0992  0.1306  0.0458
33005ION     NA49139   6.407   2.477   9.796 -0.5090  0.1505 -0.0381
33006ION     NA49140   3.906   8.095   9.904 -0.2688 -0.1430 -0.0726
33007ION     NA49141   5.062  15.722  13.758  0.1755  0.0668 -0.0256
33008ION     NA49142  13.645   6.539  12.241 -0.0677  0.2471 -0.1930
33009ION     NA49143   2.437  12.093   0.416  0.1362  0.4340  0.2452
33010ION     NA49144   6.684   6.445   1.376  0.0894  0.0176 -0.0119
33011ION     NA49145   9.249   3.614  10.189 -0.1343  0.0827 -0.3620
33012ION     NA49146  14.854  13.540   0.401  0.1366 -0.1192  0.1311
33013ION     NA49147  13.886  15.289   5.766  0.1648 -0.1062 -0.0458
33014ION     NA49148   8.838  16.461  13.034  0.2947 -0.2826 -0.3388
33015ION     NA49149  10.176  13.269   0.443 -0.1151  0.0943  0.1183
33016ION     NA49150   2.935  10.671  13.798  0.0716  0.2490  0.2923
33017ION     NA49151   2.371   0.855   2.092 -0.0135 -0.0488  0.1201
33018ION     NA49152   5.500   5.688   5.240  0.0234  0.1032  0.1379
33019ION     NA49153   6.220  11.605  10.011 -0.1617 -0.1384 -0.2298
33020ION     NA49154  12.876  12.160  15.366 -0.1140 -0.1503 -0.0458
33021ION     NA49155  16.110  16.993   9.994  0.2921  0.0181 -0.3240
33022ION     NA49156   3.645   4.138  10.048 -0.0969 -0.0930  0.0320
33023ION     NA49157   8.201  15.517  10.004  0.0491 -0.1552  0.1952
33024ION     NA49158  12.766  11.004   5.514  0.2439  0.1309  0.1512
33025ION     NA49159  12.214   9.877   4.548  0.0398 -0.3097  0.1923
33026ION     NA49160  16.943  12.437   2.132  0.1211 -0.2386 -0.2299
33027ION     NA49161   6.416   7.946   3.449 -0.0463  0.0126  0.0942
33028ION     NA49162   9.288   8.558   1.502 -0.1588  0.0408 -0.0507
33029ION     NA49163  18.023   0.204   2.114  0.1650  0.0735  0.1741
33030ION     NA49164   0.842  14.563  15.204  0.1848  0.2521  0.0126
33031ION     NA49165  12.208   3.018  13.644  0.3643  0.0002  0.0466
33032ION     NA49166   6.052  11.249   1.513  0.2197  0.2268  0.0282
33033ION     NA49167  11.542  13.778   9.931 -0.3009  0.1112  0.1437
33034ION     NA49168   9.454  15.561  14.810 -0.0956 -0.1291 -0.2818
33035ION     NA49169  10.300  16.281  13.922 -0.2443  0.1009 -0.1563
33036ION     NA49170   5.787  15.315   2.875  0.0080  0.1059 -0.0181
33037ION     NA49171  16.101   9.950   2.713 -0.1553  0.0377 -0.0479
33038ION     NA49172   4.776   5.730   4.082  0.3871  0.3200 -0.1315
33039ION     NA49173  14.503  12.635   9.783 -0.3881  0.0393 -0.2820
33040ION     NA49174   3.672   5.012   0.295 -0.0627 -0.0169  0.1656
33041ION     NA49175  16.704  17.734  10.012  0.3094 -0.2562  0.1406
33042ION     NA49176  10.128  11.401   2.397  0.1028 -0.1102  0.0680
33043ION     NA49177   4.033  12.745  13.783  0.2582  0.2645  0.1222
33044ION     NA49178   2.656  13.502   9.864 -0.3165  0.0078 -0.1283
33045ION     NA49179  17.725   6.685  12.017 -0.0421 -0.0958 -0.1205
33046ION     NA49180   0.196   4.697   4.653 -0.1874  0.0286  0.2815
33047ION     NA49181   4.283  12.159  10.157 -0.0431  0.0159 -0.3108
33048ION     NA49182   1.141   4.831  12.417 -0.0312 -0.0039 -0.1375
33049ION     NA49183  18.152   0.813   5.118  0.2793  0.2404  0.1794
33050ION     NA49184  12.216   1.201   4.049 -0.1144  0.2064 -0.0525
33051ION     NA49185   0.710   1.433  14.805  0.0332 -0.1141  0.1170
33052ION     NA49186  11.026   8.486   3.513  0.0506 -0.0108 -0.0301
33053ION     NA49187  15.912   0.407  12.306 -0.2777  0.2490  0.1205
33054ION     NA49188   8.450   6.066   5.963 -0.1118  0.0820 -0.2697
33055ION     NA49189   3.409  12.175  12.746 -0.1804  0.0619 -0.1137
33056ION     NA49190  14.997  14.792  15.434  0.0549  0.1361  0.1136
33057ION     NA49191  18.642   9.064   4.112  0.0225 -0.1465  0.1200
33058ION     NA49192  11.216  14.145  14.802 -0.0493  0.0516 -0.1320
33059ION     NA49193  11.381   2.681  13.138 -0.2124  0.1572 -0.4928
33060ION     NA49194   4.586  17.864   9.890  0.0034 -0.1114  0.0696
33061ION     NA49195  18.339   0.872   1.069  0.1015 -0.2423  0.0032
33062ION     NA49196  15.427   7.214  10.040  0.1508 -0.2823 -0.2191
33063ION     NA49197  11.293   2.351  10.403 -0.2464  0.1309  0.1341
33064ION     NA49198  15.864   6.299  10.058 -0.0717  0.2331  0.3477
33065ION     NA49199   1.259  10.852  10.891 -0.2115 -0.1467  0.2058
33066ION     NA49200  17.187   2.310   9.920  0.0975  0.0209  0.2467
33067ION     NA49201   8.190  14.512  10.045  0.2391  0.2805  0.1672
33068ION     NA49202   0.853   7.295   5.639 -0.3385 -0.0690 -0.1113
33069ION     NA49203   6.985  13.605  14.679 -0.0994  0.0380  0.0536
33070ION     NA49204   8.037  18.311  14.307  0.0484 -0.1524  0.0143
33071ION     NA49205  11.364  16.579  10.796  0.0214  0.0847  0.3656
33072ION     NA49206  16.578  12.030  15.435  0.3654 -0.3742  0.2678
33073ION     NA49207   8.981   6.790  10.601  0.0432  0.0462  0.2878
33074ION     NA49208   0.923   8.705   5.317  0.2481 -0.0103 -0.1402
33075ION     NA49209  10.636  16.627   9.915  0.0644  0.3210  0.2768
33076ION     NA49210   2.074  12.482   9.949  0.1473  0.0105 -0.0835
33077ION     NA49211   4.352   1.185   4.780  0.0288 -0.2370 -0.0382
33078ION     NA49212  10.676   3.013   1.478 -0.0048  0.0472 -0.3581
33079ION     NA49213  18.390  16.880   5.713 -0.2483 -0.0066 -0.2868
33080ION     NA49214  15.357  12.484   5.737  0.0132 -0.0060 -0.0500
33081ION     NA49215  17.341   2.493  12.188  0.1923  0.0765 -0.0378
33082ION     NA49216   6.046   3.311   2.904 -0.1515  0.1443 -0.1143
33083ION     NA49217  15.906   5.190  12.955 -0.2418 -0.1530 -0.0463
33084ION     NA49218   3.128  11.140   4.296 -0.0612 -0.0704 -0.1071
33085ION     NA49219   9.051   1.544   5.192 -0.2286  0.2827  0.3374
33086ION     NA49220   7.946   9.024  10.273  0.0991 -0.1929 -0.2809
33087ION     NA49221  15.396   5.312   2.370  0.0928 -0.0425  0.2576
33088ION     NA49222  15.859   0.111   5.451 -0.0656 -0.2098  0.0517
33089ION     NA49223  10.892   6.552  10.705  0.2130  0.0581 -0.1486
33090ION     NA49224  15.588  16.847  10.099  0.2153  0.4416 -0.1883
33091ION     NA49225   0.512  18.277   0.295 -0.0460 -0.0453  0.1362
33092ION     NA49226   1.521  17.531   1.215  0.2240 -0.4290  0.0587
33093ION     NA49227  14.396   6.079   2.192 -0.1631 -0.4994 -0.1886
33094ION     NA49228   1.086   0.644  14.668 -0.3542  0.2675  0.1683
33095ION     NA49229  14.339  14.324   9.960  0.0864 -0.0103  0.1999
33096ION     NA49230   4.116   3.729   0.796 -0.3311  0.0300  0.3175
33097ION     NA49231   4.207  16.112   4.343  0.4149 -0.0455  0.0536
33098ION     NA49232  11.247  11.858   5.650  0.1749  0.2400 -0.0955
33099ION     NA49233   0.153  16.495  10.489  0.0553  0.2055 -0.2779
33100ION     NA49234   3.953   5.045   3.370 -0.1397  0.1780 -0.1302
33101ION     NA49235  13.756  14.341  13.778 -0.0239 -0.0220  0.0235
33102ION     NA49236  17.832   4.211   9.911 -0.0370  0.0594  0.0697
33103ION     NA49237   8.091   5.753   0.743 -0.0708 -0.0925 -0.1616
33104ION     NA49238   9.943  17.880  14.941  0.2652 -0.1936  0.2982
33105ION     NA49239  14.882  13.568   9.955  0.1033  0.1266 -0.1974
33106ION     NA49240   1.805   8.044   5.826 -0.1131  0.4773 -0.3033
33107ION     NA49241  12.599   0.553   1.166  0.1392 -0.1705 -0.0032
33108ION     NA49242   9.187  12.565   2.739  0.0791  0.1950 -0.1778
33109ION     NA49243   8.032  18.394   9.662  0.0644  0.0499  0.0654
33110ION     NA49244  16.652   6.891  10.214 -0.0466  0.1040 -0.0198
33111ION     NA49245  16.587  12.628  10.141 -0.5252  0.1800  0.1590
33112ION     NA49246  11.390   7.649   5.976 -0.1117  0.1181 -0.1524
33113ION     NA49247   5.280   8.615  15.428 -0.1223 -0.0449  0.0983
33114ION     NA49248  12.608   7.244   1.152 -0.4065 -0.1320  0.1194
33115ION     NA49249   8.915   8.982   2.573  0.1304 -0.1260 -0.1377
33116ION     NA49250   7.372  18.507   3.965 -0.1817 -0.1281  0.1321
33117ION     NA49251  11.720   2.073   5.604 -0.1299 -0.0082  0.1389
33118ION     NA49252  17.230   5.638   0.190  0.0272  0.0604 -0.1395
33119ION     NA49253  11.084   4.909  10.362 -0.3127 -0.0436 -0.0937
33120ION     NA49254   9.269  10.125  10.625 -0.0540  0.2463 -0.0004
33121ION     NA49255   6.212  17.305  13.032  0.0227  0.4590 -0.0958
33122ION     NA49256  13.358  10.568   2.519 -0.1089 -0.0375  0.0184
33123ION     NA49257   5.197  18.427  11.811  0.2161  0.1218 -0.0062
33124ION     NA49258  15.511   1.170   2.715  0.1523  0.2453  0.0279
33125ION     NA49259  16.622   8.611   5.750 -0.0425  0.0882  0.0076
33126ION     NA49260   0.421   3.028  12.650  0.0799 -0.1996 -0.2782
33127ION     NA49261  11.316  13.742   3.514  0.1031 -0.0561 -0.3567
33128ION     NA49262  13.577  16.104  13.054 -0.0306  0.0008  0.0343
33129ION     NA49263  10.137  15.670  14.852 -0.0548  0.0367  0.0310
33130ION     NA49264   5.233  18.430   5.319 -0.1361 -0.3019  0.0631
33131ION     NA49265   2.992   4.164   3.145  0.2935  0.1858 -0.1072
33132ION     NA49266   2.920   4.889   1.922  0.1786  0.1049  0.0710
33133ION     NA49267   4.684  10.342   5.049  0.0487 -0.0307  0.0226
33134ION     NA49268   0.570  16.639   5.527  0.0272  0.1033  0.1104
33135ION     NA49269   5.604   9.544   5.911  0.2545 -0.1478 -0.0221
33136ION     NA49270   4.858  15.055   0.804 -0.0274 -0.2793 -0.0908
33137ION     NA49271  11.865   4.789  11.806  0.1321 -0.3089  0.0113
33138ION     NA49272   4.668   2.957   5.457  0.0680  0.1537 -0.0962
33139ION     NA49273  11.781  16.648   5.624 -0.0386  0.0183 -0.1736
33140ION     NA49274  13.449  12.472  10.001  0.0224 -0.0567  0.1423
33141ION     NA49275   4.768   5.712  13.318  0.1170 -0.3421 -0.0816
33142ION     NA49276   5.474  11.593   0.286  0.0255  0.0324  0.1067
33143ION     NA49277   6.622  18.272   5.679  0.1396  0.2326 -0.2037
33144ION     NA49278  11.485   3.688   2.586 -0.0673 -0.3407 -0.1199
33145ION     NA49279   9.558   8.681  14.751  0.1351  0.0694  0.1865
33146ION     NA49280   6.412   7.378  10.283 -0.0022 -0.0195 -0.2381
33147ION     NA49281  12.717   8.924  13.275  0.3105  0.0692  0.1598
33148ION     NA49282   3.961  15.089   9.848  0.1554  0.1993  0.0498
33149ION     NA49283   5.420   9.550  10.070  0.1180 -0.0076 -0.1718
33150ION     NA49284   0.169   8.949   5.909 -0.0897 -0.0752  0.1288
33151ION     NA49285   4.390   4.424   5.755  0.2200  0.0603  0.0963
33152ION     NA49286   3.437  11.783  10.167  0.3665 -0.1925 -0.4474
33153ION     NA49287  14.071   9.279   2.088 -0.0616 -0.1644 -0.0350
33154ION     NA49288   9.040   5.999  10.228  0.3371  0.2026  0.1178
33155ION     NA49289   2.338   0.797  13.796 -0.1994 -0.3895 -0.1926
33156ION     NA49290   7.435  17.779   4.585  0.0330  0.1581 -0.1956
33157ION     NA49291  18.629  11.530   0.436  0.1481 -0.0879 -0.0830
33158ION     NA49292  16.118  12.735   2.221  0.0383  0.1819 -0.1948
33159ION     NA49293  10.523   4.552   5.693  0.0790  0.1213 -0.0721
33160ION     NA49294   1.023   6.287   1.237 -0.0996 -0.2714 -0.2508
33161ION     NA49295  10.002  14.141   5.202  0.0597 -0.2856  0.2240
33162ION     NA49296  15.271  14.369   3.791  0.2025  0.1161  0.1708
33163ION     NA49297   2.831  15.804   5.474 -0.1293  0.2256 -0.1446
33164ION     NA49298   6.881   8.664   5.243  0.0067  0.1638 -0.1907
33165ION     NA49299   9.205   8.208  12.748  0.0494 -0.0192  0.0043
33166ION     NA49300   8.049  11.962  10.011 -0.0559  0.0028 -0.2629
33167ION     NA49301   3.337  11.021   5.735 -0.3694 -0.0524 -0.0638
33168ION     NA49302   8.656  13.958  15.367 -0.2326 -0.0587  0.2991
33169ION     NA49303  10.549   8.269  12.510  0.2472  0.1453  0.1759
33170ION     NA49304   1.118   7.523   2.220  0.0136 -0.0270 -0.2773
33171ION     NA49305  15.229  10.242   5.303 -0.2142  0.0883 -0.2634
33172ION     NA49306  11.647  14.749   3.762  0.0750 -0.0248 -0.1634
33173ION     NA49307  17.522   1.189  15.309  0.0133 -0.1098  0.3079
33174ION     NA49308   1.782   4.422   1.332  0.0283 -0.2627 -0.0354
33175ION     NA49309  10.657  17.413   2.607 -0.3892  0.0899 -0.1126
33176ION     NA49310   4.197  17.882   0.311  0.1335  0.1333  0.1515
33177ION     NA49311   7.515   9.627   5.496 -0.1463  0.0399 -0.3103
33178ION     NA49312   6.719  10.047  10.126  0.0698  0.0922 -0.1100
33179ION     NA49313  14.774  17.861  13.630  0.0862  0.1201 -0.0133
33180ION     NA49314   5.252   4.400   5.956 -0.1274  0.0386 -0.0545
33181ION     NA49315  15.896   6.749  11.242 -0.0323 -0.1824 -0.3692
33182ION     NA49316   5.675  13.751   5.412 -0.1712 -0.0778 -0.5428
33183ION     NA49317   0.644  11.507   2.148 -0.2718  0.2014 -0.2790
33184ION     NA49318  16.541   3.453  12.809 -0.2367  0.1948  0.1979
33185ION     NA49319   9.609  14.368  13.445  0.0494  0.1225 -0.0381
33186ION     NA49320   4.386  18.695   9.978  0.0634 -0.0400 -0.1372
33187ION     NA49321   2.724  12.989   5.445  0.0902  0.0582  0.1828
33188ION     NA49322   0.756   7.635   1.787 -0.4592  0.0651  0.0614
33189ION     NA49323   7.649  16.350   5.451 -0.1227 -0.1233  0.0082
33190ION     NA49324   1.303  12.246  10.051  0.1055 -0.0746 -0.1328
33191ION     NA49325   7.423   5.974   2.467 -0.1432  0.2435 -0.1489
33192ION     NA49326   6.857  12.592   9.789 -0.1587 -0.1528 -0.1142
33193ION     NA49327  17.514   5.952   5.738  0.2982  0.0448  0.0141
33194ION     NA49328   9.182   2.403   3.167 -0.0590  0.1360 -0.2604
33195ION     NA49329  17.985   7.706  11.535 -0.2946  0.1032  0.0397
33196ION     NA49330   1.788  11.501  10.101  0.0989  0.3533  0.2349
33197ION     NA49331  10.265  11.597  15.126  0.0926 -0.0979  0.0697
33198ION     NA49332   5.719   2.173   9.868  0.1001  0.1906 -0.2181
33199ION     NA49333   8.065  10.225   9.722  0.4943  0.4902 -0.2821
33200ION     NA49334  15.060   7.228   5.438 -0.2812  0.0760 -0.3348
33201ION     NA49335   7.692   0.551   5.636  0.0454 -0.1104  0.1659
33202ION     NA49336   3.690  15.833   4.957  0.0329 -0.1778 -0.0530
33203ION     NA49337  14.715   5.760  14.142 -0.6030 -0.1615  0.1610
33204ION     NA49338  14.394   0.145   0.798  0.2891 -0.2174 -0.0333
33205ION     NA49339   8.750   2.976  11.102  0.2497  0.0650  0.2005
33206ION     NA49340  17.943  11.831  11.795  0.0031  0.2944  0.1204
33207ION     NA49341  17.584  14.920   5.581  0.1732  0.2294 -0.3554
33208ION     NA49342  18.343  18.205   9.877  0.2613  0.2831  0.1776
33209ION     NA49343  15.083   0.968   1.684  0.0436 -0.2503  0.1483
33210ION     NA49344   4.409   3.877   5.802  0.1082 -0.1480  0.2495
33211ION     NA49345  16.558   1.963   3.100 -0.3264  0.0670  0.1375
33212ION     NA49346   0.303  11.318   9.932 -0.2663 -0.0898 -0.0800
33213ION     NA49347   2.415  15.001   5.256 -0.2101  0.0039 -0.0198
33214ION     NA49348   1.423  18.506  15.248 -0.1267 -0.0531  0.0179
33215ION     NA49349   2.606  17.807   2.267  0.1700  0.0014  0.0839
33216ION     NA49350   0.176  11.122   1.103  0.0700 -0.0450  0.0551
33217ION     NA49351   3.674  13.616   4.674  0.0574  0.2040  0.2834
33218ION     NA49352  17.298   9.469   1.652  0.0256 -0.2602  0.0425
33219ION     NA49353   0.836   7.255   9.969  0.0962 -0.3569  0.1210
33220ION     NA49354   8.362  15.791   2.328 -0.0968  0.1399 -0.1687
33221ION     NA49355   4.355  14.094  13.404 -0.2026 -0.2071 -0.0276
33222ION     NA49356   4.398  13.145   0.379  0.1240  0.1022 -0.3570
33223ION     NA49357  16.300   9.852  11.703  0.2310  0.0498 -0.1266
33224ION     NA49358   4.496  16.746  15.371  0.3020 -0.1531  0.0900
33225ION     NA49359  13.292   7.557   9.718 -0.0309  0.0241 -0.0164
33226ION     NA49360   3.051   5.611   1.417 -0.0688 -0.1755 -0.3403
33227ION     NA49361  15.398  11.369   9.931 -0.4584  0.0086 -0.1478
33228ION     NA49362  13.621  17.311   3.063 -0.0821  0.2913 -0.5973
33229ION     NA49363   4.902   5.306  10.292 -0.0445  0.5159 -0.0827
33230ION     NA49364   8.949  16.219  10.075  0.0857  0.2135  0.1344
33231ION     NA49365  11.807  16.561   4.339 -0.0228 -0.2004  0.0549
33232ION     NA49366   3.603   9.804  14.228  0.3040  0.0111  0.2269
33233ION     NA49367  17.688  11.789  12.783 -0.1181 -0.2102  0.2198
33234ION     NA49368   6.555  17.645   5.397  0.0235  0.0169 -0.1147
33235ION     NA49369  14.463  12.582  14.642  0.1468 -0.1073 -0.0028
33236ION     NA49370  14.971   5.655  15.143 -0.1589 -0.2034 -0.1101
33237ION     NA49371  18.325  15.265  10.416  0.4519  0.1362  0.1913
33238ION     NA49372  10.053   5.346   6.050 -0.2117 -0.4864 -0.1193
33239ION     NA49373   0.421   2.882   3.567  0.0646 -0.1851  0.1663
33240ION     NA49374  12.135  18.588   2.723  0.0752 -0.0287  0.2427
33241ION     NA49375  17.834   6.202  10.164 -0.0104  0.3914 -0.1944
33242ION     NA49376  18.312  10.230  11.728  0.0727 -0.0296 -0.3108
33243ION     NA49377  18.221  17.238   0.372 -0.0515  0.0472 -0.1921
  18.73238  18.73238  15.57815
